PSF EXT CMAP CHEQ DRUDE XPLOR

         4 !NTITLE
*~~~~~~~~~~~~~~~~~~~~~~~~~~~~~~~~~~~~~~~~~~~~~~~~~~~~~~~~~~~~~~~~~~~~~~~        
*~ MINIMIZATION OF PACKMOL STRUCTURE                                            
*~~~~~~~~~~~~~~~~~~~~~~~~~~~~~~~~~~~~~~~~~~~~~~~~~~~~~~~~~~~~~~~~~~~~~~~        
*  DATE:     4/ 4/23     10:15:37      CREATED BY USER: florian                 

     18200 !NATOM
         1 IM1H     1        IM1H     C1       CD33F     2.48500       11.6110           0  -1.18100       1.10000    
         2 IM1H     1        IM1H     DC1      DRUD     -2.66700      0.400000           0   0.00000       0.00000    
         3 IM1H     1        IM1H     H1       HDA3A    0.135000       1.00800           0   0.00000       0.00000    
         4 IM1H     1        IM1H     H2       HDA3A    0.135000       1.00800           0   0.00000       0.00000    
         5 IM1H     1        IM1H     H3       HDA3A    0.135000       1.00800           0   0.00000       0.00000    
         6 IM1H     1        IM1H     N1       ND2R5C    2.35720       13.6070           0 -0.803000       1.00000    
         7 IM1H     1        IM1H     DN1      DRUD     -2.19920      0.400000           0   0.00000       0.00000    
         8 IM1H     1        IM1H     C2       CD2R5D    2.44700       11.6110           0  -1.08300       1.10000    
         9 IM1H     1        IM1H     DC2      DRUD     -2.55400      0.400000           0   0.00000       0.00000    
        10 IM1H     1        IM1H     H4       HDR5D    0.195000       1.00800           0   0.00000       0.00000    
        11 IM1H     1        IM1H     C3       CD2R5D    2.50700       11.6110           0  -1.08300       1.10000    
        12 IM1H     1        IM1H     DC3      DRUD     -2.55400      0.400000           0   0.00000       0.00000    
        13 IM1H     1        IM1H     H5       HDR5D    0.192000       1.00800           0   0.00000       0.00000    
        14 IM1H     1        IM1H     C4       CD2R5E    2.72410       11.6110           0  -1.25300       1.20000    
        15 IM1H     1        IM1H     DC4      DRUD     -2.74710      0.400000           0   0.00000       0.00000    
        16 IM1H     1        IM1H     H6       HDR5E    0.203000       1.00800           0   0.00000       0.00000    
        17 IM1H     1        IM1H     N2       ND2R5C    2.04220       13.6070           0 -0.803000       1.00000    
        18 IM1H     1        IM1H     DN2      DRUD     -2.19920      0.400000           0   0.00000       0.00000    
        19 IM1H     1        IM1H     H7       HDP1A    0.363000       1.00800           0   0.00000       0.00000    
        20 IM1H     1        IM1H     LPN21    LPD       0.00000       0.00000          -1   0.00000       0.00000    
        21 IM1H     2        IM1H     C1       CD33F     2.48500       11.6110           0  -1.18100       1.10000    
        22 IM1H     2        IM1H     DC1      DRUD     -2.66700      0.400000           0   0.00000       0.00000    
        23 IM1H     2        IM1H     H1       HDA3A    0.135000       1.00800           0   0.00000       0.00000    
        24 IM1H     2        IM1H     H2       HDA3A    0.135000       1.00800           0   0.00000       0.00000    
        25 IM1H     2        IM1H     H3       HDA3A    0.135000       1.00800           0   0.00000       0.00000    
        26 IM1H     2        IM1H     N1       ND2R5C    2.35720       13.6070           0 -0.803000       1.00000    
        27 IM1H     2        IM1H     DN1      DRUD     -2.19920      0.400000           0   0.00000       0.00000    
        28 IM1H     2        IM1H     C2       CD2R5D    2.44700       11.6110           0  -1.08300       1.10000    
        29 IM1H     2        IM1H     DC2      DRUD     -2.55400      0.400000           0   0.00000       0.00000    
        30 IM1H     2        IM1H     H4       HDR5D    0.195000       1.00800           0   0.00000       0.00000    
        31 IM1H     2        IM1H     C3       CD2R5D    2.50700       11.6110           0  -1.08300       1.10000    
        32 IM1H     2        IM1H     DC3      DRUD     -2.55400      0.400000           0   0.00000       0.00000    
        33 IM1H     2        IM1H     H5       HDR5D    0.192000       1.00800           0   0.00000       0.00000    
        34 IM1H     2        IM1H     C4       CD2R5E    2.72410       11.6110           0  -1.25300       1.20000    
        35 IM1H     2        IM1H     DC4      DRUD     -2.74710      0.400000           0   0.00000       0.00000    
        36 IM1H     2        IM1H     H6       HDR5E    0.203000       1.00800           0   0.00000       0.00000    
        37 IM1H     2        IM1H     N2       ND2R5C    2.04220       13.6070           0 -0.803000       1.00000    
        38 IM1H     2        IM1H     DN2      DRUD     -2.19920      0.400000           0   0.00000       0.00000    
        39 IM1H     2        IM1H     H7       HDP1A    0.363000       1.00800           0   0.00000       0.00000    
        40 IM1H     2        IM1H     LPN21    LPD       0.00000       0.00000          -1   0.00000       0.00000    
        41 IM1H     3        IM1H     C1       CD33F     2.48500       11.6110           0  -1.18100       1.10000    
        42 IM1H     3        IM1H     DC1      DRUD     -2.66700      0.400000           0   0.00000       0.00000    
        43 IM1H     3        IM1H     H1       HDA3A    0.135000       1.00800           0   0.00000       0.00000    
        44 IM1H     3        IM1H     H2       HDA3A    0.135000       1.00800           0   0.00000       0.00000    
        45 IM1H     3        IM1H     H3       HDA3A    0.135000       1.00800           0   0.00000       0.00000    
        46 IM1H     3        IM1H     N1       ND2R5C    2.35720       13.6070           0 -0.803000       1.00000    
        47 IM1H     3        IM1H     DN1      DRUD     -2.19920      0.400000           0   0.00000       0.00000    
        48 IM1H     3        IM1H     C2       CD2R5D    2.44700       11.6110           0  -1.08300       1.10000    
        49 IM1H     3        IM1H     DC2      DRUD     -2.55400      0.400000           0   0.00000       0.00000    
        50 IM1H     3        IM1H     H4       HDR5D    0.195000       1.00800           0   0.00000       0.00000    
        51 IM1H     3        IM1H     C3       CD2R5D    2.50700       11.6110           0  -1.08300       1.10000    
        52 IM1H     3        IM1H     DC3      DRUD     -2.55400      0.400000           0   0.00000       0.00000    
        53 IM1H     3        IM1H     H5       HDR5D    0.192000       1.00800           0   0.00000       0.00000    
        54 IM1H     3        IM1H     C4       CD2R5E    2.72410       11.6110           0  -1.25300       1.20000    
        55 IM1H     3        IM1H     DC4      DRUD     -2.74710      0.400000           0   0.00000       0.00000    
        56 IM1H     3        IM1H     H6       HDR5E    0.203000       1.00800           0   0.00000       0.00000    
        57 IM1H     3        IM1H     N2       ND2R5C    2.04220       13.6070           0 -0.803000       1.00000    
        58 IM1H     3        IM1H     DN2      DRUD     -2.19920      0.400000           0   0.00000       0.00000    
        59 IM1H     3        IM1H     H7       HDP1A    0.363000       1.00800           0   0.00000       0.00000    
        60 IM1H     3        IM1H     LPN21    LPD       0.00000       0.00000          -1   0.00000       0.00000    
        61 IM1H     4        IM1H     C1       CD33F     2.48500       11.6110           0  -1.18100       1.10000    
        62 IM1H     4        IM1H     DC1      DRUD     -2.66700      0.400000           0   0.00000       0.00000    
        63 IM1H     4        IM1H     H1       HDA3A    0.135000       1.00800           0   0.00000       0.00000    
        64 IM1H     4        IM1H     H2       HDA3A    0.135000       1.00800           0   0.00000       0.00000    
        65 IM1H     4        IM1H     H3       HDA3A    0.135000       1.00800           0   0.00000       0.00000    
        66 IM1H     4        IM1H     N1       ND2R5C    2.35720       13.6070           0 -0.803000       1.00000    
        67 IM1H     4        IM1H     DN1      DRUD     -2.19920      0.400000           0   0.00000       0.00000    
        68 IM1H     4        IM1H     C2       CD2R5D    2.44700       11.6110           0  -1.08300       1.10000    
        69 IM1H     4        IM1H     DC2      DRUD     -2.55400      0.400000           0   0.00000       0.00000    
        70 IM1H     4        IM1H     H4       HDR5D    0.195000       1.00800           0   0.00000       0.00000    
        71 IM1H     4        IM1H     C3       CD2R5D    2.50700       11.6110           0  -1.08300       1.10000    
        72 IM1H     4        IM1H     DC3      DRUD     -2.55400      0.400000           0   0.00000       0.00000    
        73 IM1H     4        IM1H     H5       HDR5D    0.192000       1.00800           0   0.00000       0.00000    
        74 IM1H     4        IM1H     C4       CD2R5E    2.72410       11.6110           0  -1.25300       1.20000    
        75 IM1H     4        IM1H     DC4      DRUD     -2.74710      0.400000           0   0.00000       0.00000    
        76 IM1H     4        IM1H     H6       HDR5E    0.203000       1.00800           0   0.00000       0.00000    
        77 IM1H     4        IM1H     N2       ND2R5C    2.04220       13.6070           0 -0.803000       1.00000    
        78 IM1H     4        IM1H     DN2      DRUD     -2.19920      0.400000           0   0.00000       0.00000    
        79 IM1H     4        IM1H     H7       HDP1A    0.363000       1.00800           0   0.00000       0.00000    
        80 IM1H     4        IM1H     LPN21    LPD       0.00000       0.00000          -1   0.00000       0.00000    
        81 IM1H     5        IM1H     C1       CD33F     2.48500       11.6110           0  -1.18100       1.10000    
        82 IM1H     5        IM1H     DC1      DRUD     -2.66700      0.400000           0   0.00000       0.00000    
        83 IM1H     5        IM1H     H1       HDA3A    0.135000       1.00800           0   0.00000       0.00000    
        84 IM1H     5        IM1H     H2       HDA3A    0.135000       1.00800           0   0.00000       0.00000    
        85 IM1H     5        IM1H     H3       HDA3A    0.135000       1.00800           0   0.00000       0.00000    
        86 IM1H     5        IM1H     N1       ND2R5C    2.35720       13.6070           0 -0.803000       1.00000    
        87 IM1H     5        IM1H     DN1      DRUD     -2.19920      0.400000           0   0.00000       0.00000    
        88 IM1H     5        IM1H     C2       CD2R5D    2.44700       11.6110           0  -1.08300       1.10000    
        89 IM1H     5        IM1H     DC2      DRUD     -2.55400      0.400000           0   0.00000       0.00000    
        90 IM1H     5        IM1H     H4       HDR5D    0.195000       1.00800           0   0.00000       0.00000    
        91 IM1H     5        IM1H     C3       CD2R5D    2.50700       11.6110           0  -1.08300       1.10000    
        92 IM1H     5        IM1H     DC3      DRUD     -2.55400      0.400000           0   0.00000       0.00000    
        93 IM1H     5        IM1H     H5       HDR5D    0.192000       1.00800           0   0.00000       0.00000    
        94 IM1H     5        IM1H     C4       CD2R5E    2.72410       11.6110           0  -1.25300       1.20000    
        95 IM1H     5        IM1H     DC4      DRUD     -2.74710      0.400000           0   0.00000       0.00000    
        96 IM1H     5        IM1H     H6       HDR5E    0.203000       1.00800           0   0.00000       0.00000    
        97 IM1H     5        IM1H     N2       ND2R5C    2.04220       13.6070           0 -0.803000       1.00000    
        98 IM1H     5        IM1H     DN2      DRUD     -2.19920      0.400000           0   0.00000       0.00000    
        99 IM1H     5        IM1H     H7       HDP1A    0.363000       1.00800           0   0.00000       0.00000    
       100 IM1H     5        IM1H     LPN21    LPD       0.00000       0.00000          -1   0.00000       0.00000    
       101 IM1H     6        IM1H     C1       CD33F     2.48500       11.6110           0  -1.18100       1.10000    
       102 IM1H     6        IM1H     DC1      DRUD     -2.66700      0.400000           0   0.00000       0.00000    
       103 IM1H     6        IM1H     H1       HDA3A    0.135000       1.00800           0   0.00000       0.00000    
       104 IM1H     6        IM1H     H2       HDA3A    0.135000       1.00800           0   0.00000       0.00000    
       105 IM1H     6        IM1H     H3       HDA3A    0.135000       1.00800           0   0.00000       0.00000    
       106 IM1H     6        IM1H     N1       ND2R5C    2.35720       13.6070           0 -0.803000       1.00000    
       107 IM1H     6        IM1H     DN1      DRUD     -2.19920      0.400000           0   0.00000       0.00000    
       108 IM1H     6        IM1H     C2       CD2R5D    2.44700       11.6110           0  -1.08300       1.10000    
       109 IM1H     6        IM1H     DC2      DRUD     -2.55400      0.400000           0   0.00000       0.00000    
       110 IM1H     6        IM1H     H4       HDR5D    0.195000       1.00800           0   0.00000       0.00000    
       111 IM1H     6        IM1H     C3       CD2R5D    2.50700       11.6110           0  -1.08300       1.10000    
       112 IM1H     6        IM1H     DC3      DRUD     -2.55400      0.400000           0   0.00000       0.00000    
       113 IM1H     6        IM1H     H5       HDR5D    0.192000       1.00800           0   0.00000       0.00000    
       114 IM1H     6        IM1H     C4       CD2R5E    2.72410       11.6110           0  -1.25300       1.20000    
       115 IM1H     6        IM1H     DC4      DRUD     -2.74710      0.400000           0   0.00000       0.00000    
       116 IM1H     6        IM1H     H6       HDR5E    0.203000       1.00800           0   0.00000       0.00000    
       117 IM1H     6        IM1H     N2       ND2R5C    2.04220       13.6070           0 -0.803000       1.00000    
       118 IM1H     6        IM1H     DN2      DRUD     -2.19920      0.400000           0   0.00000       0.00000    
       119 IM1H     6        IM1H     H7       HDP1A    0.363000       1.00800           0   0.00000       0.00000    
       120 IM1H     6        IM1H     LPN21    LPD       0.00000       0.00000          -1   0.00000       0.00000    
       121 IM1H     7        IM1H     C1       CD33F     2.48500       11.6110           0  -1.18100       1.10000    
       122 IM1H     7        IM1H     DC1      DRUD     -2.66700      0.400000           0   0.00000       0.00000    
       123 IM1H     7        IM1H     H1       HDA3A    0.135000       1.00800           0   0.00000       0.00000    
       124 IM1H     7        IM1H     H2       HDA3A    0.135000       1.00800           0   0.00000       0.00000    
       125 IM1H     7        IM1H     H3       HDA3A    0.135000       1.00800           0   0.00000       0.00000    
       126 IM1H     7        IM1H     N1       ND2R5C    2.35720       13.6070           0 -0.803000       1.00000    
       127 IM1H     7        IM1H     DN1      DRUD     -2.19920      0.400000           0   0.00000       0.00000    
       128 IM1H     7        IM1H     C2       CD2R5D    2.44700       11.6110           0  -1.08300       1.10000    
       129 IM1H     7        IM1H     DC2      DRUD     -2.55400      0.400000           0   0.00000       0.00000    
       130 IM1H     7        IM1H     H4       HDR5D    0.195000       1.00800           0   0.00000       0.00000    
       131 IM1H     7        IM1H     C3       CD2R5D    2.50700       11.6110           0  -1.08300       1.10000    
       132 IM1H     7        IM1H     DC3      DRUD     -2.55400      0.400000           0   0.00000       0.00000    
       133 IM1H     7        IM1H     H5       HDR5D    0.192000       1.00800           0   0.00000       0.00000    
       134 IM1H     7        IM1H     C4       CD2R5E    2.72410       11.6110           0  -1.25300       1.20000    
       135 IM1H     7        IM1H     DC4      DRUD     -2.74710      0.400000           0   0.00000       0.00000    
       136 IM1H     7        IM1H     H6       HDR5E    0.203000       1.00800           0   0.00000       0.00000    
       137 IM1H     7        IM1H     N2       ND2R5C    2.04220       13.6070           0 -0.803000       1.00000    
       138 IM1H     7        IM1H     DN2      DRUD     -2.19920      0.400000           0   0.00000       0.00000    
       139 IM1H     7        IM1H     H7       HDP1A    0.363000       1.00800           0   0.00000       0.00000    
       140 IM1H     7        IM1H     LPN21    LPD       0.00000       0.00000          -1   0.00000       0.00000    
       141 IM1H     8        IM1H     C1       CD33F     2.48500       11.6110           0  -1.18100       1.10000    
       142 IM1H     8        IM1H     DC1      DRUD     -2.66700      0.400000           0   0.00000       0.00000    
       143 IM1H     8        IM1H     H1       HDA3A    0.135000       1.00800           0   0.00000       0.00000    
       144 IM1H     8        IM1H     H2       HDA3A    0.135000       1.00800           0   0.00000       0.00000    
       145 IM1H     8        IM1H     H3       HDA3A    0.135000       1.00800           0   0.00000       0.00000    
       146 IM1H     8        IM1H     N1       ND2R5C    2.35720       13.6070           0 -0.803000       1.00000    
       147 IM1H     8        IM1H     DN1      DRUD     -2.19920      0.400000           0   0.00000       0.00000    
       148 IM1H     8        IM1H     C2       CD2R5D    2.44700       11.6110           0  -1.08300       1.10000    
       149 IM1H     8        IM1H     DC2      DRUD     -2.55400      0.400000           0   0.00000       0.00000    
       150 IM1H     8        IM1H     H4       HDR5D    0.195000       1.00800           0   0.00000       0.00000    
       151 IM1H     8        IM1H     C3       CD2R5D    2.50700       11.6110           0  -1.08300       1.10000    
       152 IM1H     8        IM1H     DC3      DRUD     -2.55400      0.400000           0   0.00000       0.00000    
       153 IM1H     8        IM1H     H5       HDR5D    0.192000       1.00800           0   0.00000       0.00000    
       154 IM1H     8        IM1H     C4       CD2R5E    2.72410       11.6110           0  -1.25300       1.20000    
       155 IM1H     8        IM1H     DC4      DRUD     -2.74710      0.400000           0   0.00000       0.00000    
       156 IM1H     8        IM1H     H6       HDR5E    0.203000       1.00800           0   0.00000       0.00000    
       157 IM1H     8        IM1H     N2       ND2R5C    2.04220       13.6070           0 -0.803000       1.00000    
       158 IM1H     8        IM1H     DN2      DRUD     -2.19920      0.400000           0   0.00000       0.00000    
       159 IM1H     8        IM1H     H7       HDP1A    0.363000       1.00800           0   0.00000       0.00000    
       160 IM1H     8        IM1H     LPN21    LPD       0.00000       0.00000          -1   0.00000       0.00000    
       161 IM1H     9        IM1H     C1       CD33F     2.48500       11.6110           0  -1.18100       1.10000    
       162 IM1H     9        IM1H     DC1      DRUD     -2.66700      0.400000           0   0.00000       0.00000    
       163 IM1H     9        IM1H     H1       HDA3A    0.135000       1.00800           0   0.00000       0.00000    
       164 IM1H     9        IM1H     H2       HDA3A    0.135000       1.00800           0   0.00000       0.00000    
       165 IM1H     9        IM1H     H3       HDA3A    0.135000       1.00800           0   0.00000       0.00000    
       166 IM1H     9        IM1H     N1       ND2R5C    2.35720       13.6070           0 -0.803000       1.00000    
       167 IM1H     9        IM1H     DN1      DRUD     -2.19920      0.400000           0   0.00000       0.00000    
       168 IM1H     9        IM1H     C2       CD2R5D    2.44700       11.6110           0  -1.08300       1.10000    
       169 IM1H     9        IM1H     DC2      DRUD     -2.55400      0.400000           0   0.00000       0.00000    
       170 IM1H     9        IM1H     H4       HDR5D    0.195000       1.00800           0   0.00000       0.00000    
       171 IM1H     9        IM1H     C3       CD2R5D    2.50700       11.6110           0  -1.08300       1.10000    
       172 IM1H     9        IM1H     DC3      DRUD     -2.55400      0.400000           0   0.00000       0.00000    
       173 IM1H     9        IM1H     H5       HDR5D    0.192000       1.00800           0   0.00000       0.00000    
       174 IM1H     9        IM1H     C4       CD2R5E    2.72410       11.6110           0  -1.25300       1.20000    
       175 IM1H     9        IM1H     DC4      DRUD     -2.74710      0.400000           0   0.00000       0.00000    
       176 IM1H     9        IM1H     H6       HDR5E    0.203000       1.00800           0   0.00000       0.00000    
       177 IM1H     9        IM1H     N2       ND2R5C    2.04220       13.6070           0 -0.803000       1.00000    
       178 IM1H     9        IM1H     DN2      DRUD     -2.19920      0.400000           0   0.00000       0.00000    
       179 IM1H     9        IM1H     H7       HDP1A    0.363000       1.00800           0   0.00000       0.00000    
       180 IM1H     9        IM1H     LPN21    LPD       0.00000       0.00000          -1   0.00000       0.00000    
       181 IM1H     10       IM1H     C1       CD33F     2.48500       11.6110           0  -1.18100       1.10000    
       182 IM1H     10       IM1H     DC1      DRUD     -2.66700      0.400000           0   0.00000       0.00000    
       183 IM1H     10       IM1H     H1       HDA3A    0.135000       1.00800           0   0.00000       0.00000    
       184 IM1H     10       IM1H     H2       HDA3A    0.135000       1.00800           0   0.00000       0.00000    
       185 IM1H     10       IM1H     H3       HDA3A    0.135000       1.00800           0   0.00000       0.00000    
       186 IM1H     10       IM1H     N1       ND2R5C    2.35720       13.6070           0 -0.803000       1.00000    
       187 IM1H     10       IM1H     DN1      DRUD     -2.19920      0.400000           0   0.00000       0.00000    
       188 IM1H     10       IM1H     C2       CD2R5D    2.44700       11.6110           0  -1.08300       1.10000    
       189 IM1H     10       IM1H     DC2      DRUD     -2.55400      0.400000           0   0.00000       0.00000    
       190 IM1H     10       IM1H     H4       HDR5D    0.195000       1.00800           0   0.00000       0.00000    
       191 IM1H     10       IM1H     C3       CD2R5D    2.50700       11.6110           0  -1.08300       1.10000    
       192 IM1H     10       IM1H     DC3      DRUD     -2.55400      0.400000           0   0.00000       0.00000    
       193 IM1H     10       IM1H     H5       HDR5D    0.192000       1.00800           0   0.00000       0.00000    
       194 IM1H     10       IM1H     C4       CD2R5E    2.72410       11.6110           0  -1.25300       1.20000    
       195 IM1H     10       IM1H     DC4      DRUD     -2.74710      0.400000           0   0.00000       0.00000    
       196 IM1H     10       IM1H     H6       HDR5E    0.203000       1.00800           0   0.00000       0.00000    
       197 IM1H     10       IM1H     N2       ND2R5C    2.04220       13.6070           0 -0.803000       1.00000    
       198 IM1H     10       IM1H     DN2      DRUD     -2.19920      0.400000           0   0.00000       0.00000    
       199 IM1H     10       IM1H     H7       HDP1A    0.363000       1.00800           0   0.00000       0.00000    
       200 IM1H     10       IM1H     LPN21    LPD       0.00000       0.00000          -1   0.00000       0.00000    
       201 IM1H     11       IM1H     C1       CD33F     2.48500       11.6110           0  -1.18100       1.10000    
       202 IM1H     11       IM1H     DC1      DRUD     -2.66700      0.400000           0   0.00000       0.00000    
       203 IM1H     11       IM1H     H1       HDA3A    0.135000       1.00800           0   0.00000       0.00000    
       204 IM1H     11       IM1H     H2       HDA3A    0.135000       1.00800           0   0.00000       0.00000    
       205 IM1H     11       IM1H     H3       HDA3A    0.135000       1.00800           0   0.00000       0.00000    
       206 IM1H     11       IM1H     N1       ND2R5C    2.35720       13.6070           0 -0.803000       1.00000    
       207 IM1H     11       IM1H     DN1      DRUD     -2.19920      0.400000           0   0.00000       0.00000    
       208 IM1H     11       IM1H     C2       CD2R5D    2.44700       11.6110           0  -1.08300       1.10000    
       209 IM1H     11       IM1H     DC2      DRUD     -2.55400      0.400000           0   0.00000       0.00000    
       210 IM1H     11       IM1H     H4       HDR5D    0.195000       1.00800           0   0.00000       0.00000    
       211 IM1H     11       IM1H     C3       CD2R5D    2.50700       11.6110           0  -1.08300       1.10000    
       212 IM1H     11       IM1H     DC3      DRUD     -2.55400      0.400000           0   0.00000       0.00000    
       213 IM1H     11       IM1H     H5       HDR5D    0.192000       1.00800           0   0.00000       0.00000    
       214 IM1H     11       IM1H     C4       CD2R5E    2.72410       11.6110           0  -1.25300       1.20000    
       215 IM1H     11       IM1H     DC4      DRUD     -2.74710      0.400000           0   0.00000       0.00000    
       216 IM1H     11       IM1H     H6       HDR5E    0.203000       1.00800           0   0.00000       0.00000    
       217 IM1H     11       IM1H     N2       ND2R5C    2.04220       13.6070           0 -0.803000       1.00000    
       218 IM1H     11       IM1H     DN2      DRUD     -2.19920      0.400000           0   0.00000       0.00000    
       219 IM1H     11       IM1H     H7       HDP1A    0.363000       1.00800           0   0.00000       0.00000    
       220 IM1H     11       IM1H     LPN21    LPD       0.00000       0.00000          -1   0.00000       0.00000    
       221 IM1H     12       IM1H     C1       CD33F     2.48500       11.6110           0  -1.18100       1.10000    
       222 IM1H     12       IM1H     DC1      DRUD     -2.66700      0.400000           0   0.00000       0.00000    
       223 IM1H     12       IM1H     H1       HDA3A    0.135000       1.00800           0   0.00000       0.00000    
       224 IM1H     12       IM1H     H2       HDA3A    0.135000       1.00800           0   0.00000       0.00000    
       225 IM1H     12       IM1H     H3       HDA3A    0.135000       1.00800           0   0.00000       0.00000    
       226 IM1H     12       IM1H     N1       ND2R5C    2.35720       13.6070           0 -0.803000       1.00000    
       227 IM1H     12       IM1H     DN1      DRUD     -2.19920      0.400000           0   0.00000       0.00000    
       228 IM1H     12       IM1H     C2       CD2R5D    2.44700       11.6110           0  -1.08300       1.10000    
       229 IM1H     12       IM1H     DC2      DRUD     -2.55400      0.400000           0   0.00000       0.00000    
       230 IM1H     12       IM1H     H4       HDR5D    0.195000       1.00800           0   0.00000       0.00000    
       231 IM1H     12       IM1H     C3       CD2R5D    2.50700       11.6110           0  -1.08300       1.10000    
       232 IM1H     12       IM1H     DC3      DRUD     -2.55400      0.400000           0   0.00000       0.00000    
       233 IM1H     12       IM1H     H5       HDR5D    0.192000       1.00800           0   0.00000       0.00000    
       234 IM1H     12       IM1H     C4       CD2R5E    2.72410       11.6110           0  -1.25300       1.20000    
       235 IM1H     12       IM1H     DC4      DRUD     -2.74710      0.400000           0   0.00000       0.00000    
       236 IM1H     12       IM1H     H6       HDR5E    0.203000       1.00800           0   0.00000       0.00000    
       237 IM1H     12       IM1H     N2       ND2R5C    2.04220       13.6070           0 -0.803000       1.00000    
       238 IM1H     12       IM1H     DN2      DRUD     -2.19920      0.400000           0   0.00000       0.00000    
       239 IM1H     12       IM1H     H7       HDP1A    0.363000       1.00800           0   0.00000       0.00000    
       240 IM1H     12       IM1H     LPN21    LPD       0.00000       0.00000          -1   0.00000       0.00000    
       241 IM1H     13       IM1H     C1       CD33F     2.48500       11.6110           0  -1.18100       1.10000    
       242 IM1H     13       IM1H     DC1      DRUD     -2.66700      0.400000           0   0.00000       0.00000    
       243 IM1H     13       IM1H     H1       HDA3A    0.135000       1.00800           0   0.00000       0.00000    
       244 IM1H     13       IM1H     H2       HDA3A    0.135000       1.00800           0   0.00000       0.00000    
       245 IM1H     13       IM1H     H3       HDA3A    0.135000       1.00800           0   0.00000       0.00000    
       246 IM1H     13       IM1H     N1       ND2R5C    2.35720       13.6070           0 -0.803000       1.00000    
       247 IM1H     13       IM1H     DN1      DRUD     -2.19920      0.400000           0   0.00000       0.00000    
       248 IM1H     13       IM1H     C2       CD2R5D    2.44700       11.6110           0  -1.08300       1.10000    
       249 IM1H     13       IM1H     DC2      DRUD     -2.55400      0.400000           0   0.00000       0.00000    
       250 IM1H     13       IM1H     H4       HDR5D    0.195000       1.00800           0   0.00000       0.00000    
       251 IM1H     13       IM1H     C3       CD2R5D    2.50700       11.6110           0  -1.08300       1.10000    
       252 IM1H     13       IM1H     DC3      DRUD     -2.55400      0.400000           0   0.00000       0.00000    
       253 IM1H     13       IM1H     H5       HDR5D    0.192000       1.00800           0   0.00000       0.00000    
       254 IM1H     13       IM1H     C4       CD2R5E    2.72410       11.6110           0  -1.25300       1.20000    
       255 IM1H     13       IM1H     DC4      DRUD     -2.74710      0.400000           0   0.00000       0.00000    
       256 IM1H     13       IM1H     H6       HDR5E    0.203000       1.00800           0   0.00000       0.00000    
       257 IM1H     13       IM1H     N2       ND2R5C    2.04220       13.6070           0 -0.803000       1.00000    
       258 IM1H     13       IM1H     DN2      DRUD     -2.19920      0.400000           0   0.00000       0.00000    
       259 IM1H     13       IM1H     H7       HDP1A    0.363000       1.00800           0   0.00000       0.00000    
       260 IM1H     13       IM1H     LPN21    LPD       0.00000       0.00000          -1   0.00000       0.00000    
       261 IM1H     14       IM1H     C1       CD33F     2.48500       11.6110           0  -1.18100       1.10000    
       262 IM1H     14       IM1H     DC1      DRUD     -2.66700      0.400000           0   0.00000       0.00000    
       263 IM1H     14       IM1H     H1       HDA3A    0.135000       1.00800           0   0.00000       0.00000    
       264 IM1H     14       IM1H     H2       HDA3A    0.135000       1.00800           0   0.00000       0.00000    
       265 IM1H     14       IM1H     H3       HDA3A    0.135000       1.00800           0   0.00000       0.00000    
       266 IM1H     14       IM1H     N1       ND2R5C    2.35720       13.6070           0 -0.803000       1.00000    
       267 IM1H     14       IM1H     DN1      DRUD     -2.19920      0.400000           0   0.00000       0.00000    
       268 IM1H     14       IM1H     C2       CD2R5D    2.44700       11.6110           0  -1.08300       1.10000    
       269 IM1H     14       IM1H     DC2      DRUD     -2.55400      0.400000           0   0.00000       0.00000    
       270 IM1H     14       IM1H     H4       HDR5D    0.195000       1.00800           0   0.00000       0.00000    
       271 IM1H     14       IM1H     C3       CD2R5D    2.50700       11.6110           0  -1.08300       1.10000    
       272 IM1H     14       IM1H     DC3      DRUD     -2.55400      0.400000           0   0.00000       0.00000    
       273 IM1H     14       IM1H     H5       HDR5D    0.192000       1.00800           0   0.00000       0.00000    
       274 IM1H     14       IM1H     C4       CD2R5E    2.72410       11.6110           0  -1.25300       1.20000    
       275 IM1H     14       IM1H     DC4      DRUD     -2.74710      0.400000           0   0.00000       0.00000    
       276 IM1H     14       IM1H     H6       HDR5E    0.203000       1.00800           0   0.00000       0.00000    
       277 IM1H     14       IM1H     N2       ND2R5C    2.04220       13.6070           0 -0.803000       1.00000    
       278 IM1H     14       IM1H     DN2      DRUD     -2.19920      0.400000           0   0.00000       0.00000    
       279 IM1H     14       IM1H     H7       HDP1A    0.363000       1.00800           0   0.00000       0.00000    
       280 IM1H     14       IM1H     LPN21    LPD       0.00000       0.00000          -1   0.00000       0.00000    
       281 IM1H     15       IM1H     C1       CD33F     2.48500       11.6110           0  -1.18100       1.10000    
       282 IM1H     15       IM1H     DC1      DRUD     -2.66700      0.400000           0   0.00000       0.00000    
       283 IM1H     15       IM1H     H1       HDA3A    0.135000       1.00800           0   0.00000       0.00000    
       284 IM1H     15       IM1H     H2       HDA3A    0.135000       1.00800           0   0.00000       0.00000    
       285 IM1H     15       IM1H     H3       HDA3A    0.135000       1.00800           0   0.00000       0.00000    
       286 IM1H     15       IM1H     N1       ND2R5C    2.35720       13.6070           0 -0.803000       1.00000    
       287 IM1H     15       IM1H     DN1      DRUD     -2.19920      0.400000           0   0.00000       0.00000    
       288 IM1H     15       IM1H     C2       CD2R5D    2.44700       11.6110           0  -1.08300       1.10000    
       289 IM1H     15       IM1H     DC2      DRUD     -2.55400      0.400000           0   0.00000       0.00000    
       290 IM1H     15       IM1H     H4       HDR5D    0.195000       1.00800           0   0.00000       0.00000    
       291 IM1H     15       IM1H     C3       CD2R5D    2.50700       11.6110           0  -1.08300       1.10000    
       292 IM1H     15       IM1H     DC3      DRUD     -2.55400      0.400000           0   0.00000       0.00000    
       293 IM1H     15       IM1H     H5       HDR5D    0.192000       1.00800           0   0.00000       0.00000    
       294 IM1H     15       IM1H     C4       CD2R5E    2.72410       11.6110           0  -1.25300       1.20000    
       295 IM1H     15       IM1H     DC4      DRUD     -2.74710      0.400000           0   0.00000       0.00000    
       296 IM1H     15       IM1H     H6       HDR5E    0.203000       1.00800           0   0.00000       0.00000    
       297 IM1H     15       IM1H     N2       ND2R5C    2.04220       13.6070           0 -0.803000       1.00000    
       298 IM1H     15       IM1H     DN2      DRUD     -2.19920      0.400000           0   0.00000       0.00000    
       299 IM1H     15       IM1H     H7       HDP1A    0.363000       1.00800           0   0.00000       0.00000    
       300 IM1H     15       IM1H     LPN21    LPD       0.00000       0.00000          -1   0.00000       0.00000    
       301 IM1H     16       IM1H     C1       CD33F     2.48500       11.6110           0  -1.18100       1.10000    
       302 IM1H     16       IM1H     DC1      DRUD     -2.66700      0.400000           0   0.00000       0.00000    
       303 IM1H     16       IM1H     H1       HDA3A    0.135000       1.00800           0   0.00000       0.00000    
       304 IM1H     16       IM1H     H2       HDA3A    0.135000       1.00800           0   0.00000       0.00000    
       305 IM1H     16       IM1H     H3       HDA3A    0.135000       1.00800           0   0.00000       0.00000    
       306 IM1H     16       IM1H     N1       ND2R5C    2.35720       13.6070           0 -0.803000       1.00000    
       307 IM1H     16       IM1H     DN1      DRUD     -2.19920      0.400000           0   0.00000       0.00000    
       308 IM1H     16       IM1H     C2       CD2R5D    2.44700       11.6110           0  -1.08300       1.10000    
       309 IM1H     16       IM1H     DC2      DRUD     -2.55400      0.400000           0   0.00000       0.00000    
       310 IM1H     16       IM1H     H4       HDR5D    0.195000       1.00800           0   0.00000       0.00000    
       311 IM1H     16       IM1H     C3       CD2R5D    2.50700       11.6110           0  -1.08300       1.10000    
       312 IM1H     16       IM1H     DC3      DRUD     -2.55400      0.400000           0   0.00000       0.00000    
       313 IM1H     16       IM1H     H5       HDR5D    0.192000       1.00800           0   0.00000       0.00000    
       314 IM1H     16       IM1H     C4       CD2R5E    2.72410       11.6110           0  -1.25300       1.20000    
       315 IM1H     16       IM1H     DC4      DRUD     -2.74710      0.400000           0   0.00000       0.00000    
       316 IM1H     16       IM1H     H6       HDR5E    0.203000       1.00800           0   0.00000       0.00000    
       317 IM1H     16       IM1H     N2       ND2R5C    2.04220       13.6070           0 -0.803000       1.00000    
       318 IM1H     16       IM1H     DN2      DRUD     -2.19920      0.400000           0   0.00000       0.00000    
       319 IM1H     16       IM1H     H7       HDP1A    0.363000       1.00800           0   0.00000       0.00000    
       320 IM1H     16       IM1H     LPN21    LPD       0.00000       0.00000          -1   0.00000       0.00000    
       321 IM1H     17       IM1H     C1       CD33F     2.48500       11.6110           0  -1.18100       1.10000    
       322 IM1H     17       IM1H     DC1      DRUD     -2.66700      0.400000           0   0.00000       0.00000    
       323 IM1H     17       IM1H     H1       HDA3A    0.135000       1.00800           0   0.00000       0.00000    
       324 IM1H     17       IM1H     H2       HDA3A    0.135000       1.00800           0   0.00000       0.00000    
       325 IM1H     17       IM1H     H3       HDA3A    0.135000       1.00800           0   0.00000       0.00000    
       326 IM1H     17       IM1H     N1       ND2R5C    2.35720       13.6070           0 -0.803000       1.00000    
       327 IM1H     17       IM1H     DN1      DRUD     -2.19920      0.400000           0   0.00000       0.00000    
       328 IM1H     17       IM1H     C2       CD2R5D    2.44700       11.6110           0  -1.08300       1.10000    
       329 IM1H     17       IM1H     DC2      DRUD     -2.55400      0.400000           0   0.00000       0.00000    
       330 IM1H     17       IM1H     H4       HDR5D    0.195000       1.00800           0   0.00000       0.00000    
       331 IM1H     17       IM1H     C3       CD2R5D    2.50700       11.6110           0  -1.08300       1.10000    
       332 IM1H     17       IM1H     DC3      DRUD     -2.55400      0.400000           0   0.00000       0.00000    
       333 IM1H     17       IM1H     H5       HDR5D    0.192000       1.00800           0   0.00000       0.00000    
       334 IM1H     17       IM1H     C4       CD2R5E    2.72410       11.6110           0  -1.25300       1.20000    
       335 IM1H     17       IM1H     DC4      DRUD     -2.74710      0.400000           0   0.00000       0.00000    
       336 IM1H     17       IM1H     H6       HDR5E    0.203000       1.00800           0   0.00000       0.00000    
       337 IM1H     17       IM1H     N2       ND2R5C    2.04220       13.6070           0 -0.803000       1.00000    
       338 IM1H     17       IM1H     DN2      DRUD     -2.19920      0.400000           0   0.00000       0.00000    
       339 IM1H     17       IM1H     H7       HDP1A    0.363000       1.00800           0   0.00000       0.00000    
       340 IM1H     17       IM1H     LPN21    LPD       0.00000       0.00000          -1   0.00000       0.00000    
       341 IM1H     18       IM1H     C1       CD33F     2.48500       11.6110           0  -1.18100       1.10000    
       342 IM1H     18       IM1H     DC1      DRUD     -2.66700      0.400000           0   0.00000       0.00000    
       343 IM1H     18       IM1H     H1       HDA3A    0.135000       1.00800           0   0.00000       0.00000    
       344 IM1H     18       IM1H     H2       HDA3A    0.135000       1.00800           0   0.00000       0.00000    
       345 IM1H     18       IM1H     H3       HDA3A    0.135000       1.00800           0   0.00000       0.00000    
       346 IM1H     18       IM1H     N1       ND2R5C    2.35720       13.6070           0 -0.803000       1.00000    
       347 IM1H     18       IM1H     DN1      DRUD     -2.19920      0.400000           0   0.00000       0.00000    
       348 IM1H     18       IM1H     C2       CD2R5D    2.44700       11.6110           0  -1.08300       1.10000    
       349 IM1H     18       IM1H     DC2      DRUD     -2.55400      0.400000           0   0.00000       0.00000    
       350 IM1H     18       IM1H     H4       HDR5D    0.195000       1.00800           0   0.00000       0.00000    
       351 IM1H     18       IM1H     C3       CD2R5D    2.50700       11.6110           0  -1.08300       1.10000    
       352 IM1H     18       IM1H     DC3      DRUD     -2.55400      0.400000           0   0.00000       0.00000    
       353 IM1H     18       IM1H     H5       HDR5D    0.192000       1.00800           0   0.00000       0.00000    
       354 IM1H     18       IM1H     C4       CD2R5E    2.72410       11.6110           0  -1.25300       1.20000    
       355 IM1H     18       IM1H     DC4      DRUD     -2.74710      0.400000           0   0.00000       0.00000    
       356 IM1H     18       IM1H     H6       HDR5E    0.203000       1.00800           0   0.00000       0.00000    
       357 IM1H     18       IM1H     N2       ND2R5C    2.04220       13.6070           0 -0.803000       1.00000    
       358 IM1H     18       IM1H     DN2      DRUD     -2.19920      0.400000           0   0.00000       0.00000    
       359 IM1H     18       IM1H     H7       HDP1A    0.363000       1.00800           0   0.00000       0.00000    
       360 IM1H     18       IM1H     LPN21    LPD       0.00000       0.00000          -1   0.00000       0.00000    
       361 IM1H     19       IM1H     C1       CD33F     2.48500       11.6110           0  -1.18100       1.10000    
       362 IM1H     19       IM1H     DC1      DRUD     -2.66700      0.400000           0   0.00000       0.00000    
       363 IM1H     19       IM1H     H1       HDA3A    0.135000       1.00800           0   0.00000       0.00000    
       364 IM1H     19       IM1H     H2       HDA3A    0.135000       1.00800           0   0.00000       0.00000    
       365 IM1H     19       IM1H     H3       HDA3A    0.135000       1.00800           0   0.00000       0.00000    
       366 IM1H     19       IM1H     N1       ND2R5C    2.35720       13.6070           0 -0.803000       1.00000    
       367 IM1H     19       IM1H     DN1      DRUD     -2.19920      0.400000           0   0.00000       0.00000    
       368 IM1H     19       IM1H     C2       CD2R5D    2.44700       11.6110           0  -1.08300       1.10000    
       369 IM1H     19       IM1H     DC2      DRUD     -2.55400      0.400000           0   0.00000       0.00000    
       370 IM1H     19       IM1H     H4       HDR5D    0.195000       1.00800           0   0.00000       0.00000    
       371 IM1H     19       IM1H     C3       CD2R5D    2.50700       11.6110           0  -1.08300       1.10000    
       372 IM1H     19       IM1H     DC3      DRUD     -2.55400      0.400000           0   0.00000       0.00000    
       373 IM1H     19       IM1H     H5       HDR5D    0.192000       1.00800           0   0.00000       0.00000    
       374 IM1H     19       IM1H     C4       CD2R5E    2.72410       11.6110           0  -1.25300       1.20000    
       375 IM1H     19       IM1H     DC4      DRUD     -2.74710      0.400000           0   0.00000       0.00000    
       376 IM1H     19       IM1H     H6       HDR5E    0.203000       1.00800           0   0.00000       0.00000    
       377 IM1H     19       IM1H     N2       ND2R5C    2.04220       13.6070           0 -0.803000       1.00000    
       378 IM1H     19       IM1H     DN2      DRUD     -2.19920      0.400000           0   0.00000       0.00000    
       379 IM1H     19       IM1H     H7       HDP1A    0.363000       1.00800           0   0.00000       0.00000    
       380 IM1H     19       IM1H     LPN21    LPD       0.00000       0.00000          -1   0.00000       0.00000    
       381 IM1H     20       IM1H     C1       CD33F     2.48500       11.6110           0  -1.18100       1.10000    
       382 IM1H     20       IM1H     DC1      DRUD     -2.66700      0.400000           0   0.00000       0.00000    
       383 IM1H     20       IM1H     H1       HDA3A    0.135000       1.00800           0   0.00000       0.00000    
       384 IM1H     20       IM1H     H2       HDA3A    0.135000       1.00800           0   0.00000       0.00000    
       385 IM1H     20       IM1H     H3       HDA3A    0.135000       1.00800           0   0.00000       0.00000    
       386 IM1H     20       IM1H     N1       ND2R5C    2.35720       13.6070           0 -0.803000       1.00000    
       387 IM1H     20       IM1H     DN1      DRUD     -2.19920      0.400000           0   0.00000       0.00000    
       388 IM1H     20       IM1H     C2       CD2R5D    2.44700       11.6110           0  -1.08300       1.10000    
       389 IM1H     20       IM1H     DC2      DRUD     -2.55400      0.400000           0   0.00000       0.00000    
       390 IM1H     20       IM1H     H4       HDR5D    0.195000       1.00800           0   0.00000       0.00000    
       391 IM1H     20       IM1H     C3       CD2R5D    2.50700       11.6110           0  -1.08300       1.10000    
       392 IM1H     20       IM1H     DC3      DRUD     -2.55400      0.400000           0   0.00000       0.00000    
       393 IM1H     20       IM1H     H5       HDR5D    0.192000       1.00800           0   0.00000       0.00000    
       394 IM1H     20       IM1H     C4       CD2R5E    2.72410       11.6110           0  -1.25300       1.20000    
       395 IM1H     20       IM1H     DC4      DRUD     -2.74710      0.400000           0   0.00000       0.00000    
       396 IM1H     20       IM1H     H6       HDR5E    0.203000       1.00800           0   0.00000       0.00000    
       397 IM1H     20       IM1H     N2       ND2R5C    2.04220       13.6070           0 -0.803000       1.00000    
       398 IM1H     20       IM1H     DN2      DRUD     -2.19920      0.400000           0   0.00000       0.00000    
       399 IM1H     20       IM1H     H7       HDP1A    0.363000       1.00800           0   0.00000       0.00000    
       400 IM1H     20       IM1H     LPN21    LPD       0.00000       0.00000          -1   0.00000       0.00000    
       401 IM1H     21       IM1H     C1       CD33F     2.48500       11.6110           0  -1.18100       1.10000    
       402 IM1H     21       IM1H     DC1      DRUD     -2.66700      0.400000           0   0.00000       0.00000    
       403 IM1H     21       IM1H     H1       HDA3A    0.135000       1.00800           0   0.00000       0.00000    
       404 IM1H     21       IM1H     H2       HDA3A    0.135000       1.00800           0   0.00000       0.00000    
       405 IM1H     21       IM1H     H3       HDA3A    0.135000       1.00800           0   0.00000       0.00000    
       406 IM1H     21       IM1H     N1       ND2R5C    2.35720       13.6070           0 -0.803000       1.00000    
       407 IM1H     21       IM1H     DN1      DRUD     -2.19920      0.400000           0   0.00000       0.00000    
       408 IM1H     21       IM1H     C2       CD2R5D    2.44700       11.6110           0  -1.08300       1.10000    
       409 IM1H     21       IM1H     DC2      DRUD     -2.55400      0.400000           0   0.00000       0.00000    
       410 IM1H     21       IM1H     H4       HDR5D    0.195000       1.00800           0   0.00000       0.00000    
       411 IM1H     21       IM1H     C3       CD2R5D    2.50700       11.6110           0  -1.08300       1.10000    
       412 IM1H     21       IM1H     DC3      DRUD     -2.55400      0.400000           0   0.00000       0.00000    
       413 IM1H     21       IM1H     H5       HDR5D    0.192000       1.00800           0   0.00000       0.00000    
       414 IM1H     21       IM1H     C4       CD2R5E    2.72410       11.6110           0  -1.25300       1.20000    
       415 IM1H     21       IM1H     DC4      DRUD     -2.74710      0.400000           0   0.00000       0.00000    
       416 IM1H     21       IM1H     H6       HDR5E    0.203000       1.00800           0   0.00000       0.00000    
       417 IM1H     21       IM1H     N2       ND2R5C    2.04220       13.6070           0 -0.803000       1.00000    
       418 IM1H     21       IM1H     DN2      DRUD     -2.19920      0.400000           0   0.00000       0.00000    
       419 IM1H     21       IM1H     H7       HDP1A    0.363000       1.00800           0   0.00000       0.00000    
       420 IM1H     21       IM1H     LPN21    LPD       0.00000       0.00000          -1   0.00000       0.00000    
       421 IM1H     22       IM1H     C1       CD33F     2.48500       11.6110           0  -1.18100       1.10000    
       422 IM1H     22       IM1H     DC1      DRUD     -2.66700      0.400000           0   0.00000       0.00000    
       423 IM1H     22       IM1H     H1       HDA3A    0.135000       1.00800           0   0.00000       0.00000    
       424 IM1H     22       IM1H     H2       HDA3A    0.135000       1.00800           0   0.00000       0.00000    
       425 IM1H     22       IM1H     H3       HDA3A    0.135000       1.00800           0   0.00000       0.00000    
       426 IM1H     22       IM1H     N1       ND2R5C    2.35720       13.6070           0 -0.803000       1.00000    
       427 IM1H     22       IM1H     DN1      DRUD     -2.19920      0.400000           0   0.00000       0.00000    
       428 IM1H     22       IM1H     C2       CD2R5D    2.44700       11.6110           0  -1.08300       1.10000    
       429 IM1H     22       IM1H     DC2      DRUD     -2.55400      0.400000           0   0.00000       0.00000    
       430 IM1H     22       IM1H     H4       HDR5D    0.195000       1.00800           0   0.00000       0.00000    
       431 IM1H     22       IM1H     C3       CD2R5D    2.50700       11.6110           0  -1.08300       1.10000    
       432 IM1H     22       IM1H     DC3      DRUD     -2.55400      0.400000           0   0.00000       0.00000    
       433 IM1H     22       IM1H     H5       HDR5D    0.192000       1.00800           0   0.00000       0.00000    
       434 IM1H     22       IM1H     C4       CD2R5E    2.72410       11.6110           0  -1.25300       1.20000    
       435 IM1H     22       IM1H     DC4      DRUD     -2.74710      0.400000           0   0.00000       0.00000    
       436 IM1H     22       IM1H     H6       HDR5E    0.203000       1.00800           0   0.00000       0.00000    
       437 IM1H     22       IM1H     N2       ND2R5C    2.04220       13.6070           0 -0.803000       1.00000    
       438 IM1H     22       IM1H     DN2      DRUD     -2.19920      0.400000           0   0.00000       0.00000    
       439 IM1H     22       IM1H     H7       HDP1A    0.363000       1.00800           0   0.00000       0.00000    
       440 IM1H     22       IM1H     LPN21    LPD       0.00000       0.00000          -1   0.00000       0.00000    
       441 IM1H     23       IM1H     C1       CD33F     2.48500       11.6110           0  -1.18100       1.10000    
       442 IM1H     23       IM1H     DC1      DRUD     -2.66700      0.400000           0   0.00000       0.00000    
       443 IM1H     23       IM1H     H1       HDA3A    0.135000       1.00800           0   0.00000       0.00000    
       444 IM1H     23       IM1H     H2       HDA3A    0.135000       1.00800           0   0.00000       0.00000    
       445 IM1H     23       IM1H     H3       HDA3A    0.135000       1.00800           0   0.00000       0.00000    
       446 IM1H     23       IM1H     N1       ND2R5C    2.35720       13.6070           0 -0.803000       1.00000    
       447 IM1H     23       IM1H     DN1      DRUD     -2.19920      0.400000           0   0.00000       0.00000    
       448 IM1H     23       IM1H     C2       CD2R5D    2.44700       11.6110           0  -1.08300       1.10000    
       449 IM1H     23       IM1H     DC2      DRUD     -2.55400      0.400000           0   0.00000       0.00000    
       450 IM1H     23       IM1H     H4       HDR5D    0.195000       1.00800           0   0.00000       0.00000    
       451 IM1H     23       IM1H     C3       CD2R5D    2.50700       11.6110           0  -1.08300       1.10000    
       452 IM1H     23       IM1H     DC3      DRUD     -2.55400      0.400000           0   0.00000       0.00000    
       453 IM1H     23       IM1H     H5       HDR5D    0.192000       1.00800           0   0.00000       0.00000    
       454 IM1H     23       IM1H     C4       CD2R5E    2.72410       11.6110           0  -1.25300       1.20000    
       455 IM1H     23       IM1H     DC4      DRUD     -2.74710      0.400000           0   0.00000       0.00000    
       456 IM1H     23       IM1H     H6       HDR5E    0.203000       1.00800           0   0.00000       0.00000    
       457 IM1H     23       IM1H     N2       ND2R5C    2.04220       13.6070           0 -0.803000       1.00000    
       458 IM1H     23       IM1H     DN2      DRUD     -2.19920      0.400000           0   0.00000       0.00000    
       459 IM1H     23       IM1H     H7       HDP1A    0.363000       1.00800           0   0.00000       0.00000    
       460 IM1H     23       IM1H     LPN21    LPD       0.00000       0.00000          -1   0.00000       0.00000    
       461 IM1H     24       IM1H     C1       CD33F     2.48500       11.6110           0  -1.18100       1.10000    
       462 IM1H     24       IM1H     DC1      DRUD     -2.66700      0.400000           0   0.00000       0.00000    
       463 IM1H     24       IM1H     H1       HDA3A    0.135000       1.00800           0   0.00000       0.00000    
       464 IM1H     24       IM1H     H2       HDA3A    0.135000       1.00800           0   0.00000       0.00000    
       465 IM1H     24       IM1H     H3       HDA3A    0.135000       1.00800           0   0.00000       0.00000    
       466 IM1H     24       IM1H     N1       ND2R5C    2.35720       13.6070           0 -0.803000       1.00000    
       467 IM1H     24       IM1H     DN1      DRUD     -2.19920      0.400000           0   0.00000       0.00000    
       468 IM1H     24       IM1H     C2       CD2R5D    2.44700       11.6110           0  -1.08300       1.10000    
       469 IM1H     24       IM1H     DC2      DRUD     -2.55400      0.400000           0   0.00000       0.00000    
       470 IM1H     24       IM1H     H4       HDR5D    0.195000       1.00800           0   0.00000       0.00000    
       471 IM1H     24       IM1H     C3       CD2R5D    2.50700       11.6110           0  -1.08300       1.10000    
       472 IM1H     24       IM1H     DC3      DRUD     -2.55400      0.400000           0   0.00000       0.00000    
       473 IM1H     24       IM1H     H5       HDR5D    0.192000       1.00800           0   0.00000       0.00000    
       474 IM1H     24       IM1H     C4       CD2R5E    2.72410       11.6110           0  -1.25300       1.20000    
       475 IM1H     24       IM1H     DC4      DRUD     -2.74710      0.400000           0   0.00000       0.00000    
       476 IM1H     24       IM1H     H6       HDR5E    0.203000       1.00800           0   0.00000       0.00000    
       477 IM1H     24       IM1H     N2       ND2R5C    2.04220       13.6070           0 -0.803000       1.00000    
       478 IM1H     24       IM1H     DN2      DRUD     -2.19920      0.400000           0   0.00000       0.00000    
       479 IM1H     24       IM1H     H7       HDP1A    0.363000       1.00800           0   0.00000       0.00000    
       480 IM1H     24       IM1H     LPN21    LPD       0.00000       0.00000          -1   0.00000       0.00000    
       481 IM1H     25       IM1H     C1       CD33F     2.48500       11.6110           0  -1.18100       1.10000    
       482 IM1H     25       IM1H     DC1      DRUD     -2.66700      0.400000           0   0.00000       0.00000    
       483 IM1H     25       IM1H     H1       HDA3A    0.135000       1.00800           0   0.00000       0.00000    
       484 IM1H     25       IM1H     H2       HDA3A    0.135000       1.00800           0   0.00000       0.00000    
       485 IM1H     25       IM1H     H3       HDA3A    0.135000       1.00800           0   0.00000       0.00000    
       486 IM1H     25       IM1H     N1       ND2R5C    2.35720       13.6070           0 -0.803000       1.00000    
       487 IM1H     25       IM1H     DN1      DRUD     -2.19920      0.400000           0   0.00000       0.00000    
       488 IM1H     25       IM1H     C2       CD2R5D    2.44700       11.6110           0  -1.08300       1.10000    
       489 IM1H     25       IM1H     DC2      DRUD     -2.55400      0.400000           0   0.00000       0.00000    
       490 IM1H     25       IM1H     H4       HDR5D    0.195000       1.00800           0   0.00000       0.00000    
       491 IM1H     25       IM1H     C3       CD2R5D    2.50700       11.6110           0  -1.08300       1.10000    
       492 IM1H     25       IM1H     DC3      DRUD     -2.55400      0.400000           0   0.00000       0.00000    
       493 IM1H     25       IM1H     H5       HDR5D    0.192000       1.00800           0   0.00000       0.00000    
       494 IM1H     25       IM1H     C4       CD2R5E    2.72410       11.6110           0  -1.25300       1.20000    
       495 IM1H     25       IM1H     DC4      DRUD     -2.74710      0.400000           0   0.00000       0.00000    
       496 IM1H     25       IM1H     H6       HDR5E    0.203000       1.00800           0   0.00000       0.00000    
       497 IM1H     25       IM1H     N2       ND2R5C    2.04220       13.6070           0 -0.803000       1.00000    
       498 IM1H     25       IM1H     DN2      DRUD     -2.19920      0.400000           0   0.00000       0.00000    
       499 IM1H     25       IM1H     H7       HDP1A    0.363000       1.00800           0   0.00000       0.00000    
       500 IM1H     25       IM1H     LPN21    LPD       0.00000       0.00000          -1   0.00000       0.00000    
       501 IM1H     26       IM1H     C1       CD33F     2.48500       11.6110           0  -1.18100       1.10000    
       502 IM1H     26       IM1H     DC1      DRUD     -2.66700      0.400000           0   0.00000       0.00000    
       503 IM1H     26       IM1H     H1       HDA3A    0.135000       1.00800           0   0.00000       0.00000    
       504 IM1H     26       IM1H     H2       HDA3A    0.135000       1.00800           0   0.00000       0.00000    
       505 IM1H     26       IM1H     H3       HDA3A    0.135000       1.00800           0   0.00000       0.00000    
       506 IM1H     26       IM1H     N1       ND2R5C    2.35720       13.6070           0 -0.803000       1.00000    
       507 IM1H     26       IM1H     DN1      DRUD     -2.19920      0.400000           0   0.00000       0.00000    
       508 IM1H     26       IM1H     C2       CD2R5D    2.44700       11.6110           0  -1.08300       1.10000    
       509 IM1H     26       IM1H     DC2      DRUD     -2.55400      0.400000           0   0.00000       0.00000    
       510 IM1H     26       IM1H     H4       HDR5D    0.195000       1.00800           0   0.00000       0.00000    
       511 IM1H     26       IM1H     C3       CD2R5D    2.50700       11.6110           0  -1.08300       1.10000    
       512 IM1H     26       IM1H     DC3      DRUD     -2.55400      0.400000           0   0.00000       0.00000    
       513 IM1H     26       IM1H     H5       HDR5D    0.192000       1.00800           0   0.00000       0.00000    
       514 IM1H     26       IM1H     C4       CD2R5E    2.72410       11.6110           0  -1.25300       1.20000    
       515 IM1H     26       IM1H     DC4      DRUD     -2.74710      0.400000           0   0.00000       0.00000    
       516 IM1H     26       IM1H     H6       HDR5E    0.203000       1.00800           0   0.00000       0.00000    
       517 IM1H     26       IM1H     N2       ND2R5C    2.04220       13.6070           0 -0.803000       1.00000    
       518 IM1H     26       IM1H     DN2      DRUD     -2.19920      0.400000           0   0.00000       0.00000    
       519 IM1H     26       IM1H     H7       HDP1A    0.363000       1.00800           0   0.00000       0.00000    
       520 IM1H     26       IM1H     LPN21    LPD       0.00000       0.00000          -1   0.00000       0.00000    
       521 IM1H     27       IM1H     C1       CD33F     2.48500       11.6110           0  -1.18100       1.10000    
       522 IM1H     27       IM1H     DC1      DRUD     -2.66700      0.400000           0   0.00000       0.00000    
       523 IM1H     27       IM1H     H1       HDA3A    0.135000       1.00800           0   0.00000       0.00000    
       524 IM1H     27       IM1H     H2       HDA3A    0.135000       1.00800           0   0.00000       0.00000    
       525 IM1H     27       IM1H     H3       HDA3A    0.135000       1.00800           0   0.00000       0.00000    
       526 IM1H     27       IM1H     N1       ND2R5C    2.35720       13.6070           0 -0.803000       1.00000    
       527 IM1H     27       IM1H     DN1      DRUD     -2.19920      0.400000           0   0.00000       0.00000    
       528 IM1H     27       IM1H     C2       CD2R5D    2.44700       11.6110           0  -1.08300       1.10000    
       529 IM1H     27       IM1H     DC2      DRUD     -2.55400      0.400000           0   0.00000       0.00000    
       530 IM1H     27       IM1H     H4       HDR5D    0.195000       1.00800           0   0.00000       0.00000    
       531 IM1H     27       IM1H     C3       CD2R5D    2.50700       11.6110           0  -1.08300       1.10000    
       532 IM1H     27       IM1H     DC3      DRUD     -2.55400      0.400000           0   0.00000       0.00000    
       533 IM1H     27       IM1H     H5       HDR5D    0.192000       1.00800           0   0.00000       0.00000    
       534 IM1H     27       IM1H     C4       CD2R5E    2.72410       11.6110           0  -1.25300       1.20000    
       535 IM1H     27       IM1H     DC4      DRUD     -2.74710      0.400000           0   0.00000       0.00000    
       536 IM1H     27       IM1H     H6       HDR5E    0.203000       1.00800           0   0.00000       0.00000    
       537 IM1H     27       IM1H     N2       ND2R5C    2.04220       13.6070           0 -0.803000       1.00000    
       538 IM1H     27       IM1H     DN2      DRUD     -2.19920      0.400000           0   0.00000       0.00000    
       539 IM1H     27       IM1H     H7       HDP1A    0.363000       1.00800           0   0.00000       0.00000    
       540 IM1H     27       IM1H     LPN21    LPD       0.00000       0.00000          -1   0.00000       0.00000    
       541 IM1H     28       IM1H     C1       CD33F     2.48500       11.6110           0  -1.18100       1.10000    
       542 IM1H     28       IM1H     DC1      DRUD     -2.66700      0.400000           0   0.00000       0.00000    
       543 IM1H     28       IM1H     H1       HDA3A    0.135000       1.00800           0   0.00000       0.00000    
       544 IM1H     28       IM1H     H2       HDA3A    0.135000       1.00800           0   0.00000       0.00000    
       545 IM1H     28       IM1H     H3       HDA3A    0.135000       1.00800           0   0.00000       0.00000    
       546 IM1H     28       IM1H     N1       ND2R5C    2.35720       13.6070           0 -0.803000       1.00000    
       547 IM1H     28       IM1H     DN1      DRUD     -2.19920      0.400000           0   0.00000       0.00000    
       548 IM1H     28       IM1H     C2       CD2R5D    2.44700       11.6110           0  -1.08300       1.10000    
       549 IM1H     28       IM1H     DC2      DRUD     -2.55400      0.400000           0   0.00000       0.00000    
       550 IM1H     28       IM1H     H4       HDR5D    0.195000       1.00800           0   0.00000       0.00000    
       551 IM1H     28       IM1H     C3       CD2R5D    2.50700       11.6110           0  -1.08300       1.10000    
       552 IM1H     28       IM1H     DC3      DRUD     -2.55400      0.400000           0   0.00000       0.00000    
       553 IM1H     28       IM1H     H5       HDR5D    0.192000       1.00800           0   0.00000       0.00000    
       554 IM1H     28       IM1H     C4       CD2R5E    2.72410       11.6110           0  -1.25300       1.20000    
       555 IM1H     28       IM1H     DC4      DRUD     -2.74710      0.400000           0   0.00000       0.00000    
       556 IM1H     28       IM1H     H6       HDR5E    0.203000       1.00800           0   0.00000       0.00000    
       557 IM1H     28       IM1H     N2       ND2R5C    2.04220       13.6070           0 -0.803000       1.00000    
       558 IM1H     28       IM1H     DN2      DRUD     -2.19920      0.400000           0   0.00000       0.00000    
       559 IM1H     28       IM1H     H7       HDP1A    0.363000       1.00800           0   0.00000       0.00000    
       560 IM1H     28       IM1H     LPN21    LPD       0.00000       0.00000          -1   0.00000       0.00000    
       561 IM1H     29       IM1H     C1       CD33F     2.48500       11.6110           0  -1.18100       1.10000    
       562 IM1H     29       IM1H     DC1      DRUD     -2.66700      0.400000           0   0.00000       0.00000    
       563 IM1H     29       IM1H     H1       HDA3A    0.135000       1.00800           0   0.00000       0.00000    
       564 IM1H     29       IM1H     H2       HDA3A    0.135000       1.00800           0   0.00000       0.00000    
       565 IM1H     29       IM1H     H3       HDA3A    0.135000       1.00800           0   0.00000       0.00000    
       566 IM1H     29       IM1H     N1       ND2R5C    2.35720       13.6070           0 -0.803000       1.00000    
       567 IM1H     29       IM1H     DN1      DRUD     -2.19920      0.400000           0   0.00000       0.00000    
       568 IM1H     29       IM1H     C2       CD2R5D    2.44700       11.6110           0  -1.08300       1.10000    
       569 IM1H     29       IM1H     DC2      DRUD     -2.55400      0.400000           0   0.00000       0.00000    
       570 IM1H     29       IM1H     H4       HDR5D    0.195000       1.00800           0   0.00000       0.00000    
       571 IM1H     29       IM1H     C3       CD2R5D    2.50700       11.6110           0  -1.08300       1.10000    
       572 IM1H     29       IM1H     DC3      DRUD     -2.55400      0.400000           0   0.00000       0.00000    
       573 IM1H     29       IM1H     H5       HDR5D    0.192000       1.00800           0   0.00000       0.00000    
       574 IM1H     29       IM1H     C4       CD2R5E    2.72410       11.6110           0  -1.25300       1.20000    
       575 IM1H     29       IM1H     DC4      DRUD     -2.74710      0.400000           0   0.00000       0.00000    
       576 IM1H     29       IM1H     H6       HDR5E    0.203000       1.00800           0   0.00000       0.00000    
       577 IM1H     29       IM1H     N2       ND2R5C    2.04220       13.6070           0 -0.803000       1.00000    
       578 IM1H     29       IM1H     DN2      DRUD     -2.19920      0.400000           0   0.00000       0.00000    
       579 IM1H     29       IM1H     H7       HDP1A    0.363000       1.00800           0   0.00000       0.00000    
       580 IM1H     29       IM1H     LPN21    LPD       0.00000       0.00000          -1   0.00000       0.00000    
       581 IM1H     30       IM1H     C1       CD33F     2.48500       11.6110           0  -1.18100       1.10000    
       582 IM1H     30       IM1H     DC1      DRUD     -2.66700      0.400000           0   0.00000       0.00000    
       583 IM1H     30       IM1H     H1       HDA3A    0.135000       1.00800           0   0.00000       0.00000    
       584 IM1H     30       IM1H     H2       HDA3A    0.135000       1.00800           0   0.00000       0.00000    
       585 IM1H     30       IM1H     H3       HDA3A    0.135000       1.00800           0   0.00000       0.00000    
       586 IM1H     30       IM1H     N1       ND2R5C    2.35720       13.6070           0 -0.803000       1.00000    
       587 IM1H     30       IM1H     DN1      DRUD     -2.19920      0.400000           0   0.00000       0.00000    
       588 IM1H     30       IM1H     C2       CD2R5D    2.44700       11.6110           0  -1.08300       1.10000    
       589 IM1H     30       IM1H     DC2      DRUD     -2.55400      0.400000           0   0.00000       0.00000    
       590 IM1H     30       IM1H     H4       HDR5D    0.195000       1.00800           0   0.00000       0.00000    
       591 IM1H     30       IM1H     C3       CD2R5D    2.50700       11.6110           0  -1.08300       1.10000    
       592 IM1H     30       IM1H     DC3      DRUD     -2.55400      0.400000           0   0.00000       0.00000    
       593 IM1H     30       IM1H     H5       HDR5D    0.192000       1.00800           0   0.00000       0.00000    
       594 IM1H     30       IM1H     C4       CD2R5E    2.72410       11.6110           0  -1.25300       1.20000    
       595 IM1H     30       IM1H     DC4      DRUD     -2.74710      0.400000           0   0.00000       0.00000    
       596 IM1H     30       IM1H     H6       HDR5E    0.203000       1.00800           0   0.00000       0.00000    
       597 IM1H     30       IM1H     N2       ND2R5C    2.04220       13.6070           0 -0.803000       1.00000    
       598 IM1H     30       IM1H     DN2      DRUD     -2.19920      0.400000           0   0.00000       0.00000    
       599 IM1H     30       IM1H     H7       HDP1A    0.363000       1.00800           0   0.00000       0.00000    
       600 IM1H     30       IM1H     LPN21    LPD       0.00000       0.00000          -1   0.00000       0.00000    
       601 IM1H     31       IM1H     C1       CD33F     2.48500       11.6110           0  -1.18100       1.10000    
       602 IM1H     31       IM1H     DC1      DRUD     -2.66700      0.400000           0   0.00000       0.00000    
       603 IM1H     31       IM1H     H1       HDA3A    0.135000       1.00800           0   0.00000       0.00000    
       604 IM1H     31       IM1H     H2       HDA3A    0.135000       1.00800           0   0.00000       0.00000    
       605 IM1H     31       IM1H     H3       HDA3A    0.135000       1.00800           0   0.00000       0.00000    
       606 IM1H     31       IM1H     N1       ND2R5C    2.35720       13.6070           0 -0.803000       1.00000    
       607 IM1H     31       IM1H     DN1      DRUD     -2.19920      0.400000           0   0.00000       0.00000    
       608 IM1H     31       IM1H     C2       CD2R5D    2.44700       11.6110           0  -1.08300       1.10000    
       609 IM1H     31       IM1H     DC2      DRUD     -2.55400      0.400000           0   0.00000       0.00000    
       610 IM1H     31       IM1H     H4       HDR5D    0.195000       1.00800           0   0.00000       0.00000    
       611 IM1H     31       IM1H     C3       CD2R5D    2.50700       11.6110           0  -1.08300       1.10000    
       612 IM1H     31       IM1H     DC3      DRUD     -2.55400      0.400000           0   0.00000       0.00000    
       613 IM1H     31       IM1H     H5       HDR5D    0.192000       1.00800           0   0.00000       0.00000    
       614 IM1H     31       IM1H     C4       CD2R5E    2.72410       11.6110           0  -1.25300       1.20000    
       615 IM1H     31       IM1H     DC4      DRUD     -2.74710      0.400000           0   0.00000       0.00000    
       616 IM1H     31       IM1H     H6       HDR5E    0.203000       1.00800           0   0.00000       0.00000    
       617 IM1H     31       IM1H     N2       ND2R5C    2.04220       13.6070           0 -0.803000       1.00000    
       618 IM1H     31       IM1H     DN2      DRUD     -2.19920      0.400000           0   0.00000       0.00000    
       619 IM1H     31       IM1H     H7       HDP1A    0.363000       1.00800           0   0.00000       0.00000    
       620 IM1H     31       IM1H     LPN21    LPD       0.00000       0.00000          -1   0.00000       0.00000    
       621 IM1H     32       IM1H     C1       CD33F     2.48500       11.6110           0  -1.18100       1.10000    
       622 IM1H     32       IM1H     DC1      DRUD     -2.66700      0.400000           0   0.00000       0.00000    
       623 IM1H     32       IM1H     H1       HDA3A    0.135000       1.00800           0   0.00000       0.00000    
       624 IM1H     32       IM1H     H2       HDA3A    0.135000       1.00800           0   0.00000       0.00000    
       625 IM1H     32       IM1H     H3       HDA3A    0.135000       1.00800           0   0.00000       0.00000    
       626 IM1H     32       IM1H     N1       ND2R5C    2.35720       13.6070           0 -0.803000       1.00000    
       627 IM1H     32       IM1H     DN1      DRUD     -2.19920      0.400000           0   0.00000       0.00000    
       628 IM1H     32       IM1H     C2       CD2R5D    2.44700       11.6110           0  -1.08300       1.10000    
       629 IM1H     32       IM1H     DC2      DRUD     -2.55400      0.400000           0   0.00000       0.00000    
       630 IM1H     32       IM1H     H4       HDR5D    0.195000       1.00800           0   0.00000       0.00000    
       631 IM1H     32       IM1H     C3       CD2R5D    2.50700       11.6110           0  -1.08300       1.10000    
       632 IM1H     32       IM1H     DC3      DRUD     -2.55400      0.400000           0   0.00000       0.00000    
       633 IM1H     32       IM1H     H5       HDR5D    0.192000       1.00800           0   0.00000       0.00000    
       634 IM1H     32       IM1H     C4       CD2R5E    2.72410       11.6110           0  -1.25300       1.20000    
       635 IM1H     32       IM1H     DC4      DRUD     -2.74710      0.400000           0   0.00000       0.00000    
       636 IM1H     32       IM1H     H6       HDR5E    0.203000       1.00800           0   0.00000       0.00000    
       637 IM1H     32       IM1H     N2       ND2R5C    2.04220       13.6070           0 -0.803000       1.00000    
       638 IM1H     32       IM1H     DN2      DRUD     -2.19920      0.400000           0   0.00000       0.00000    
       639 IM1H     32       IM1H     H7       HDP1A    0.363000       1.00800           0   0.00000       0.00000    
       640 IM1H     32       IM1H     LPN21    LPD       0.00000       0.00000          -1   0.00000       0.00000    
       641 IM1H     33       IM1H     C1       CD33F     2.48500       11.6110           0  -1.18100       1.10000    
       642 IM1H     33       IM1H     DC1      DRUD     -2.66700      0.400000           0   0.00000       0.00000    
       643 IM1H     33       IM1H     H1       HDA3A    0.135000       1.00800           0   0.00000       0.00000    
       644 IM1H     33       IM1H     H2       HDA3A    0.135000       1.00800           0   0.00000       0.00000    
       645 IM1H     33       IM1H     H3       HDA3A    0.135000       1.00800           0   0.00000       0.00000    
       646 IM1H     33       IM1H     N1       ND2R5C    2.35720       13.6070           0 -0.803000       1.00000    
       647 IM1H     33       IM1H     DN1      DRUD     -2.19920      0.400000           0   0.00000       0.00000    
       648 IM1H     33       IM1H     C2       CD2R5D    2.44700       11.6110           0  -1.08300       1.10000    
       649 IM1H     33       IM1H     DC2      DRUD     -2.55400      0.400000           0   0.00000       0.00000    
       650 IM1H     33       IM1H     H4       HDR5D    0.195000       1.00800           0   0.00000       0.00000    
       651 IM1H     33       IM1H     C3       CD2R5D    2.50700       11.6110           0  -1.08300       1.10000    
       652 IM1H     33       IM1H     DC3      DRUD     -2.55400      0.400000           0   0.00000       0.00000    
       653 IM1H     33       IM1H     H5       HDR5D    0.192000       1.00800           0   0.00000       0.00000    
       654 IM1H     33       IM1H     C4       CD2R5E    2.72410       11.6110           0  -1.25300       1.20000    
       655 IM1H     33       IM1H     DC4      DRUD     -2.74710      0.400000           0   0.00000       0.00000    
       656 IM1H     33       IM1H     H6       HDR5E    0.203000       1.00800           0   0.00000       0.00000    
       657 IM1H     33       IM1H     N2       ND2R5C    2.04220       13.6070           0 -0.803000       1.00000    
       658 IM1H     33       IM1H     DN2      DRUD     -2.19920      0.400000           0   0.00000       0.00000    
       659 IM1H     33       IM1H     H7       HDP1A    0.363000       1.00800           0   0.00000       0.00000    
       660 IM1H     33       IM1H     LPN21    LPD       0.00000       0.00000          -1   0.00000       0.00000    
       661 IM1H     34       IM1H     C1       CD33F     2.48500       11.6110           0  -1.18100       1.10000    
       662 IM1H     34       IM1H     DC1      DRUD     -2.66700      0.400000           0   0.00000       0.00000    
       663 IM1H     34       IM1H     H1       HDA3A    0.135000       1.00800           0   0.00000       0.00000    
       664 IM1H     34       IM1H     H2       HDA3A    0.135000       1.00800           0   0.00000       0.00000    
       665 IM1H     34       IM1H     H3       HDA3A    0.135000       1.00800           0   0.00000       0.00000    
       666 IM1H     34       IM1H     N1       ND2R5C    2.35720       13.6070           0 -0.803000       1.00000    
       667 IM1H     34       IM1H     DN1      DRUD     -2.19920      0.400000           0   0.00000       0.00000    
       668 IM1H     34       IM1H     C2       CD2R5D    2.44700       11.6110           0  -1.08300       1.10000    
       669 IM1H     34       IM1H     DC2      DRUD     -2.55400      0.400000           0   0.00000       0.00000    
       670 IM1H     34       IM1H     H4       HDR5D    0.195000       1.00800           0   0.00000       0.00000    
       671 IM1H     34       IM1H     C3       CD2R5D    2.50700       11.6110           0  -1.08300       1.10000    
       672 IM1H     34       IM1H     DC3      DRUD     -2.55400      0.400000           0   0.00000       0.00000    
       673 IM1H     34       IM1H     H5       HDR5D    0.192000       1.00800           0   0.00000       0.00000    
       674 IM1H     34       IM1H     C4       CD2R5E    2.72410       11.6110           0  -1.25300       1.20000    
       675 IM1H     34       IM1H     DC4      DRUD     -2.74710      0.400000           0   0.00000       0.00000    
       676 IM1H     34       IM1H     H6       HDR5E    0.203000       1.00800           0   0.00000       0.00000    
       677 IM1H     34       IM1H     N2       ND2R5C    2.04220       13.6070           0 -0.803000       1.00000    
       678 IM1H     34       IM1H     DN2      DRUD     -2.19920      0.400000           0   0.00000       0.00000    
       679 IM1H     34       IM1H     H7       HDP1A    0.363000       1.00800           0   0.00000       0.00000    
       680 IM1H     34       IM1H     LPN21    LPD       0.00000       0.00000          -1   0.00000       0.00000    
       681 IM1H     35       IM1H     C1       CD33F     2.48500       11.6110           0  -1.18100       1.10000    
       682 IM1H     35       IM1H     DC1      DRUD     -2.66700      0.400000           0   0.00000       0.00000    
       683 IM1H     35       IM1H     H1       HDA3A    0.135000       1.00800           0   0.00000       0.00000    
       684 IM1H     35       IM1H     H2       HDA3A    0.135000       1.00800           0   0.00000       0.00000    
       685 IM1H     35       IM1H     H3       HDA3A    0.135000       1.00800           0   0.00000       0.00000    
       686 IM1H     35       IM1H     N1       ND2R5C    2.35720       13.6070           0 -0.803000       1.00000    
       687 IM1H     35       IM1H     DN1      DRUD     -2.19920      0.400000           0   0.00000       0.00000    
       688 IM1H     35       IM1H     C2       CD2R5D    2.44700       11.6110           0  -1.08300       1.10000    
       689 IM1H     35       IM1H     DC2      DRUD     -2.55400      0.400000           0   0.00000       0.00000    
       690 IM1H     35       IM1H     H4       HDR5D    0.195000       1.00800           0   0.00000       0.00000    
       691 IM1H     35       IM1H     C3       CD2R5D    2.50700       11.6110           0  -1.08300       1.10000    
       692 IM1H     35       IM1H     DC3      DRUD     -2.55400      0.400000           0   0.00000       0.00000    
       693 IM1H     35       IM1H     H5       HDR5D    0.192000       1.00800           0   0.00000       0.00000    
       694 IM1H     35       IM1H     C4       CD2R5E    2.72410       11.6110           0  -1.25300       1.20000    
       695 IM1H     35       IM1H     DC4      DRUD     -2.74710      0.400000           0   0.00000       0.00000    
       696 IM1H     35       IM1H     H6       HDR5E    0.203000       1.00800           0   0.00000       0.00000    
       697 IM1H     35       IM1H     N2       ND2R5C    2.04220       13.6070           0 -0.803000       1.00000    
       698 IM1H     35       IM1H     DN2      DRUD     -2.19920      0.400000           0   0.00000       0.00000    
       699 IM1H     35       IM1H     H7       HDP1A    0.363000       1.00800           0   0.00000       0.00000    
       700 IM1H     35       IM1H     LPN21    LPD       0.00000       0.00000          -1   0.00000       0.00000    
       701 IM1H     36       IM1H     C1       CD33F     2.48500       11.6110           0  -1.18100       1.10000    
       702 IM1H     36       IM1H     DC1      DRUD     -2.66700      0.400000           0   0.00000       0.00000    
       703 IM1H     36       IM1H     H1       HDA3A    0.135000       1.00800           0   0.00000       0.00000    
       704 IM1H     36       IM1H     H2       HDA3A    0.135000       1.00800           0   0.00000       0.00000    
       705 IM1H     36       IM1H     H3       HDA3A    0.135000       1.00800           0   0.00000       0.00000    
       706 IM1H     36       IM1H     N1       ND2R5C    2.35720       13.6070           0 -0.803000       1.00000    
       707 IM1H     36       IM1H     DN1      DRUD     -2.19920      0.400000           0   0.00000       0.00000    
       708 IM1H     36       IM1H     C2       CD2R5D    2.44700       11.6110           0  -1.08300       1.10000    
       709 IM1H     36       IM1H     DC2      DRUD     -2.55400      0.400000           0   0.00000       0.00000    
       710 IM1H     36       IM1H     H4       HDR5D    0.195000       1.00800           0   0.00000       0.00000    
       711 IM1H     36       IM1H     C3       CD2R5D    2.50700       11.6110           0  -1.08300       1.10000    
       712 IM1H     36       IM1H     DC3      DRUD     -2.55400      0.400000           0   0.00000       0.00000    
       713 IM1H     36       IM1H     H5       HDR5D    0.192000       1.00800           0   0.00000       0.00000    
       714 IM1H     36       IM1H     C4       CD2R5E    2.72410       11.6110           0  -1.25300       1.20000    
       715 IM1H     36       IM1H     DC4      DRUD     -2.74710      0.400000           0   0.00000       0.00000    
       716 IM1H     36       IM1H     H6       HDR5E    0.203000       1.00800           0   0.00000       0.00000    
       717 IM1H     36       IM1H     N2       ND2R5C    2.04220       13.6070           0 -0.803000       1.00000    
       718 IM1H     36       IM1H     DN2      DRUD     -2.19920      0.400000           0   0.00000       0.00000    
       719 IM1H     36       IM1H     H7       HDP1A    0.363000       1.00800           0   0.00000       0.00000    
       720 IM1H     36       IM1H     LPN21    LPD       0.00000       0.00000          -1   0.00000       0.00000    
       721 IM1H     37       IM1H     C1       CD33F     2.48500       11.6110           0  -1.18100       1.10000    
       722 IM1H     37       IM1H     DC1      DRUD     -2.66700      0.400000           0   0.00000       0.00000    
       723 IM1H     37       IM1H     H1       HDA3A    0.135000       1.00800           0   0.00000       0.00000    
       724 IM1H     37       IM1H     H2       HDA3A    0.135000       1.00800           0   0.00000       0.00000    
       725 IM1H     37       IM1H     H3       HDA3A    0.135000       1.00800           0   0.00000       0.00000    
       726 IM1H     37       IM1H     N1       ND2R5C    2.35720       13.6070           0 -0.803000       1.00000    
       727 IM1H     37       IM1H     DN1      DRUD     -2.19920      0.400000           0   0.00000       0.00000    
       728 IM1H     37       IM1H     C2       CD2R5D    2.44700       11.6110           0  -1.08300       1.10000    
       729 IM1H     37       IM1H     DC2      DRUD     -2.55400      0.400000           0   0.00000       0.00000    
       730 IM1H     37       IM1H     H4       HDR5D    0.195000       1.00800           0   0.00000       0.00000    
       731 IM1H     37       IM1H     C3       CD2R5D    2.50700       11.6110           0  -1.08300       1.10000    
       732 IM1H     37       IM1H     DC3      DRUD     -2.55400      0.400000           0   0.00000       0.00000    
       733 IM1H     37       IM1H     H5       HDR5D    0.192000       1.00800           0   0.00000       0.00000    
       734 IM1H     37       IM1H     C4       CD2R5E    2.72410       11.6110           0  -1.25300       1.20000    
       735 IM1H     37       IM1H     DC4      DRUD     -2.74710      0.400000           0   0.00000       0.00000    
       736 IM1H     37       IM1H     H6       HDR5E    0.203000       1.00800           0   0.00000       0.00000    
       737 IM1H     37       IM1H     N2       ND2R5C    2.04220       13.6070           0 -0.803000       1.00000    
       738 IM1H     37       IM1H     DN2      DRUD     -2.19920      0.400000           0   0.00000       0.00000    
       739 IM1H     37       IM1H     H7       HDP1A    0.363000       1.00800           0   0.00000       0.00000    
       740 IM1H     37       IM1H     LPN21    LPD       0.00000       0.00000          -1   0.00000       0.00000    
       741 IM1H     38       IM1H     C1       CD33F     2.48500       11.6110           0  -1.18100       1.10000    
       742 IM1H     38       IM1H     DC1      DRUD     -2.66700      0.400000           0   0.00000       0.00000    
       743 IM1H     38       IM1H     H1       HDA3A    0.135000       1.00800           0   0.00000       0.00000    
       744 IM1H     38       IM1H     H2       HDA3A    0.135000       1.00800           0   0.00000       0.00000    
       745 IM1H     38       IM1H     H3       HDA3A    0.135000       1.00800           0   0.00000       0.00000    
       746 IM1H     38       IM1H     N1       ND2R5C    2.35720       13.6070           0 -0.803000       1.00000    
       747 IM1H     38       IM1H     DN1      DRUD     -2.19920      0.400000           0   0.00000       0.00000    
       748 IM1H     38       IM1H     C2       CD2R5D    2.44700       11.6110           0  -1.08300       1.10000    
       749 IM1H     38       IM1H     DC2      DRUD     -2.55400      0.400000           0   0.00000       0.00000    
       750 IM1H     38       IM1H     H4       HDR5D    0.195000       1.00800           0   0.00000       0.00000    
       751 IM1H     38       IM1H     C3       CD2R5D    2.50700       11.6110           0  -1.08300       1.10000    
       752 IM1H     38       IM1H     DC3      DRUD     -2.55400      0.400000           0   0.00000       0.00000    
       753 IM1H     38       IM1H     H5       HDR5D    0.192000       1.00800           0   0.00000       0.00000    
       754 IM1H     38       IM1H     C4       CD2R5E    2.72410       11.6110           0  -1.25300       1.20000    
       755 IM1H     38       IM1H     DC4      DRUD     -2.74710      0.400000           0   0.00000       0.00000    
       756 IM1H     38       IM1H     H6       HDR5E    0.203000       1.00800           0   0.00000       0.00000    
       757 IM1H     38       IM1H     N2       ND2R5C    2.04220       13.6070           0 -0.803000       1.00000    
       758 IM1H     38       IM1H     DN2      DRUD     -2.19920      0.400000           0   0.00000       0.00000    
       759 IM1H     38       IM1H     H7       HDP1A    0.363000       1.00800           0   0.00000       0.00000    
       760 IM1H     38       IM1H     LPN21    LPD       0.00000       0.00000          -1   0.00000       0.00000    
       761 IM1H     39       IM1H     C1       CD33F     2.48500       11.6110           0  -1.18100       1.10000    
       762 IM1H     39       IM1H     DC1      DRUD     -2.66700      0.400000           0   0.00000       0.00000    
       763 IM1H     39       IM1H     H1       HDA3A    0.135000       1.00800           0   0.00000       0.00000    
       764 IM1H     39       IM1H     H2       HDA3A    0.135000       1.00800           0   0.00000       0.00000    
       765 IM1H     39       IM1H     H3       HDA3A    0.135000       1.00800           0   0.00000       0.00000    
       766 IM1H     39       IM1H     N1       ND2R5C    2.35720       13.6070           0 -0.803000       1.00000    
       767 IM1H     39       IM1H     DN1      DRUD     -2.19920      0.400000           0   0.00000       0.00000    
       768 IM1H     39       IM1H     C2       CD2R5D    2.44700       11.6110           0  -1.08300       1.10000    
       769 IM1H     39       IM1H     DC2      DRUD     -2.55400      0.400000           0   0.00000       0.00000    
       770 IM1H     39       IM1H     H4       HDR5D    0.195000       1.00800           0   0.00000       0.00000    
       771 IM1H     39       IM1H     C3       CD2R5D    2.50700       11.6110           0  -1.08300       1.10000    
       772 IM1H     39       IM1H     DC3      DRUD     -2.55400      0.400000           0   0.00000       0.00000    
       773 IM1H     39       IM1H     H5       HDR5D    0.192000       1.00800           0   0.00000       0.00000    
       774 IM1H     39       IM1H     C4       CD2R5E    2.72410       11.6110           0  -1.25300       1.20000    
       775 IM1H     39       IM1H     DC4      DRUD     -2.74710      0.400000           0   0.00000       0.00000    
       776 IM1H     39       IM1H     H6       HDR5E    0.203000       1.00800           0   0.00000       0.00000    
       777 IM1H     39       IM1H     N2       ND2R5C    2.04220       13.6070           0 -0.803000       1.00000    
       778 IM1H     39       IM1H     DN2      DRUD     -2.19920      0.400000           0   0.00000       0.00000    
       779 IM1H     39       IM1H     H7       HDP1A    0.363000       1.00800           0   0.00000       0.00000    
       780 IM1H     39       IM1H     LPN21    LPD       0.00000       0.00000          -1   0.00000       0.00000    
       781 IM1H     40       IM1H     C1       CD33F     2.48500       11.6110           0  -1.18100       1.10000    
       782 IM1H     40       IM1H     DC1      DRUD     -2.66700      0.400000           0   0.00000       0.00000    
       783 IM1H     40       IM1H     H1       HDA3A    0.135000       1.00800           0   0.00000       0.00000    
       784 IM1H     40       IM1H     H2       HDA3A    0.135000       1.00800           0   0.00000       0.00000    
       785 IM1H     40       IM1H     H3       HDA3A    0.135000       1.00800           0   0.00000       0.00000    
       786 IM1H     40       IM1H     N1       ND2R5C    2.35720       13.6070           0 -0.803000       1.00000    
       787 IM1H     40       IM1H     DN1      DRUD     -2.19920      0.400000           0   0.00000       0.00000    
       788 IM1H     40       IM1H     C2       CD2R5D    2.44700       11.6110           0  -1.08300       1.10000    
       789 IM1H     40       IM1H     DC2      DRUD     -2.55400      0.400000           0   0.00000       0.00000    
       790 IM1H     40       IM1H     H4       HDR5D    0.195000       1.00800           0   0.00000       0.00000    
       791 IM1H     40       IM1H     C3       CD2R5D    2.50700       11.6110           0  -1.08300       1.10000    
       792 IM1H     40       IM1H     DC3      DRUD     -2.55400      0.400000           0   0.00000       0.00000    
       793 IM1H     40       IM1H     H5       HDR5D    0.192000       1.00800           0   0.00000       0.00000    
       794 IM1H     40       IM1H     C4       CD2R5E    2.72410       11.6110           0  -1.25300       1.20000    
       795 IM1H     40       IM1H     DC4      DRUD     -2.74710      0.400000           0   0.00000       0.00000    
       796 IM1H     40       IM1H     H6       HDR5E    0.203000       1.00800           0   0.00000       0.00000    
       797 IM1H     40       IM1H     N2       ND2R5C    2.04220       13.6070           0 -0.803000       1.00000    
       798 IM1H     40       IM1H     DN2      DRUD     -2.19920      0.400000           0   0.00000       0.00000    
       799 IM1H     40       IM1H     H7       HDP1A    0.363000       1.00800           0   0.00000       0.00000    
       800 IM1H     40       IM1H     LPN21    LPD       0.00000       0.00000          -1   0.00000       0.00000    
       801 IM1H     41       IM1H     C1       CD33F     2.48500       11.6110           0  -1.18100       1.10000    
       802 IM1H     41       IM1H     DC1      DRUD     -2.66700      0.400000           0   0.00000       0.00000    
       803 IM1H     41       IM1H     H1       HDA3A    0.135000       1.00800           0   0.00000       0.00000    
       804 IM1H     41       IM1H     H2       HDA3A    0.135000       1.00800           0   0.00000       0.00000    
       805 IM1H     41       IM1H     H3       HDA3A    0.135000       1.00800           0   0.00000       0.00000    
       806 IM1H     41       IM1H     N1       ND2R5C    2.35720       13.6070           0 -0.803000       1.00000    
       807 IM1H     41       IM1H     DN1      DRUD     -2.19920      0.400000           0   0.00000       0.00000    
       808 IM1H     41       IM1H     C2       CD2R5D    2.44700       11.6110           0  -1.08300       1.10000    
       809 IM1H     41       IM1H     DC2      DRUD     -2.55400      0.400000           0   0.00000       0.00000    
       810 IM1H     41       IM1H     H4       HDR5D    0.195000       1.00800           0   0.00000       0.00000    
       811 IM1H     41       IM1H     C3       CD2R5D    2.50700       11.6110           0  -1.08300       1.10000    
       812 IM1H     41       IM1H     DC3      DRUD     -2.55400      0.400000           0   0.00000       0.00000    
       813 IM1H     41       IM1H     H5       HDR5D    0.192000       1.00800           0   0.00000       0.00000    
       814 IM1H     41       IM1H     C4       CD2R5E    2.72410       11.6110           0  -1.25300       1.20000    
       815 IM1H     41       IM1H     DC4      DRUD     -2.74710      0.400000           0   0.00000       0.00000    
       816 IM1H     41       IM1H     H6       HDR5E    0.203000       1.00800           0   0.00000       0.00000    
       817 IM1H     41       IM1H     N2       ND2R5C    2.04220       13.6070           0 -0.803000       1.00000    
       818 IM1H     41       IM1H     DN2      DRUD     -2.19920      0.400000           0   0.00000       0.00000    
       819 IM1H     41       IM1H     H7       HDP1A    0.363000       1.00800           0   0.00000       0.00000    
       820 IM1H     41       IM1H     LPN21    LPD       0.00000       0.00000          -1   0.00000       0.00000    
       821 IM1H     42       IM1H     C1       CD33F     2.48500       11.6110           0  -1.18100       1.10000    
       822 IM1H     42       IM1H     DC1      DRUD     -2.66700      0.400000           0   0.00000       0.00000    
       823 IM1H     42       IM1H     H1       HDA3A    0.135000       1.00800           0   0.00000       0.00000    
       824 IM1H     42       IM1H     H2       HDA3A    0.135000       1.00800           0   0.00000       0.00000    
       825 IM1H     42       IM1H     H3       HDA3A    0.135000       1.00800           0   0.00000       0.00000    
       826 IM1H     42       IM1H     N1       ND2R5C    2.35720       13.6070           0 -0.803000       1.00000    
       827 IM1H     42       IM1H     DN1      DRUD     -2.19920      0.400000           0   0.00000       0.00000    
       828 IM1H     42       IM1H     C2       CD2R5D    2.44700       11.6110           0  -1.08300       1.10000    
       829 IM1H     42       IM1H     DC2      DRUD     -2.55400      0.400000           0   0.00000       0.00000    
       830 IM1H     42       IM1H     H4       HDR5D    0.195000       1.00800           0   0.00000       0.00000    
       831 IM1H     42       IM1H     C3       CD2R5D    2.50700       11.6110           0  -1.08300       1.10000    
       832 IM1H     42       IM1H     DC3      DRUD     -2.55400      0.400000           0   0.00000       0.00000    
       833 IM1H     42       IM1H     H5       HDR5D    0.192000       1.00800           0   0.00000       0.00000    
       834 IM1H     42       IM1H     C4       CD2R5E    2.72410       11.6110           0  -1.25300       1.20000    
       835 IM1H     42       IM1H     DC4      DRUD     -2.74710      0.400000           0   0.00000       0.00000    
       836 IM1H     42       IM1H     H6       HDR5E    0.203000       1.00800           0   0.00000       0.00000    
       837 IM1H     42       IM1H     N2       ND2R5C    2.04220       13.6070           0 -0.803000       1.00000    
       838 IM1H     42       IM1H     DN2      DRUD     -2.19920      0.400000           0   0.00000       0.00000    
       839 IM1H     42       IM1H     H7       HDP1A    0.363000       1.00800           0   0.00000       0.00000    
       840 IM1H     42       IM1H     LPN21    LPD       0.00000       0.00000          -1   0.00000       0.00000    
       841 IM1H     43       IM1H     C1       CD33F     2.48500       11.6110           0  -1.18100       1.10000    
       842 IM1H     43       IM1H     DC1      DRUD     -2.66700      0.400000           0   0.00000       0.00000    
       843 IM1H     43       IM1H     H1       HDA3A    0.135000       1.00800           0   0.00000       0.00000    
       844 IM1H     43       IM1H     H2       HDA3A    0.135000       1.00800           0   0.00000       0.00000    
       845 IM1H     43       IM1H     H3       HDA3A    0.135000       1.00800           0   0.00000       0.00000    
       846 IM1H     43       IM1H     N1       ND2R5C    2.35720       13.6070           0 -0.803000       1.00000    
       847 IM1H     43       IM1H     DN1      DRUD     -2.19920      0.400000           0   0.00000       0.00000    
       848 IM1H     43       IM1H     C2       CD2R5D    2.44700       11.6110           0  -1.08300       1.10000    
       849 IM1H     43       IM1H     DC2      DRUD     -2.55400      0.400000           0   0.00000       0.00000    
       850 IM1H     43       IM1H     H4       HDR5D    0.195000       1.00800           0   0.00000       0.00000    
       851 IM1H     43       IM1H     C3       CD2R5D    2.50700       11.6110           0  -1.08300       1.10000    
       852 IM1H     43       IM1H     DC3      DRUD     -2.55400      0.400000           0   0.00000       0.00000    
       853 IM1H     43       IM1H     H5       HDR5D    0.192000       1.00800           0   0.00000       0.00000    
       854 IM1H     43       IM1H     C4       CD2R5E    2.72410       11.6110           0  -1.25300       1.20000    
       855 IM1H     43       IM1H     DC4      DRUD     -2.74710      0.400000           0   0.00000       0.00000    
       856 IM1H     43       IM1H     H6       HDR5E    0.203000       1.00800           0   0.00000       0.00000    
       857 IM1H     43       IM1H     N2       ND2R5C    2.04220       13.6070           0 -0.803000       1.00000    
       858 IM1H     43       IM1H     DN2      DRUD     -2.19920      0.400000           0   0.00000       0.00000    
       859 IM1H     43       IM1H     H7       HDP1A    0.363000       1.00800           0   0.00000       0.00000    
       860 IM1H     43       IM1H     LPN21    LPD       0.00000       0.00000          -1   0.00000       0.00000    
       861 IM1H     44       IM1H     C1       CD33F     2.48500       11.6110           0  -1.18100       1.10000    
       862 IM1H     44       IM1H     DC1      DRUD     -2.66700      0.400000           0   0.00000       0.00000    
       863 IM1H     44       IM1H     H1       HDA3A    0.135000       1.00800           0   0.00000       0.00000    
       864 IM1H     44       IM1H     H2       HDA3A    0.135000       1.00800           0   0.00000       0.00000    
       865 IM1H     44       IM1H     H3       HDA3A    0.135000       1.00800           0   0.00000       0.00000    
       866 IM1H     44       IM1H     N1       ND2R5C    2.35720       13.6070           0 -0.803000       1.00000    
       867 IM1H     44       IM1H     DN1      DRUD     -2.19920      0.400000           0   0.00000       0.00000    
       868 IM1H     44       IM1H     C2       CD2R5D    2.44700       11.6110           0  -1.08300       1.10000    
       869 IM1H     44       IM1H     DC2      DRUD     -2.55400      0.400000           0   0.00000       0.00000    
       870 IM1H     44       IM1H     H4       HDR5D    0.195000       1.00800           0   0.00000       0.00000    
       871 IM1H     44       IM1H     C3       CD2R5D    2.50700       11.6110           0  -1.08300       1.10000    
       872 IM1H     44       IM1H     DC3      DRUD     -2.55400      0.400000           0   0.00000       0.00000    
       873 IM1H     44       IM1H     H5       HDR5D    0.192000       1.00800           0   0.00000       0.00000    
       874 IM1H     44       IM1H     C4       CD2R5E    2.72410       11.6110           0  -1.25300       1.20000    
       875 IM1H     44       IM1H     DC4      DRUD     -2.74710      0.400000           0   0.00000       0.00000    
       876 IM1H     44       IM1H     H6       HDR5E    0.203000       1.00800           0   0.00000       0.00000    
       877 IM1H     44       IM1H     N2       ND2R5C    2.04220       13.6070           0 -0.803000       1.00000    
       878 IM1H     44       IM1H     DN2      DRUD     -2.19920      0.400000           0   0.00000       0.00000    
       879 IM1H     44       IM1H     H7       HDP1A    0.363000       1.00800           0   0.00000       0.00000    
       880 IM1H     44       IM1H     LPN21    LPD       0.00000       0.00000          -1   0.00000       0.00000    
       881 IM1H     45       IM1H     C1       CD33F     2.48500       11.6110           0  -1.18100       1.10000    
       882 IM1H     45       IM1H     DC1      DRUD     -2.66700      0.400000           0   0.00000       0.00000    
       883 IM1H     45       IM1H     H1       HDA3A    0.135000       1.00800           0   0.00000       0.00000    
       884 IM1H     45       IM1H     H2       HDA3A    0.135000       1.00800           0   0.00000       0.00000    
       885 IM1H     45       IM1H     H3       HDA3A    0.135000       1.00800           0   0.00000       0.00000    
       886 IM1H     45       IM1H     N1       ND2R5C    2.35720       13.6070           0 -0.803000       1.00000    
       887 IM1H     45       IM1H     DN1      DRUD     -2.19920      0.400000           0   0.00000       0.00000    
       888 IM1H     45       IM1H     C2       CD2R5D    2.44700       11.6110           0  -1.08300       1.10000    
       889 IM1H     45       IM1H     DC2      DRUD     -2.55400      0.400000           0   0.00000       0.00000    
       890 IM1H     45       IM1H     H4       HDR5D    0.195000       1.00800           0   0.00000       0.00000    
       891 IM1H     45       IM1H     C3       CD2R5D    2.50700       11.6110           0  -1.08300       1.10000    
       892 IM1H     45       IM1H     DC3      DRUD     -2.55400      0.400000           0   0.00000       0.00000    
       893 IM1H     45       IM1H     H5       HDR5D    0.192000       1.00800           0   0.00000       0.00000    
       894 IM1H     45       IM1H     C4       CD2R5E    2.72410       11.6110           0  -1.25300       1.20000    
       895 IM1H     45       IM1H     DC4      DRUD     -2.74710      0.400000           0   0.00000       0.00000    
       896 IM1H     45       IM1H     H6       HDR5E    0.203000       1.00800           0   0.00000       0.00000    
       897 IM1H     45       IM1H     N2       ND2R5C    2.04220       13.6070           0 -0.803000       1.00000    
       898 IM1H     45       IM1H     DN2      DRUD     -2.19920      0.400000           0   0.00000       0.00000    
       899 IM1H     45       IM1H     H7       HDP1A    0.363000       1.00800           0   0.00000       0.00000    
       900 IM1H     45       IM1H     LPN21    LPD       0.00000       0.00000          -1   0.00000       0.00000    
       901 IM1H     46       IM1H     C1       CD33F     2.48500       11.6110           0  -1.18100       1.10000    
       902 IM1H     46       IM1H     DC1      DRUD     -2.66700      0.400000           0   0.00000       0.00000    
       903 IM1H     46       IM1H     H1       HDA3A    0.135000       1.00800           0   0.00000       0.00000    
       904 IM1H     46       IM1H     H2       HDA3A    0.135000       1.00800           0   0.00000       0.00000    
       905 IM1H     46       IM1H     H3       HDA3A    0.135000       1.00800           0   0.00000       0.00000    
       906 IM1H     46       IM1H     N1       ND2R5C    2.35720       13.6070           0 -0.803000       1.00000    
       907 IM1H     46       IM1H     DN1      DRUD     -2.19920      0.400000           0   0.00000       0.00000    
       908 IM1H     46       IM1H     C2       CD2R5D    2.44700       11.6110           0  -1.08300       1.10000    
       909 IM1H     46       IM1H     DC2      DRUD     -2.55400      0.400000           0   0.00000       0.00000    
       910 IM1H     46       IM1H     H4       HDR5D    0.195000       1.00800           0   0.00000       0.00000    
       911 IM1H     46       IM1H     C3       CD2R5D    2.50700       11.6110           0  -1.08300       1.10000    
       912 IM1H     46       IM1H     DC3      DRUD     -2.55400      0.400000           0   0.00000       0.00000    
       913 IM1H     46       IM1H     H5       HDR5D    0.192000       1.00800           0   0.00000       0.00000    
       914 IM1H     46       IM1H     C4       CD2R5E    2.72410       11.6110           0  -1.25300       1.20000    
       915 IM1H     46       IM1H     DC4      DRUD     -2.74710      0.400000           0   0.00000       0.00000    
       916 IM1H     46       IM1H     H6       HDR5E    0.203000       1.00800           0   0.00000       0.00000    
       917 IM1H     46       IM1H     N2       ND2R5C    2.04220       13.6070           0 -0.803000       1.00000    
       918 IM1H     46       IM1H     DN2      DRUD     -2.19920      0.400000           0   0.00000       0.00000    
       919 IM1H     46       IM1H     H7       HDP1A    0.363000       1.00800           0   0.00000       0.00000    
       920 IM1H     46       IM1H     LPN21    LPD       0.00000       0.00000          -1   0.00000       0.00000    
       921 IM1H     47       IM1H     C1       CD33F     2.48500       11.6110           0  -1.18100       1.10000    
       922 IM1H     47       IM1H     DC1      DRUD     -2.66700      0.400000           0   0.00000       0.00000    
       923 IM1H     47       IM1H     H1       HDA3A    0.135000       1.00800           0   0.00000       0.00000    
       924 IM1H     47       IM1H     H2       HDA3A    0.135000       1.00800           0   0.00000       0.00000    
       925 IM1H     47       IM1H     H3       HDA3A    0.135000       1.00800           0   0.00000       0.00000    
       926 IM1H     47       IM1H     N1       ND2R5C    2.35720       13.6070           0 -0.803000       1.00000    
       927 IM1H     47       IM1H     DN1      DRUD     -2.19920      0.400000           0   0.00000       0.00000    
       928 IM1H     47       IM1H     C2       CD2R5D    2.44700       11.6110           0  -1.08300       1.10000    
       929 IM1H     47       IM1H     DC2      DRUD     -2.55400      0.400000           0   0.00000       0.00000    
       930 IM1H     47       IM1H     H4       HDR5D    0.195000       1.00800           0   0.00000       0.00000    
       931 IM1H     47       IM1H     C3       CD2R5D    2.50700       11.6110           0  -1.08300       1.10000    
       932 IM1H     47       IM1H     DC3      DRUD     -2.55400      0.400000           0   0.00000       0.00000    
       933 IM1H     47       IM1H     H5       HDR5D    0.192000       1.00800           0   0.00000       0.00000    
       934 IM1H     47       IM1H     C4       CD2R5E    2.72410       11.6110           0  -1.25300       1.20000    
       935 IM1H     47       IM1H     DC4      DRUD     -2.74710      0.400000           0   0.00000       0.00000    
       936 IM1H     47       IM1H     H6       HDR5E    0.203000       1.00800           0   0.00000       0.00000    
       937 IM1H     47       IM1H     N2       ND2R5C    2.04220       13.6070           0 -0.803000       1.00000    
       938 IM1H     47       IM1H     DN2      DRUD     -2.19920      0.400000           0   0.00000       0.00000    
       939 IM1H     47       IM1H     H7       HDP1A    0.363000       1.00800           0   0.00000       0.00000    
       940 IM1H     47       IM1H     LPN21    LPD       0.00000       0.00000          -1   0.00000       0.00000    
       941 IM1H     48       IM1H     C1       CD33F     2.48500       11.6110           0  -1.18100       1.10000    
       942 IM1H     48       IM1H     DC1      DRUD     -2.66700      0.400000           0   0.00000       0.00000    
       943 IM1H     48       IM1H     H1       HDA3A    0.135000       1.00800           0   0.00000       0.00000    
       944 IM1H     48       IM1H     H2       HDA3A    0.135000       1.00800           0   0.00000       0.00000    
       945 IM1H     48       IM1H     H3       HDA3A    0.135000       1.00800           0   0.00000       0.00000    
       946 IM1H     48       IM1H     N1       ND2R5C    2.35720       13.6070           0 -0.803000       1.00000    
       947 IM1H     48       IM1H     DN1      DRUD     -2.19920      0.400000           0   0.00000       0.00000    
       948 IM1H     48       IM1H     C2       CD2R5D    2.44700       11.6110           0  -1.08300       1.10000    
       949 IM1H     48       IM1H     DC2      DRUD     -2.55400      0.400000           0   0.00000       0.00000    
       950 IM1H     48       IM1H     H4       HDR5D    0.195000       1.00800           0   0.00000       0.00000    
       951 IM1H     48       IM1H     C3       CD2R5D    2.50700       11.6110           0  -1.08300       1.10000    
       952 IM1H     48       IM1H     DC3      DRUD     -2.55400      0.400000           0   0.00000       0.00000    
       953 IM1H     48       IM1H     H5       HDR5D    0.192000       1.00800           0   0.00000       0.00000    
       954 IM1H     48       IM1H     C4       CD2R5E    2.72410       11.6110           0  -1.25300       1.20000    
       955 IM1H     48       IM1H     DC4      DRUD     -2.74710      0.400000           0   0.00000       0.00000    
       956 IM1H     48       IM1H     H6       HDR5E    0.203000       1.00800           0   0.00000       0.00000    
       957 IM1H     48       IM1H     N2       ND2R5C    2.04220       13.6070           0 -0.803000       1.00000    
       958 IM1H     48       IM1H     DN2      DRUD     -2.19920      0.400000           0   0.00000       0.00000    
       959 IM1H     48       IM1H     H7       HDP1A    0.363000       1.00800           0   0.00000       0.00000    
       960 IM1H     48       IM1H     LPN21    LPD       0.00000       0.00000          -1   0.00000       0.00000    
       961 IM1H     49       IM1H     C1       CD33F     2.48500       11.6110           0  -1.18100       1.10000    
       962 IM1H     49       IM1H     DC1      DRUD     -2.66700      0.400000           0   0.00000       0.00000    
       963 IM1H     49       IM1H     H1       HDA3A    0.135000       1.00800           0   0.00000       0.00000    
       964 IM1H     49       IM1H     H2       HDA3A    0.135000       1.00800           0   0.00000       0.00000    
       965 IM1H     49       IM1H     H3       HDA3A    0.135000       1.00800           0   0.00000       0.00000    
       966 IM1H     49       IM1H     N1       ND2R5C    2.35720       13.6070           0 -0.803000       1.00000    
       967 IM1H     49       IM1H     DN1      DRUD     -2.19920      0.400000           0   0.00000       0.00000    
       968 IM1H     49       IM1H     C2       CD2R5D    2.44700       11.6110           0  -1.08300       1.10000    
       969 IM1H     49       IM1H     DC2      DRUD     -2.55400      0.400000           0   0.00000       0.00000    
       970 IM1H     49       IM1H     H4       HDR5D    0.195000       1.00800           0   0.00000       0.00000    
       971 IM1H     49       IM1H     C3       CD2R5D    2.50700       11.6110           0  -1.08300       1.10000    
       972 IM1H     49       IM1H     DC3      DRUD     -2.55400      0.400000           0   0.00000       0.00000    
       973 IM1H     49       IM1H     H5       HDR5D    0.192000       1.00800           0   0.00000       0.00000    
       974 IM1H     49       IM1H     C4       CD2R5E    2.72410       11.6110           0  -1.25300       1.20000    
       975 IM1H     49       IM1H     DC4      DRUD     -2.74710      0.400000           0   0.00000       0.00000    
       976 IM1H     49       IM1H     H6       HDR5E    0.203000       1.00800           0   0.00000       0.00000    
       977 IM1H     49       IM1H     N2       ND2R5C    2.04220       13.6070           0 -0.803000       1.00000    
       978 IM1H     49       IM1H     DN2      DRUD     -2.19920      0.400000           0   0.00000       0.00000    
       979 IM1H     49       IM1H     H7       HDP1A    0.363000       1.00800           0   0.00000       0.00000    
       980 IM1H     49       IM1H     LPN21    LPD       0.00000       0.00000          -1   0.00000       0.00000    
       981 IM1H     50       IM1H     C1       CD33F     2.48500       11.6110           0  -1.18100       1.10000    
       982 IM1H     50       IM1H     DC1      DRUD     -2.66700      0.400000           0   0.00000       0.00000    
       983 IM1H     50       IM1H     H1       HDA3A    0.135000       1.00800           0   0.00000       0.00000    
       984 IM1H     50       IM1H     H2       HDA3A    0.135000       1.00800           0   0.00000       0.00000    
       985 IM1H     50       IM1H     H3       HDA3A    0.135000       1.00800           0   0.00000       0.00000    
       986 IM1H     50       IM1H     N1       ND2R5C    2.35720       13.6070           0 -0.803000       1.00000    
       987 IM1H     50       IM1H     DN1      DRUD     -2.19920      0.400000           0   0.00000       0.00000    
       988 IM1H     50       IM1H     C2       CD2R5D    2.44700       11.6110           0  -1.08300       1.10000    
       989 IM1H     50       IM1H     DC2      DRUD     -2.55400      0.400000           0   0.00000       0.00000    
       990 IM1H     50       IM1H     H4       HDR5D    0.195000       1.00800           0   0.00000       0.00000    
       991 IM1H     50       IM1H     C3       CD2R5D    2.50700       11.6110           0  -1.08300       1.10000    
       992 IM1H     50       IM1H     DC3      DRUD     -2.55400      0.400000           0   0.00000       0.00000    
       993 IM1H     50       IM1H     H5       HDR5D    0.192000       1.00800           0   0.00000       0.00000    
       994 IM1H     50       IM1H     C4       CD2R5E    2.72410       11.6110           0  -1.25300       1.20000    
       995 IM1H     50       IM1H     DC4      DRUD     -2.74710      0.400000           0   0.00000       0.00000    
       996 IM1H     50       IM1H     H6       HDR5E    0.203000       1.00800           0   0.00000       0.00000    
       997 IM1H     50       IM1H     N2       ND2R5C    2.04220       13.6070           0 -0.803000       1.00000    
       998 IM1H     50       IM1H     DN2      DRUD     -2.19920      0.400000           0   0.00000       0.00000    
       999 IM1H     50       IM1H     H7       HDP1A    0.363000       1.00800           0   0.00000       0.00000    
      1000 IM1H     50       IM1H     LPN21    LPD       0.00000       0.00000          -1   0.00000       0.00000    
      1001 IM1H     51       IM1H     C1       CD33F     2.48500       11.6110           0  -1.18100       1.10000    
      1002 IM1H     51       IM1H     DC1      DRUD     -2.66700      0.400000           0   0.00000       0.00000    
      1003 IM1H     51       IM1H     H1       HDA3A    0.135000       1.00800           0   0.00000       0.00000    
      1004 IM1H     51       IM1H     H2       HDA3A    0.135000       1.00800           0   0.00000       0.00000    
      1005 IM1H     51       IM1H     H3       HDA3A    0.135000       1.00800           0   0.00000       0.00000    
      1006 IM1H     51       IM1H     N1       ND2R5C    2.35720       13.6070           0 -0.803000       1.00000    
      1007 IM1H     51       IM1H     DN1      DRUD     -2.19920      0.400000           0   0.00000       0.00000    
      1008 IM1H     51       IM1H     C2       CD2R5D    2.44700       11.6110           0  -1.08300       1.10000    
      1009 IM1H     51       IM1H     DC2      DRUD     -2.55400      0.400000           0   0.00000       0.00000    
      1010 IM1H     51       IM1H     H4       HDR5D    0.195000       1.00800           0   0.00000       0.00000    
      1011 IM1H     51       IM1H     C3       CD2R5D    2.50700       11.6110           0  -1.08300       1.10000    
      1012 IM1H     51       IM1H     DC3      DRUD     -2.55400      0.400000           0   0.00000       0.00000    
      1013 IM1H     51       IM1H     H5       HDR5D    0.192000       1.00800           0   0.00000       0.00000    
      1014 IM1H     51       IM1H     C4       CD2R5E    2.72410       11.6110           0  -1.25300       1.20000    
      1015 IM1H     51       IM1H     DC4      DRUD     -2.74710      0.400000           0   0.00000       0.00000    
      1016 IM1H     51       IM1H     H6       HDR5E    0.203000       1.00800           0   0.00000       0.00000    
      1017 IM1H     51       IM1H     N2       ND2R5C    2.04220       13.6070           0 -0.803000       1.00000    
      1018 IM1H     51       IM1H     DN2      DRUD     -2.19920      0.400000           0   0.00000       0.00000    
      1019 IM1H     51       IM1H     H7       HDP1A    0.363000       1.00800           0   0.00000       0.00000    
      1020 IM1H     51       IM1H     LPN21    LPD       0.00000       0.00000          -1   0.00000       0.00000    
      1021 IM1H     52       IM1H     C1       CD33F     2.48500       11.6110           0  -1.18100       1.10000    
      1022 IM1H     52       IM1H     DC1      DRUD     -2.66700      0.400000           0   0.00000       0.00000    
      1023 IM1H     52       IM1H     H1       HDA3A    0.135000       1.00800           0   0.00000       0.00000    
      1024 IM1H     52       IM1H     H2       HDA3A    0.135000       1.00800           0   0.00000       0.00000    
      1025 IM1H     52       IM1H     H3       HDA3A    0.135000       1.00800           0   0.00000       0.00000    
      1026 IM1H     52       IM1H     N1       ND2R5C    2.35720       13.6070           0 -0.803000       1.00000    
      1027 IM1H     52       IM1H     DN1      DRUD     -2.19920      0.400000           0   0.00000       0.00000    
      1028 IM1H     52       IM1H     C2       CD2R5D    2.44700       11.6110           0  -1.08300       1.10000    
      1029 IM1H     52       IM1H     DC2      DRUD     -2.55400      0.400000           0   0.00000       0.00000    
      1030 IM1H     52       IM1H     H4       HDR5D    0.195000       1.00800           0   0.00000       0.00000    
      1031 IM1H     52       IM1H     C3       CD2R5D    2.50700       11.6110           0  -1.08300       1.10000    
      1032 IM1H     52       IM1H     DC3      DRUD     -2.55400      0.400000           0   0.00000       0.00000    
      1033 IM1H     52       IM1H     H5       HDR5D    0.192000       1.00800           0   0.00000       0.00000    
      1034 IM1H     52       IM1H     C4       CD2R5E    2.72410       11.6110           0  -1.25300       1.20000    
      1035 IM1H     52       IM1H     DC4      DRUD     -2.74710      0.400000           0   0.00000       0.00000    
      1036 IM1H     52       IM1H     H6       HDR5E    0.203000       1.00800           0   0.00000       0.00000    
      1037 IM1H     52       IM1H     N2       ND2R5C    2.04220       13.6070           0 -0.803000       1.00000    
      1038 IM1H     52       IM1H     DN2      DRUD     -2.19920      0.400000           0   0.00000       0.00000    
      1039 IM1H     52       IM1H     H7       HDP1A    0.363000       1.00800           0   0.00000       0.00000    
      1040 IM1H     52       IM1H     LPN21    LPD       0.00000       0.00000          -1   0.00000       0.00000    
      1041 IM1H     53       IM1H     C1       CD33F     2.48500       11.6110           0  -1.18100       1.10000    
      1042 IM1H     53       IM1H     DC1      DRUD     -2.66700      0.400000           0   0.00000       0.00000    
      1043 IM1H     53       IM1H     H1       HDA3A    0.135000       1.00800           0   0.00000       0.00000    
      1044 IM1H     53       IM1H     H2       HDA3A    0.135000       1.00800           0   0.00000       0.00000    
      1045 IM1H     53       IM1H     H3       HDA3A    0.135000       1.00800           0   0.00000       0.00000    
      1046 IM1H     53       IM1H     N1       ND2R5C    2.35720       13.6070           0 -0.803000       1.00000    
      1047 IM1H     53       IM1H     DN1      DRUD     -2.19920      0.400000           0   0.00000       0.00000    
      1048 IM1H     53       IM1H     C2       CD2R5D    2.44700       11.6110           0  -1.08300       1.10000    
      1049 IM1H     53       IM1H     DC2      DRUD     -2.55400      0.400000           0   0.00000       0.00000    
      1050 IM1H     53       IM1H     H4       HDR5D    0.195000       1.00800           0   0.00000       0.00000    
      1051 IM1H     53       IM1H     C3       CD2R5D    2.50700       11.6110           0  -1.08300       1.10000    
      1052 IM1H     53       IM1H     DC3      DRUD     -2.55400      0.400000           0   0.00000       0.00000    
      1053 IM1H     53       IM1H     H5       HDR5D    0.192000       1.00800           0   0.00000       0.00000    
      1054 IM1H     53       IM1H     C4       CD2R5E    2.72410       11.6110           0  -1.25300       1.20000    
      1055 IM1H     53       IM1H     DC4      DRUD     -2.74710      0.400000           0   0.00000       0.00000    
      1056 IM1H     53       IM1H     H6       HDR5E    0.203000       1.00800           0   0.00000       0.00000    
      1057 IM1H     53       IM1H     N2       ND2R5C    2.04220       13.6070           0 -0.803000       1.00000    
      1058 IM1H     53       IM1H     DN2      DRUD     -2.19920      0.400000           0   0.00000       0.00000    
      1059 IM1H     53       IM1H     H7       HDP1A    0.363000       1.00800           0   0.00000       0.00000    
      1060 IM1H     53       IM1H     LPN21    LPD       0.00000       0.00000          -1   0.00000       0.00000    
      1061 IM1H     54       IM1H     C1       CD33F     2.48500       11.6110           0  -1.18100       1.10000    
      1062 IM1H     54       IM1H     DC1      DRUD     -2.66700      0.400000           0   0.00000       0.00000    
      1063 IM1H     54       IM1H     H1       HDA3A    0.135000       1.00800           0   0.00000       0.00000    
      1064 IM1H     54       IM1H     H2       HDA3A    0.135000       1.00800           0   0.00000       0.00000    
      1065 IM1H     54       IM1H     H3       HDA3A    0.135000       1.00800           0   0.00000       0.00000    
      1066 IM1H     54       IM1H     N1       ND2R5C    2.35720       13.6070           0 -0.803000       1.00000    
      1067 IM1H     54       IM1H     DN1      DRUD     -2.19920      0.400000           0   0.00000       0.00000    
      1068 IM1H     54       IM1H     C2       CD2R5D    2.44700       11.6110           0  -1.08300       1.10000    
      1069 IM1H     54       IM1H     DC2      DRUD     -2.55400      0.400000           0   0.00000       0.00000    
      1070 IM1H     54       IM1H     H4       HDR5D    0.195000       1.00800           0   0.00000       0.00000    
      1071 IM1H     54       IM1H     C3       CD2R5D    2.50700       11.6110           0  -1.08300       1.10000    
      1072 IM1H     54       IM1H     DC3      DRUD     -2.55400      0.400000           0   0.00000       0.00000    
      1073 IM1H     54       IM1H     H5       HDR5D    0.192000       1.00800           0   0.00000       0.00000    
      1074 IM1H     54       IM1H     C4       CD2R5E    2.72410       11.6110           0  -1.25300       1.20000    
      1075 IM1H     54       IM1H     DC4      DRUD     -2.74710      0.400000           0   0.00000       0.00000    
      1076 IM1H     54       IM1H     H6       HDR5E    0.203000       1.00800           0   0.00000       0.00000    
      1077 IM1H     54       IM1H     N2       ND2R5C    2.04220       13.6070           0 -0.803000       1.00000    
      1078 IM1H     54       IM1H     DN2      DRUD     -2.19920      0.400000           0   0.00000       0.00000    
      1079 IM1H     54       IM1H     H7       HDP1A    0.363000       1.00800           0   0.00000       0.00000    
      1080 IM1H     54       IM1H     LPN21    LPD       0.00000       0.00000          -1   0.00000       0.00000    
      1081 IM1H     55       IM1H     C1       CD33F     2.48500       11.6110           0  -1.18100       1.10000    
      1082 IM1H     55       IM1H     DC1      DRUD     -2.66700      0.400000           0   0.00000       0.00000    
      1083 IM1H     55       IM1H     H1       HDA3A    0.135000       1.00800           0   0.00000       0.00000    
      1084 IM1H     55       IM1H     H2       HDA3A    0.135000       1.00800           0   0.00000       0.00000    
      1085 IM1H     55       IM1H     H3       HDA3A    0.135000       1.00800           0   0.00000       0.00000    
      1086 IM1H     55       IM1H     N1       ND2R5C    2.35720       13.6070           0 -0.803000       1.00000    
      1087 IM1H     55       IM1H     DN1      DRUD     -2.19920      0.400000           0   0.00000       0.00000    
      1088 IM1H     55       IM1H     C2       CD2R5D    2.44700       11.6110           0  -1.08300       1.10000    
      1089 IM1H     55       IM1H     DC2      DRUD     -2.55400      0.400000           0   0.00000       0.00000    
      1090 IM1H     55       IM1H     H4       HDR5D    0.195000       1.00800           0   0.00000       0.00000    
      1091 IM1H     55       IM1H     C3       CD2R5D    2.50700       11.6110           0  -1.08300       1.10000    
      1092 IM1H     55       IM1H     DC3      DRUD     -2.55400      0.400000           0   0.00000       0.00000    
      1093 IM1H     55       IM1H     H5       HDR5D    0.192000       1.00800           0   0.00000       0.00000    
      1094 IM1H     55       IM1H     C4       CD2R5E    2.72410       11.6110           0  -1.25300       1.20000    
      1095 IM1H     55       IM1H     DC4      DRUD     -2.74710      0.400000           0   0.00000       0.00000    
      1096 IM1H     55       IM1H     H6       HDR5E    0.203000       1.00800           0   0.00000       0.00000    
      1097 IM1H     55       IM1H     N2       ND2R5C    2.04220       13.6070           0 -0.803000       1.00000    
      1098 IM1H     55       IM1H     DN2      DRUD     -2.19920      0.400000           0   0.00000       0.00000    
      1099 IM1H     55       IM1H     H7       HDP1A    0.363000       1.00800           0   0.00000       0.00000    
      1100 IM1H     55       IM1H     LPN21    LPD       0.00000       0.00000          -1   0.00000       0.00000    
      1101 IM1H     56       IM1H     C1       CD33F     2.48500       11.6110           0  -1.18100       1.10000    
      1102 IM1H     56       IM1H     DC1      DRUD     -2.66700      0.400000           0   0.00000       0.00000    
      1103 IM1H     56       IM1H     H1       HDA3A    0.135000       1.00800           0   0.00000       0.00000    
      1104 IM1H     56       IM1H     H2       HDA3A    0.135000       1.00800           0   0.00000       0.00000    
      1105 IM1H     56       IM1H     H3       HDA3A    0.135000       1.00800           0   0.00000       0.00000    
      1106 IM1H     56       IM1H     N1       ND2R5C    2.35720       13.6070           0 -0.803000       1.00000    
      1107 IM1H     56       IM1H     DN1      DRUD     -2.19920      0.400000           0   0.00000       0.00000    
      1108 IM1H     56       IM1H     C2       CD2R5D    2.44700       11.6110           0  -1.08300       1.10000    
      1109 IM1H     56       IM1H     DC2      DRUD     -2.55400      0.400000           0   0.00000       0.00000    
      1110 IM1H     56       IM1H     H4       HDR5D    0.195000       1.00800           0   0.00000       0.00000    
      1111 IM1H     56       IM1H     C3       CD2R5D    2.50700       11.6110           0  -1.08300       1.10000    
      1112 IM1H     56       IM1H     DC3      DRUD     -2.55400      0.400000           0   0.00000       0.00000    
      1113 IM1H     56       IM1H     H5       HDR5D    0.192000       1.00800           0   0.00000       0.00000    
      1114 IM1H     56       IM1H     C4       CD2R5E    2.72410       11.6110           0  -1.25300       1.20000    
      1115 IM1H     56       IM1H     DC4      DRUD     -2.74710      0.400000           0   0.00000       0.00000    
      1116 IM1H     56       IM1H     H6       HDR5E    0.203000       1.00800           0   0.00000       0.00000    
      1117 IM1H     56       IM1H     N2       ND2R5C    2.04220       13.6070           0 -0.803000       1.00000    
      1118 IM1H     56       IM1H     DN2      DRUD     -2.19920      0.400000           0   0.00000       0.00000    
      1119 IM1H     56       IM1H     H7       HDP1A    0.363000       1.00800           0   0.00000       0.00000    
      1120 IM1H     56       IM1H     LPN21    LPD       0.00000       0.00000          -1   0.00000       0.00000    
      1121 IM1H     57       IM1H     C1       CD33F     2.48500       11.6110           0  -1.18100       1.10000    
      1122 IM1H     57       IM1H     DC1      DRUD     -2.66700      0.400000           0   0.00000       0.00000    
      1123 IM1H     57       IM1H     H1       HDA3A    0.135000       1.00800           0   0.00000       0.00000    
      1124 IM1H     57       IM1H     H2       HDA3A    0.135000       1.00800           0   0.00000       0.00000    
      1125 IM1H     57       IM1H     H3       HDA3A    0.135000       1.00800           0   0.00000       0.00000    
      1126 IM1H     57       IM1H     N1       ND2R5C    2.35720       13.6070           0 -0.803000       1.00000    
      1127 IM1H     57       IM1H     DN1      DRUD     -2.19920      0.400000           0   0.00000       0.00000    
      1128 IM1H     57       IM1H     C2       CD2R5D    2.44700       11.6110           0  -1.08300       1.10000    
      1129 IM1H     57       IM1H     DC2      DRUD     -2.55400      0.400000           0   0.00000       0.00000    
      1130 IM1H     57       IM1H     H4       HDR5D    0.195000       1.00800           0   0.00000       0.00000    
      1131 IM1H     57       IM1H     C3       CD2R5D    2.50700       11.6110           0  -1.08300       1.10000    
      1132 IM1H     57       IM1H     DC3      DRUD     -2.55400      0.400000           0   0.00000       0.00000    
      1133 IM1H     57       IM1H     H5       HDR5D    0.192000       1.00800           0   0.00000       0.00000    
      1134 IM1H     57       IM1H     C4       CD2R5E    2.72410       11.6110           0  -1.25300       1.20000    
      1135 IM1H     57       IM1H     DC4      DRUD     -2.74710      0.400000           0   0.00000       0.00000    
      1136 IM1H     57       IM1H     H6       HDR5E    0.203000       1.00800           0   0.00000       0.00000    
      1137 IM1H     57       IM1H     N2       ND2R5C    2.04220       13.6070           0 -0.803000       1.00000    
      1138 IM1H     57       IM1H     DN2      DRUD     -2.19920      0.400000           0   0.00000       0.00000    
      1139 IM1H     57       IM1H     H7       HDP1A    0.363000       1.00800           0   0.00000       0.00000    
      1140 IM1H     57       IM1H     LPN21    LPD       0.00000       0.00000          -1   0.00000       0.00000    
      1141 IM1H     58       IM1H     C1       CD33F     2.48500       11.6110           0  -1.18100       1.10000    
      1142 IM1H     58       IM1H     DC1      DRUD     -2.66700      0.400000           0   0.00000       0.00000    
      1143 IM1H     58       IM1H     H1       HDA3A    0.135000       1.00800           0   0.00000       0.00000    
      1144 IM1H     58       IM1H     H2       HDA3A    0.135000       1.00800           0   0.00000       0.00000    
      1145 IM1H     58       IM1H     H3       HDA3A    0.135000       1.00800           0   0.00000       0.00000    
      1146 IM1H     58       IM1H     N1       ND2R5C    2.35720       13.6070           0 -0.803000       1.00000    
      1147 IM1H     58       IM1H     DN1      DRUD     -2.19920      0.400000           0   0.00000       0.00000    
      1148 IM1H     58       IM1H     C2       CD2R5D    2.44700       11.6110           0  -1.08300       1.10000    
      1149 IM1H     58       IM1H     DC2      DRUD     -2.55400      0.400000           0   0.00000       0.00000    
      1150 IM1H     58       IM1H     H4       HDR5D    0.195000       1.00800           0   0.00000       0.00000    
      1151 IM1H     58       IM1H     C3       CD2R5D    2.50700       11.6110           0  -1.08300       1.10000    
      1152 IM1H     58       IM1H     DC3      DRUD     -2.55400      0.400000           0   0.00000       0.00000    
      1153 IM1H     58       IM1H     H5       HDR5D    0.192000       1.00800           0   0.00000       0.00000    
      1154 IM1H     58       IM1H     C4       CD2R5E    2.72410       11.6110           0  -1.25300       1.20000    
      1155 IM1H     58       IM1H     DC4      DRUD     -2.74710      0.400000           0   0.00000       0.00000    
      1156 IM1H     58       IM1H     H6       HDR5E    0.203000       1.00800           0   0.00000       0.00000    
      1157 IM1H     58       IM1H     N2       ND2R5C    2.04220       13.6070           0 -0.803000       1.00000    
      1158 IM1H     58       IM1H     DN2      DRUD     -2.19920      0.400000           0   0.00000       0.00000    
      1159 IM1H     58       IM1H     H7       HDP1A    0.363000       1.00800           0   0.00000       0.00000    
      1160 IM1H     58       IM1H     LPN21    LPD       0.00000       0.00000          -1   0.00000       0.00000    
      1161 IM1H     59       IM1H     C1       CD33F     2.48500       11.6110           0  -1.18100       1.10000    
      1162 IM1H     59       IM1H     DC1      DRUD     -2.66700      0.400000           0   0.00000       0.00000    
      1163 IM1H     59       IM1H     H1       HDA3A    0.135000       1.00800           0   0.00000       0.00000    
      1164 IM1H     59       IM1H     H2       HDA3A    0.135000       1.00800           0   0.00000       0.00000    
      1165 IM1H     59       IM1H     H3       HDA3A    0.135000       1.00800           0   0.00000       0.00000    
      1166 IM1H     59       IM1H     N1       ND2R5C    2.35720       13.6070           0 -0.803000       1.00000    
      1167 IM1H     59       IM1H     DN1      DRUD     -2.19920      0.400000           0   0.00000       0.00000    
      1168 IM1H     59       IM1H     C2       CD2R5D    2.44700       11.6110           0  -1.08300       1.10000    
      1169 IM1H     59       IM1H     DC2      DRUD     -2.55400      0.400000           0   0.00000       0.00000    
      1170 IM1H     59       IM1H     H4       HDR5D    0.195000       1.00800           0   0.00000       0.00000    
      1171 IM1H     59       IM1H     C3       CD2R5D    2.50700       11.6110           0  -1.08300       1.10000    
      1172 IM1H     59       IM1H     DC3      DRUD     -2.55400      0.400000           0   0.00000       0.00000    
      1173 IM1H     59       IM1H     H5       HDR5D    0.192000       1.00800           0   0.00000       0.00000    
      1174 IM1H     59       IM1H     C4       CD2R5E    2.72410       11.6110           0  -1.25300       1.20000    
      1175 IM1H     59       IM1H     DC4      DRUD     -2.74710      0.400000           0   0.00000       0.00000    
      1176 IM1H     59       IM1H     H6       HDR5E    0.203000       1.00800           0   0.00000       0.00000    
      1177 IM1H     59       IM1H     N2       ND2R5C    2.04220       13.6070           0 -0.803000       1.00000    
      1178 IM1H     59       IM1H     DN2      DRUD     -2.19920      0.400000           0   0.00000       0.00000    
      1179 IM1H     59       IM1H     H7       HDP1A    0.363000       1.00800           0   0.00000       0.00000    
      1180 IM1H     59       IM1H     LPN21    LPD       0.00000       0.00000          -1   0.00000       0.00000    
      1181 IM1H     60       IM1H     C1       CD33F     2.48500       11.6110           0  -1.18100       1.10000    
      1182 IM1H     60       IM1H     DC1      DRUD     -2.66700      0.400000           0   0.00000       0.00000    
      1183 IM1H     60       IM1H     H1       HDA3A    0.135000       1.00800           0   0.00000       0.00000    
      1184 IM1H     60       IM1H     H2       HDA3A    0.135000       1.00800           0   0.00000       0.00000    
      1185 IM1H     60       IM1H     H3       HDA3A    0.135000       1.00800           0   0.00000       0.00000    
      1186 IM1H     60       IM1H     N1       ND2R5C    2.35720       13.6070           0 -0.803000       1.00000    
      1187 IM1H     60       IM1H     DN1      DRUD     -2.19920      0.400000           0   0.00000       0.00000    
      1188 IM1H     60       IM1H     C2       CD2R5D    2.44700       11.6110           0  -1.08300       1.10000    
      1189 IM1H     60       IM1H     DC2      DRUD     -2.55400      0.400000           0   0.00000       0.00000    
      1190 IM1H     60       IM1H     H4       HDR5D    0.195000       1.00800           0   0.00000       0.00000    
      1191 IM1H     60       IM1H     C3       CD2R5D    2.50700       11.6110           0  -1.08300       1.10000    
      1192 IM1H     60       IM1H     DC3      DRUD     -2.55400      0.400000           0   0.00000       0.00000    
      1193 IM1H     60       IM1H     H5       HDR5D    0.192000       1.00800           0   0.00000       0.00000    
      1194 IM1H     60       IM1H     C4       CD2R5E    2.72410       11.6110           0  -1.25300       1.20000    
      1195 IM1H     60       IM1H     DC4      DRUD     -2.74710      0.400000           0   0.00000       0.00000    
      1196 IM1H     60       IM1H     H6       HDR5E    0.203000       1.00800           0   0.00000       0.00000    
      1197 IM1H     60       IM1H     N2       ND2R5C    2.04220       13.6070           0 -0.803000       1.00000    
      1198 IM1H     60       IM1H     DN2      DRUD     -2.19920      0.400000           0   0.00000       0.00000    
      1199 IM1H     60       IM1H     H7       HDP1A    0.363000       1.00800           0   0.00000       0.00000    
      1200 IM1H     60       IM1H     LPN21    LPD       0.00000       0.00000          -1   0.00000       0.00000    
      1201 IM1H     61       IM1H     C1       CD33F     2.48500       11.6110           0  -1.18100       1.10000    
      1202 IM1H     61       IM1H     DC1      DRUD     -2.66700      0.400000           0   0.00000       0.00000    
      1203 IM1H     61       IM1H     H1       HDA3A    0.135000       1.00800           0   0.00000       0.00000    
      1204 IM1H     61       IM1H     H2       HDA3A    0.135000       1.00800           0   0.00000       0.00000    
      1205 IM1H     61       IM1H     H3       HDA3A    0.135000       1.00800           0   0.00000       0.00000    
      1206 IM1H     61       IM1H     N1       ND2R5C    2.35720       13.6070           0 -0.803000       1.00000    
      1207 IM1H     61       IM1H     DN1      DRUD     -2.19920      0.400000           0   0.00000       0.00000    
      1208 IM1H     61       IM1H     C2       CD2R5D    2.44700       11.6110           0  -1.08300       1.10000    
      1209 IM1H     61       IM1H     DC2      DRUD     -2.55400      0.400000           0   0.00000       0.00000    
      1210 IM1H     61       IM1H     H4       HDR5D    0.195000       1.00800           0   0.00000       0.00000    
      1211 IM1H     61       IM1H     C3       CD2R5D    2.50700       11.6110           0  -1.08300       1.10000    
      1212 IM1H     61       IM1H     DC3      DRUD     -2.55400      0.400000           0   0.00000       0.00000    
      1213 IM1H     61       IM1H     H5       HDR5D    0.192000       1.00800           0   0.00000       0.00000    
      1214 IM1H     61       IM1H     C4       CD2R5E    2.72410       11.6110           0  -1.25300       1.20000    
      1215 IM1H     61       IM1H     DC4      DRUD     -2.74710      0.400000           0   0.00000       0.00000    
      1216 IM1H     61       IM1H     H6       HDR5E    0.203000       1.00800           0   0.00000       0.00000    
      1217 IM1H     61       IM1H     N2       ND2R5C    2.04220       13.6070           0 -0.803000       1.00000    
      1218 IM1H     61       IM1H     DN2      DRUD     -2.19920      0.400000           0   0.00000       0.00000    
      1219 IM1H     61       IM1H     H7       HDP1A    0.363000       1.00800           0   0.00000       0.00000    
      1220 IM1H     61       IM1H     LPN21    LPD       0.00000       0.00000          -1   0.00000       0.00000    
      1221 IM1H     62       IM1H     C1       CD33F     2.48500       11.6110           0  -1.18100       1.10000    
      1222 IM1H     62       IM1H     DC1      DRUD     -2.66700      0.400000           0   0.00000       0.00000    
      1223 IM1H     62       IM1H     H1       HDA3A    0.135000       1.00800           0   0.00000       0.00000    
      1224 IM1H     62       IM1H     H2       HDA3A    0.135000       1.00800           0   0.00000       0.00000    
      1225 IM1H     62       IM1H     H3       HDA3A    0.135000       1.00800           0   0.00000       0.00000    
      1226 IM1H     62       IM1H     N1       ND2R5C    2.35720       13.6070           0 -0.803000       1.00000    
      1227 IM1H     62       IM1H     DN1      DRUD     -2.19920      0.400000           0   0.00000       0.00000    
      1228 IM1H     62       IM1H     C2       CD2R5D    2.44700       11.6110           0  -1.08300       1.10000    
      1229 IM1H     62       IM1H     DC2      DRUD     -2.55400      0.400000           0   0.00000       0.00000    
      1230 IM1H     62       IM1H     H4       HDR5D    0.195000       1.00800           0   0.00000       0.00000    
      1231 IM1H     62       IM1H     C3       CD2R5D    2.50700       11.6110           0  -1.08300       1.10000    
      1232 IM1H     62       IM1H     DC3      DRUD     -2.55400      0.400000           0   0.00000       0.00000    
      1233 IM1H     62       IM1H     H5       HDR5D    0.192000       1.00800           0   0.00000       0.00000    
      1234 IM1H     62       IM1H     C4       CD2R5E    2.72410       11.6110           0  -1.25300       1.20000    
      1235 IM1H     62       IM1H     DC4      DRUD     -2.74710      0.400000           0   0.00000       0.00000    
      1236 IM1H     62       IM1H     H6       HDR5E    0.203000       1.00800           0   0.00000       0.00000    
      1237 IM1H     62       IM1H     N2       ND2R5C    2.04220       13.6070           0 -0.803000       1.00000    
      1238 IM1H     62       IM1H     DN2      DRUD     -2.19920      0.400000           0   0.00000       0.00000    
      1239 IM1H     62       IM1H     H7       HDP1A    0.363000       1.00800           0   0.00000       0.00000    
      1240 IM1H     62       IM1H     LPN21    LPD       0.00000       0.00000          -1   0.00000       0.00000    
      1241 IM1H     63       IM1H     C1       CD33F     2.48500       11.6110           0  -1.18100       1.10000    
      1242 IM1H     63       IM1H     DC1      DRUD     -2.66700      0.400000           0   0.00000       0.00000    
      1243 IM1H     63       IM1H     H1       HDA3A    0.135000       1.00800           0   0.00000       0.00000    
      1244 IM1H     63       IM1H     H2       HDA3A    0.135000       1.00800           0   0.00000       0.00000    
      1245 IM1H     63       IM1H     H3       HDA3A    0.135000       1.00800           0   0.00000       0.00000    
      1246 IM1H     63       IM1H     N1       ND2R5C    2.35720       13.6070           0 -0.803000       1.00000    
      1247 IM1H     63       IM1H     DN1      DRUD     -2.19920      0.400000           0   0.00000       0.00000    
      1248 IM1H     63       IM1H     C2       CD2R5D    2.44700       11.6110           0  -1.08300       1.10000    
      1249 IM1H     63       IM1H     DC2      DRUD     -2.55400      0.400000           0   0.00000       0.00000    
      1250 IM1H     63       IM1H     H4       HDR5D    0.195000       1.00800           0   0.00000       0.00000    
      1251 IM1H     63       IM1H     C3       CD2R5D    2.50700       11.6110           0  -1.08300       1.10000    
      1252 IM1H     63       IM1H     DC3      DRUD     -2.55400      0.400000           0   0.00000       0.00000    
      1253 IM1H     63       IM1H     H5       HDR5D    0.192000       1.00800           0   0.00000       0.00000    
      1254 IM1H     63       IM1H     C4       CD2R5E    2.72410       11.6110           0  -1.25300       1.20000    
      1255 IM1H     63       IM1H     DC4      DRUD     -2.74710      0.400000           0   0.00000       0.00000    
      1256 IM1H     63       IM1H     H6       HDR5E    0.203000       1.00800           0   0.00000       0.00000    
      1257 IM1H     63       IM1H     N2       ND2R5C    2.04220       13.6070           0 -0.803000       1.00000    
      1258 IM1H     63       IM1H     DN2      DRUD     -2.19920      0.400000           0   0.00000       0.00000    
      1259 IM1H     63       IM1H     H7       HDP1A    0.363000       1.00800           0   0.00000       0.00000    
      1260 IM1H     63       IM1H     LPN21    LPD       0.00000       0.00000          -1   0.00000       0.00000    
      1261 IM1H     64       IM1H     C1       CD33F     2.48500       11.6110           0  -1.18100       1.10000    
      1262 IM1H     64       IM1H     DC1      DRUD     -2.66700      0.400000           0   0.00000       0.00000    
      1263 IM1H     64       IM1H     H1       HDA3A    0.135000       1.00800           0   0.00000       0.00000    
      1264 IM1H     64       IM1H     H2       HDA3A    0.135000       1.00800           0   0.00000       0.00000    
      1265 IM1H     64       IM1H     H3       HDA3A    0.135000       1.00800           0   0.00000       0.00000    
      1266 IM1H     64       IM1H     N1       ND2R5C    2.35720       13.6070           0 -0.803000       1.00000    
      1267 IM1H     64       IM1H     DN1      DRUD     -2.19920      0.400000           0   0.00000       0.00000    
      1268 IM1H     64       IM1H     C2       CD2R5D    2.44700       11.6110           0  -1.08300       1.10000    
      1269 IM1H     64       IM1H     DC2      DRUD     -2.55400      0.400000           0   0.00000       0.00000    
      1270 IM1H     64       IM1H     H4       HDR5D    0.195000       1.00800           0   0.00000       0.00000    
      1271 IM1H     64       IM1H     C3       CD2R5D    2.50700       11.6110           0  -1.08300       1.10000    
      1272 IM1H     64       IM1H     DC3      DRUD     -2.55400      0.400000           0   0.00000       0.00000    
      1273 IM1H     64       IM1H     H5       HDR5D    0.192000       1.00800           0   0.00000       0.00000    
      1274 IM1H     64       IM1H     C4       CD2R5E    2.72410       11.6110           0  -1.25300       1.20000    
      1275 IM1H     64       IM1H     DC4      DRUD     -2.74710      0.400000           0   0.00000       0.00000    
      1276 IM1H     64       IM1H     H6       HDR5E    0.203000       1.00800           0   0.00000       0.00000    
      1277 IM1H     64       IM1H     N2       ND2R5C    2.04220       13.6070           0 -0.803000       1.00000    
      1278 IM1H     64       IM1H     DN2      DRUD     -2.19920      0.400000           0   0.00000       0.00000    
      1279 IM1H     64       IM1H     H7       HDP1A    0.363000       1.00800           0   0.00000       0.00000    
      1280 IM1H     64       IM1H     LPN21    LPD       0.00000       0.00000          -1   0.00000       0.00000    
      1281 IM1H     65       IM1H     C1       CD33F     2.48500       11.6110           0  -1.18100       1.10000    
      1282 IM1H     65       IM1H     DC1      DRUD     -2.66700      0.400000           0   0.00000       0.00000    
      1283 IM1H     65       IM1H     H1       HDA3A    0.135000       1.00800           0   0.00000       0.00000    
      1284 IM1H     65       IM1H     H2       HDA3A    0.135000       1.00800           0   0.00000       0.00000    
      1285 IM1H     65       IM1H     H3       HDA3A    0.135000       1.00800           0   0.00000       0.00000    
      1286 IM1H     65       IM1H     N1       ND2R5C    2.35720       13.6070           0 -0.803000       1.00000    
      1287 IM1H     65       IM1H     DN1      DRUD     -2.19920      0.400000           0   0.00000       0.00000    
      1288 IM1H     65       IM1H     C2       CD2R5D    2.44700       11.6110           0  -1.08300       1.10000    
      1289 IM1H     65       IM1H     DC2      DRUD     -2.55400      0.400000           0   0.00000       0.00000    
      1290 IM1H     65       IM1H     H4       HDR5D    0.195000       1.00800           0   0.00000       0.00000    
      1291 IM1H     65       IM1H     C3       CD2R5D    2.50700       11.6110           0  -1.08300       1.10000    
      1292 IM1H     65       IM1H     DC3      DRUD     -2.55400      0.400000           0   0.00000       0.00000    
      1293 IM1H     65       IM1H     H5       HDR5D    0.192000       1.00800           0   0.00000       0.00000    
      1294 IM1H     65       IM1H     C4       CD2R5E    2.72410       11.6110           0  -1.25300       1.20000    
      1295 IM1H     65       IM1H     DC4      DRUD     -2.74710      0.400000           0   0.00000       0.00000    
      1296 IM1H     65       IM1H     H6       HDR5E    0.203000       1.00800           0   0.00000       0.00000    
      1297 IM1H     65       IM1H     N2       ND2R5C    2.04220       13.6070           0 -0.803000       1.00000    
      1298 IM1H     65       IM1H     DN2      DRUD     -2.19920      0.400000           0   0.00000       0.00000    
      1299 IM1H     65       IM1H     H7       HDP1A    0.363000       1.00800           0   0.00000       0.00000    
      1300 IM1H     65       IM1H     LPN21    LPD       0.00000       0.00000          -1   0.00000       0.00000    
      1301 IM1H     66       IM1H     C1       CD33F     2.48500       11.6110           0  -1.18100       1.10000    
      1302 IM1H     66       IM1H     DC1      DRUD     -2.66700      0.400000           0   0.00000       0.00000    
      1303 IM1H     66       IM1H     H1       HDA3A    0.135000       1.00800           0   0.00000       0.00000    
      1304 IM1H     66       IM1H     H2       HDA3A    0.135000       1.00800           0   0.00000       0.00000    
      1305 IM1H     66       IM1H     H3       HDA3A    0.135000       1.00800           0   0.00000       0.00000    
      1306 IM1H     66       IM1H     N1       ND2R5C    2.35720       13.6070           0 -0.803000       1.00000    
      1307 IM1H     66       IM1H     DN1      DRUD     -2.19920      0.400000           0   0.00000       0.00000    
      1308 IM1H     66       IM1H     C2       CD2R5D    2.44700       11.6110           0  -1.08300       1.10000    
      1309 IM1H     66       IM1H     DC2      DRUD     -2.55400      0.400000           0   0.00000       0.00000    
      1310 IM1H     66       IM1H     H4       HDR5D    0.195000       1.00800           0   0.00000       0.00000    
      1311 IM1H     66       IM1H     C3       CD2R5D    2.50700       11.6110           0  -1.08300       1.10000    
      1312 IM1H     66       IM1H     DC3      DRUD     -2.55400      0.400000           0   0.00000       0.00000    
      1313 IM1H     66       IM1H     H5       HDR5D    0.192000       1.00800           0   0.00000       0.00000    
      1314 IM1H     66       IM1H     C4       CD2R5E    2.72410       11.6110           0  -1.25300       1.20000    
      1315 IM1H     66       IM1H     DC4      DRUD     -2.74710      0.400000           0   0.00000       0.00000    
      1316 IM1H     66       IM1H     H6       HDR5E    0.203000       1.00800           0   0.00000       0.00000    
      1317 IM1H     66       IM1H     N2       ND2R5C    2.04220       13.6070           0 -0.803000       1.00000    
      1318 IM1H     66       IM1H     DN2      DRUD     -2.19920      0.400000           0   0.00000       0.00000    
      1319 IM1H     66       IM1H     H7       HDP1A    0.363000       1.00800           0   0.00000       0.00000    
      1320 IM1H     66       IM1H     LPN21    LPD       0.00000       0.00000          -1   0.00000       0.00000    
      1321 IM1H     67       IM1H     C1       CD33F     2.48500       11.6110           0  -1.18100       1.10000    
      1322 IM1H     67       IM1H     DC1      DRUD     -2.66700      0.400000           0   0.00000       0.00000    
      1323 IM1H     67       IM1H     H1       HDA3A    0.135000       1.00800           0   0.00000       0.00000    
      1324 IM1H     67       IM1H     H2       HDA3A    0.135000       1.00800           0   0.00000       0.00000    
      1325 IM1H     67       IM1H     H3       HDA3A    0.135000       1.00800           0   0.00000       0.00000    
      1326 IM1H     67       IM1H     N1       ND2R5C    2.35720       13.6070           0 -0.803000       1.00000    
      1327 IM1H     67       IM1H     DN1      DRUD     -2.19920      0.400000           0   0.00000       0.00000    
      1328 IM1H     67       IM1H     C2       CD2R5D    2.44700       11.6110           0  -1.08300       1.10000    
      1329 IM1H     67       IM1H     DC2      DRUD     -2.55400      0.400000           0   0.00000       0.00000    
      1330 IM1H     67       IM1H     H4       HDR5D    0.195000       1.00800           0   0.00000       0.00000    
      1331 IM1H     67       IM1H     C3       CD2R5D    2.50700       11.6110           0  -1.08300       1.10000    
      1332 IM1H     67       IM1H     DC3      DRUD     -2.55400      0.400000           0   0.00000       0.00000    
      1333 IM1H     67       IM1H     H5       HDR5D    0.192000       1.00800           0   0.00000       0.00000    
      1334 IM1H     67       IM1H     C4       CD2R5E    2.72410       11.6110           0  -1.25300       1.20000    
      1335 IM1H     67       IM1H     DC4      DRUD     -2.74710      0.400000           0   0.00000       0.00000    
      1336 IM1H     67       IM1H     H6       HDR5E    0.203000       1.00800           0   0.00000       0.00000    
      1337 IM1H     67       IM1H     N2       ND2R5C    2.04220       13.6070           0 -0.803000       1.00000    
      1338 IM1H     67       IM1H     DN2      DRUD     -2.19920      0.400000           0   0.00000       0.00000    
      1339 IM1H     67       IM1H     H7       HDP1A    0.363000       1.00800           0   0.00000       0.00000    
      1340 IM1H     67       IM1H     LPN21    LPD       0.00000       0.00000          -1   0.00000       0.00000    
      1341 IM1H     68       IM1H     C1       CD33F     2.48500       11.6110           0  -1.18100       1.10000    
      1342 IM1H     68       IM1H     DC1      DRUD     -2.66700      0.400000           0   0.00000       0.00000    
      1343 IM1H     68       IM1H     H1       HDA3A    0.135000       1.00800           0   0.00000       0.00000    
      1344 IM1H     68       IM1H     H2       HDA3A    0.135000       1.00800           0   0.00000       0.00000    
      1345 IM1H     68       IM1H     H3       HDA3A    0.135000       1.00800           0   0.00000       0.00000    
      1346 IM1H     68       IM1H     N1       ND2R5C    2.35720       13.6070           0 -0.803000       1.00000    
      1347 IM1H     68       IM1H     DN1      DRUD     -2.19920      0.400000           0   0.00000       0.00000    
      1348 IM1H     68       IM1H     C2       CD2R5D    2.44700       11.6110           0  -1.08300       1.10000    
      1349 IM1H     68       IM1H     DC2      DRUD     -2.55400      0.400000           0   0.00000       0.00000    
      1350 IM1H     68       IM1H     H4       HDR5D    0.195000       1.00800           0   0.00000       0.00000    
      1351 IM1H     68       IM1H     C3       CD2R5D    2.50700       11.6110           0  -1.08300       1.10000    
      1352 IM1H     68       IM1H     DC3      DRUD     -2.55400      0.400000           0   0.00000       0.00000    
      1353 IM1H     68       IM1H     H5       HDR5D    0.192000       1.00800           0   0.00000       0.00000    
      1354 IM1H     68       IM1H     C4       CD2R5E    2.72410       11.6110           0  -1.25300       1.20000    
      1355 IM1H     68       IM1H     DC4      DRUD     -2.74710      0.400000           0   0.00000       0.00000    
      1356 IM1H     68       IM1H     H6       HDR5E    0.203000       1.00800           0   0.00000       0.00000    
      1357 IM1H     68       IM1H     N2       ND2R5C    2.04220       13.6070           0 -0.803000       1.00000    
      1358 IM1H     68       IM1H     DN2      DRUD     -2.19920      0.400000           0   0.00000       0.00000    
      1359 IM1H     68       IM1H     H7       HDP1A    0.363000       1.00800           0   0.00000       0.00000    
      1360 IM1H     68       IM1H     LPN21    LPD       0.00000       0.00000          -1   0.00000       0.00000    
      1361 IM1H     69       IM1H     C1       CD33F     2.48500       11.6110           0  -1.18100       1.10000    
      1362 IM1H     69       IM1H     DC1      DRUD     -2.66700      0.400000           0   0.00000       0.00000    
      1363 IM1H     69       IM1H     H1       HDA3A    0.135000       1.00800           0   0.00000       0.00000    
      1364 IM1H     69       IM1H     H2       HDA3A    0.135000       1.00800           0   0.00000       0.00000    
      1365 IM1H     69       IM1H     H3       HDA3A    0.135000       1.00800           0   0.00000       0.00000    
      1366 IM1H     69       IM1H     N1       ND2R5C    2.35720       13.6070           0 -0.803000       1.00000    
      1367 IM1H     69       IM1H     DN1      DRUD     -2.19920      0.400000           0   0.00000       0.00000    
      1368 IM1H     69       IM1H     C2       CD2R5D    2.44700       11.6110           0  -1.08300       1.10000    
      1369 IM1H     69       IM1H     DC2      DRUD     -2.55400      0.400000           0   0.00000       0.00000    
      1370 IM1H     69       IM1H     H4       HDR5D    0.195000       1.00800           0   0.00000       0.00000    
      1371 IM1H     69       IM1H     C3       CD2R5D    2.50700       11.6110           0  -1.08300       1.10000    
      1372 IM1H     69       IM1H     DC3      DRUD     -2.55400      0.400000           0   0.00000       0.00000    
      1373 IM1H     69       IM1H     H5       HDR5D    0.192000       1.00800           0   0.00000       0.00000    
      1374 IM1H     69       IM1H     C4       CD2R5E    2.72410       11.6110           0  -1.25300       1.20000    
      1375 IM1H     69       IM1H     DC4      DRUD     -2.74710      0.400000           0   0.00000       0.00000    
      1376 IM1H     69       IM1H     H6       HDR5E    0.203000       1.00800           0   0.00000       0.00000    
      1377 IM1H     69       IM1H     N2       ND2R5C    2.04220       13.6070           0 -0.803000       1.00000    
      1378 IM1H     69       IM1H     DN2      DRUD     -2.19920      0.400000           0   0.00000       0.00000    
      1379 IM1H     69       IM1H     H7       HDP1A    0.363000       1.00800           0   0.00000       0.00000    
      1380 IM1H     69       IM1H     LPN21    LPD       0.00000       0.00000          -1   0.00000       0.00000    
      1381 IM1H     70       IM1H     C1       CD33F     2.48500       11.6110           0  -1.18100       1.10000    
      1382 IM1H     70       IM1H     DC1      DRUD     -2.66700      0.400000           0   0.00000       0.00000    
      1383 IM1H     70       IM1H     H1       HDA3A    0.135000       1.00800           0   0.00000       0.00000    
      1384 IM1H     70       IM1H     H2       HDA3A    0.135000       1.00800           0   0.00000       0.00000    
      1385 IM1H     70       IM1H     H3       HDA3A    0.135000       1.00800           0   0.00000       0.00000    
      1386 IM1H     70       IM1H     N1       ND2R5C    2.35720       13.6070           0 -0.803000       1.00000    
      1387 IM1H     70       IM1H     DN1      DRUD     -2.19920      0.400000           0   0.00000       0.00000    
      1388 IM1H     70       IM1H     C2       CD2R5D    2.44700       11.6110           0  -1.08300       1.10000    
      1389 IM1H     70       IM1H     DC2      DRUD     -2.55400      0.400000           0   0.00000       0.00000    
      1390 IM1H     70       IM1H     H4       HDR5D    0.195000       1.00800           0   0.00000       0.00000    
      1391 IM1H     70       IM1H     C3       CD2R5D    2.50700       11.6110           0  -1.08300       1.10000    
      1392 IM1H     70       IM1H     DC3      DRUD     -2.55400      0.400000           0   0.00000       0.00000    
      1393 IM1H     70       IM1H     H5       HDR5D    0.192000       1.00800           0   0.00000       0.00000    
      1394 IM1H     70       IM1H     C4       CD2R5E    2.72410       11.6110           0  -1.25300       1.20000    
      1395 IM1H     70       IM1H     DC4      DRUD     -2.74710      0.400000           0   0.00000       0.00000    
      1396 IM1H     70       IM1H     H6       HDR5E    0.203000       1.00800           0   0.00000       0.00000    
      1397 IM1H     70       IM1H     N2       ND2R5C    2.04220       13.6070           0 -0.803000       1.00000    
      1398 IM1H     70       IM1H     DN2      DRUD     -2.19920      0.400000           0   0.00000       0.00000    
      1399 IM1H     70       IM1H     H7       HDP1A    0.363000       1.00800           0   0.00000       0.00000    
      1400 IM1H     70       IM1H     LPN21    LPD       0.00000       0.00000          -1   0.00000       0.00000    
      1401 IM1H     71       IM1H     C1       CD33F     2.48500       11.6110           0  -1.18100       1.10000    
      1402 IM1H     71       IM1H     DC1      DRUD     -2.66700      0.400000           0   0.00000       0.00000    
      1403 IM1H     71       IM1H     H1       HDA3A    0.135000       1.00800           0   0.00000       0.00000    
      1404 IM1H     71       IM1H     H2       HDA3A    0.135000       1.00800           0   0.00000       0.00000    
      1405 IM1H     71       IM1H     H3       HDA3A    0.135000       1.00800           0   0.00000       0.00000    
      1406 IM1H     71       IM1H     N1       ND2R5C    2.35720       13.6070           0 -0.803000       1.00000    
      1407 IM1H     71       IM1H     DN1      DRUD     -2.19920      0.400000           0   0.00000       0.00000    
      1408 IM1H     71       IM1H     C2       CD2R5D    2.44700       11.6110           0  -1.08300       1.10000    
      1409 IM1H     71       IM1H     DC2      DRUD     -2.55400      0.400000           0   0.00000       0.00000    
      1410 IM1H     71       IM1H     H4       HDR5D    0.195000       1.00800           0   0.00000       0.00000    
      1411 IM1H     71       IM1H     C3       CD2R5D    2.50700       11.6110           0  -1.08300       1.10000    
      1412 IM1H     71       IM1H     DC3      DRUD     -2.55400      0.400000           0   0.00000       0.00000    
      1413 IM1H     71       IM1H     H5       HDR5D    0.192000       1.00800           0   0.00000       0.00000    
      1414 IM1H     71       IM1H     C4       CD2R5E    2.72410       11.6110           0  -1.25300       1.20000    
      1415 IM1H     71       IM1H     DC4      DRUD     -2.74710      0.400000           0   0.00000       0.00000    
      1416 IM1H     71       IM1H     H6       HDR5E    0.203000       1.00800           0   0.00000       0.00000    
      1417 IM1H     71       IM1H     N2       ND2R5C    2.04220       13.6070           0 -0.803000       1.00000    
      1418 IM1H     71       IM1H     DN2      DRUD     -2.19920      0.400000           0   0.00000       0.00000    
      1419 IM1H     71       IM1H     H7       HDP1A    0.363000       1.00800           0   0.00000       0.00000    
      1420 IM1H     71       IM1H     LPN21    LPD       0.00000       0.00000          -1   0.00000       0.00000    
      1421 IM1H     72       IM1H     C1       CD33F     2.48500       11.6110           0  -1.18100       1.10000    
      1422 IM1H     72       IM1H     DC1      DRUD     -2.66700      0.400000           0   0.00000       0.00000    
      1423 IM1H     72       IM1H     H1       HDA3A    0.135000       1.00800           0   0.00000       0.00000    
      1424 IM1H     72       IM1H     H2       HDA3A    0.135000       1.00800           0   0.00000       0.00000    
      1425 IM1H     72       IM1H     H3       HDA3A    0.135000       1.00800           0   0.00000       0.00000    
      1426 IM1H     72       IM1H     N1       ND2R5C    2.35720       13.6070           0 -0.803000       1.00000    
      1427 IM1H     72       IM1H     DN1      DRUD     -2.19920      0.400000           0   0.00000       0.00000    
      1428 IM1H     72       IM1H     C2       CD2R5D    2.44700       11.6110           0  -1.08300       1.10000    
      1429 IM1H     72       IM1H     DC2      DRUD     -2.55400      0.400000           0   0.00000       0.00000    
      1430 IM1H     72       IM1H     H4       HDR5D    0.195000       1.00800           0   0.00000       0.00000    
      1431 IM1H     72       IM1H     C3       CD2R5D    2.50700       11.6110           0  -1.08300       1.10000    
      1432 IM1H     72       IM1H     DC3      DRUD     -2.55400      0.400000           0   0.00000       0.00000    
      1433 IM1H     72       IM1H     H5       HDR5D    0.192000       1.00800           0   0.00000       0.00000    
      1434 IM1H     72       IM1H     C4       CD2R5E    2.72410       11.6110           0  -1.25300       1.20000    
      1435 IM1H     72       IM1H     DC4      DRUD     -2.74710      0.400000           0   0.00000       0.00000    
      1436 IM1H     72       IM1H     H6       HDR5E    0.203000       1.00800           0   0.00000       0.00000    
      1437 IM1H     72       IM1H     N2       ND2R5C    2.04220       13.6070           0 -0.803000       1.00000    
      1438 IM1H     72       IM1H     DN2      DRUD     -2.19920      0.400000           0   0.00000       0.00000    
      1439 IM1H     72       IM1H     H7       HDP1A    0.363000       1.00800           0   0.00000       0.00000    
      1440 IM1H     72       IM1H     LPN21    LPD       0.00000       0.00000          -1   0.00000       0.00000    
      1441 IM1H     73       IM1H     C1       CD33F     2.48500       11.6110           0  -1.18100       1.10000    
      1442 IM1H     73       IM1H     DC1      DRUD     -2.66700      0.400000           0   0.00000       0.00000    
      1443 IM1H     73       IM1H     H1       HDA3A    0.135000       1.00800           0   0.00000       0.00000    
      1444 IM1H     73       IM1H     H2       HDA3A    0.135000       1.00800           0   0.00000       0.00000    
      1445 IM1H     73       IM1H     H3       HDA3A    0.135000       1.00800           0   0.00000       0.00000    
      1446 IM1H     73       IM1H     N1       ND2R5C    2.35720       13.6070           0 -0.803000       1.00000    
      1447 IM1H     73       IM1H     DN1      DRUD     -2.19920      0.400000           0   0.00000       0.00000    
      1448 IM1H     73       IM1H     C2       CD2R5D    2.44700       11.6110           0  -1.08300       1.10000    
      1449 IM1H     73       IM1H     DC2      DRUD     -2.55400      0.400000           0   0.00000       0.00000    
      1450 IM1H     73       IM1H     H4       HDR5D    0.195000       1.00800           0   0.00000       0.00000    
      1451 IM1H     73       IM1H     C3       CD2R5D    2.50700       11.6110           0  -1.08300       1.10000    
      1452 IM1H     73       IM1H     DC3      DRUD     -2.55400      0.400000           0   0.00000       0.00000    
      1453 IM1H     73       IM1H     H5       HDR5D    0.192000       1.00800           0   0.00000       0.00000    
      1454 IM1H     73       IM1H     C4       CD2R5E    2.72410       11.6110           0  -1.25300       1.20000    
      1455 IM1H     73       IM1H     DC4      DRUD     -2.74710      0.400000           0   0.00000       0.00000    
      1456 IM1H     73       IM1H     H6       HDR5E    0.203000       1.00800           0   0.00000       0.00000    
      1457 IM1H     73       IM1H     N2       ND2R5C    2.04220       13.6070           0 -0.803000       1.00000    
      1458 IM1H     73       IM1H     DN2      DRUD     -2.19920      0.400000           0   0.00000       0.00000    
      1459 IM1H     73       IM1H     H7       HDP1A    0.363000       1.00800           0   0.00000       0.00000    
      1460 IM1H     73       IM1H     LPN21    LPD       0.00000       0.00000          -1   0.00000       0.00000    
      1461 IM1H     74       IM1H     C1       CD33F     2.48500       11.6110           0  -1.18100       1.10000    
      1462 IM1H     74       IM1H     DC1      DRUD     -2.66700      0.400000           0   0.00000       0.00000    
      1463 IM1H     74       IM1H     H1       HDA3A    0.135000       1.00800           0   0.00000       0.00000    
      1464 IM1H     74       IM1H     H2       HDA3A    0.135000       1.00800           0   0.00000       0.00000    
      1465 IM1H     74       IM1H     H3       HDA3A    0.135000       1.00800           0   0.00000       0.00000    
      1466 IM1H     74       IM1H     N1       ND2R5C    2.35720       13.6070           0 -0.803000       1.00000    
      1467 IM1H     74       IM1H     DN1      DRUD     -2.19920      0.400000           0   0.00000       0.00000    
      1468 IM1H     74       IM1H     C2       CD2R5D    2.44700       11.6110           0  -1.08300       1.10000    
      1469 IM1H     74       IM1H     DC2      DRUD     -2.55400      0.400000           0   0.00000       0.00000    
      1470 IM1H     74       IM1H     H4       HDR5D    0.195000       1.00800           0   0.00000       0.00000    
      1471 IM1H     74       IM1H     C3       CD2R5D    2.50700       11.6110           0  -1.08300       1.10000    
      1472 IM1H     74       IM1H     DC3      DRUD     -2.55400      0.400000           0   0.00000       0.00000    
      1473 IM1H     74       IM1H     H5       HDR5D    0.192000       1.00800           0   0.00000       0.00000    
      1474 IM1H     74       IM1H     C4       CD2R5E    2.72410       11.6110           0  -1.25300       1.20000    
      1475 IM1H     74       IM1H     DC4      DRUD     -2.74710      0.400000           0   0.00000       0.00000    
      1476 IM1H     74       IM1H     H6       HDR5E    0.203000       1.00800           0   0.00000       0.00000    
      1477 IM1H     74       IM1H     N2       ND2R5C    2.04220       13.6070           0 -0.803000       1.00000    
      1478 IM1H     74       IM1H     DN2      DRUD     -2.19920      0.400000           0   0.00000       0.00000    
      1479 IM1H     74       IM1H     H7       HDP1A    0.363000       1.00800           0   0.00000       0.00000    
      1480 IM1H     74       IM1H     LPN21    LPD       0.00000       0.00000          -1   0.00000       0.00000    
      1481 IM1H     75       IM1H     C1       CD33F     2.48500       11.6110           0  -1.18100       1.10000    
      1482 IM1H     75       IM1H     DC1      DRUD     -2.66700      0.400000           0   0.00000       0.00000    
      1483 IM1H     75       IM1H     H1       HDA3A    0.135000       1.00800           0   0.00000       0.00000    
      1484 IM1H     75       IM1H     H2       HDA3A    0.135000       1.00800           0   0.00000       0.00000    
      1485 IM1H     75       IM1H     H3       HDA3A    0.135000       1.00800           0   0.00000       0.00000    
      1486 IM1H     75       IM1H     N1       ND2R5C    2.35720       13.6070           0 -0.803000       1.00000    
      1487 IM1H     75       IM1H     DN1      DRUD     -2.19920      0.400000           0   0.00000       0.00000    
      1488 IM1H     75       IM1H     C2       CD2R5D    2.44700       11.6110           0  -1.08300       1.10000    
      1489 IM1H     75       IM1H     DC2      DRUD     -2.55400      0.400000           0   0.00000       0.00000    
      1490 IM1H     75       IM1H     H4       HDR5D    0.195000       1.00800           0   0.00000       0.00000    
      1491 IM1H     75       IM1H     C3       CD2R5D    2.50700       11.6110           0  -1.08300       1.10000    
      1492 IM1H     75       IM1H     DC3      DRUD     -2.55400      0.400000           0   0.00000       0.00000    
      1493 IM1H     75       IM1H     H5       HDR5D    0.192000       1.00800           0   0.00000       0.00000    
      1494 IM1H     75       IM1H     C4       CD2R5E    2.72410       11.6110           0  -1.25300       1.20000    
      1495 IM1H     75       IM1H     DC4      DRUD     -2.74710      0.400000           0   0.00000       0.00000    
      1496 IM1H     75       IM1H     H6       HDR5E    0.203000       1.00800           0   0.00000       0.00000    
      1497 IM1H     75       IM1H     N2       ND2R5C    2.04220       13.6070           0 -0.803000       1.00000    
      1498 IM1H     75       IM1H     DN2      DRUD     -2.19920      0.400000           0   0.00000       0.00000    
      1499 IM1H     75       IM1H     H7       HDP1A    0.363000       1.00800           0   0.00000       0.00000    
      1500 IM1H     75       IM1H     LPN21    LPD       0.00000       0.00000          -1   0.00000       0.00000    
      1501 IM1H     76       IM1H     C1       CD33F     2.48500       11.6110           0  -1.18100       1.10000    
      1502 IM1H     76       IM1H     DC1      DRUD     -2.66700      0.400000           0   0.00000       0.00000    
      1503 IM1H     76       IM1H     H1       HDA3A    0.135000       1.00800           0   0.00000       0.00000    
      1504 IM1H     76       IM1H     H2       HDA3A    0.135000       1.00800           0   0.00000       0.00000    
      1505 IM1H     76       IM1H     H3       HDA3A    0.135000       1.00800           0   0.00000       0.00000    
      1506 IM1H     76       IM1H     N1       ND2R5C    2.35720       13.6070           0 -0.803000       1.00000    
      1507 IM1H     76       IM1H     DN1      DRUD     -2.19920      0.400000           0   0.00000       0.00000    
      1508 IM1H     76       IM1H     C2       CD2R5D    2.44700       11.6110           0  -1.08300       1.10000    
      1509 IM1H     76       IM1H     DC2      DRUD     -2.55400      0.400000           0   0.00000       0.00000    
      1510 IM1H     76       IM1H     H4       HDR5D    0.195000       1.00800           0   0.00000       0.00000    
      1511 IM1H     76       IM1H     C3       CD2R5D    2.50700       11.6110           0  -1.08300       1.10000    
      1512 IM1H     76       IM1H     DC3      DRUD     -2.55400      0.400000           0   0.00000       0.00000    
      1513 IM1H     76       IM1H     H5       HDR5D    0.192000       1.00800           0   0.00000       0.00000    
      1514 IM1H     76       IM1H     C4       CD2R5E    2.72410       11.6110           0  -1.25300       1.20000    
      1515 IM1H     76       IM1H     DC4      DRUD     -2.74710      0.400000           0   0.00000       0.00000    
      1516 IM1H     76       IM1H     H6       HDR5E    0.203000       1.00800           0   0.00000       0.00000    
      1517 IM1H     76       IM1H     N2       ND2R5C    2.04220       13.6070           0 -0.803000       1.00000    
      1518 IM1H     76       IM1H     DN2      DRUD     -2.19920      0.400000           0   0.00000       0.00000    
      1519 IM1H     76       IM1H     H7       HDP1A    0.363000       1.00800           0   0.00000       0.00000    
      1520 IM1H     76       IM1H     LPN21    LPD       0.00000       0.00000          -1   0.00000       0.00000    
      1521 IM1H     77       IM1H     C1       CD33F     2.48500       11.6110           0  -1.18100       1.10000    
      1522 IM1H     77       IM1H     DC1      DRUD     -2.66700      0.400000           0   0.00000       0.00000    
      1523 IM1H     77       IM1H     H1       HDA3A    0.135000       1.00800           0   0.00000       0.00000    
      1524 IM1H     77       IM1H     H2       HDA3A    0.135000       1.00800           0   0.00000       0.00000    
      1525 IM1H     77       IM1H     H3       HDA3A    0.135000       1.00800           0   0.00000       0.00000    
      1526 IM1H     77       IM1H     N1       ND2R5C    2.35720       13.6070           0 -0.803000       1.00000    
      1527 IM1H     77       IM1H     DN1      DRUD     -2.19920      0.400000           0   0.00000       0.00000    
      1528 IM1H     77       IM1H     C2       CD2R5D    2.44700       11.6110           0  -1.08300       1.10000    
      1529 IM1H     77       IM1H     DC2      DRUD     -2.55400      0.400000           0   0.00000       0.00000    
      1530 IM1H     77       IM1H     H4       HDR5D    0.195000       1.00800           0   0.00000       0.00000    
      1531 IM1H     77       IM1H     C3       CD2R5D    2.50700       11.6110           0  -1.08300       1.10000    
      1532 IM1H     77       IM1H     DC3      DRUD     -2.55400      0.400000           0   0.00000       0.00000    
      1533 IM1H     77       IM1H     H5       HDR5D    0.192000       1.00800           0   0.00000       0.00000    
      1534 IM1H     77       IM1H     C4       CD2R5E    2.72410       11.6110           0  -1.25300       1.20000    
      1535 IM1H     77       IM1H     DC4      DRUD     -2.74710      0.400000           0   0.00000       0.00000    
      1536 IM1H     77       IM1H     H6       HDR5E    0.203000       1.00800           0   0.00000       0.00000    
      1537 IM1H     77       IM1H     N2       ND2R5C    2.04220       13.6070           0 -0.803000       1.00000    
      1538 IM1H     77       IM1H     DN2      DRUD     -2.19920      0.400000           0   0.00000       0.00000    
      1539 IM1H     77       IM1H     H7       HDP1A    0.363000       1.00800           0   0.00000       0.00000    
      1540 IM1H     77       IM1H     LPN21    LPD       0.00000       0.00000          -1   0.00000       0.00000    
      1541 IM1H     78       IM1H     C1       CD33F     2.48500       11.6110           0  -1.18100       1.10000    
      1542 IM1H     78       IM1H     DC1      DRUD     -2.66700      0.400000           0   0.00000       0.00000    
      1543 IM1H     78       IM1H     H1       HDA3A    0.135000       1.00800           0   0.00000       0.00000    
      1544 IM1H     78       IM1H     H2       HDA3A    0.135000       1.00800           0   0.00000       0.00000    
      1545 IM1H     78       IM1H     H3       HDA3A    0.135000       1.00800           0   0.00000       0.00000    
      1546 IM1H     78       IM1H     N1       ND2R5C    2.35720       13.6070           0 -0.803000       1.00000    
      1547 IM1H     78       IM1H     DN1      DRUD     -2.19920      0.400000           0   0.00000       0.00000    
      1548 IM1H     78       IM1H     C2       CD2R5D    2.44700       11.6110           0  -1.08300       1.10000    
      1549 IM1H     78       IM1H     DC2      DRUD     -2.55400      0.400000           0   0.00000       0.00000    
      1550 IM1H     78       IM1H     H4       HDR5D    0.195000       1.00800           0   0.00000       0.00000    
      1551 IM1H     78       IM1H     C3       CD2R5D    2.50700       11.6110           0  -1.08300       1.10000    
      1552 IM1H     78       IM1H     DC3      DRUD     -2.55400      0.400000           0   0.00000       0.00000    
      1553 IM1H     78       IM1H     H5       HDR5D    0.192000       1.00800           0   0.00000       0.00000    
      1554 IM1H     78       IM1H     C4       CD2R5E    2.72410       11.6110           0  -1.25300       1.20000    
      1555 IM1H     78       IM1H     DC4      DRUD     -2.74710      0.400000           0   0.00000       0.00000    
      1556 IM1H     78       IM1H     H6       HDR5E    0.203000       1.00800           0   0.00000       0.00000    
      1557 IM1H     78       IM1H     N2       ND2R5C    2.04220       13.6070           0 -0.803000       1.00000    
      1558 IM1H     78       IM1H     DN2      DRUD     -2.19920      0.400000           0   0.00000       0.00000    
      1559 IM1H     78       IM1H     H7       HDP1A    0.363000       1.00800           0   0.00000       0.00000    
      1560 IM1H     78       IM1H     LPN21    LPD       0.00000       0.00000          -1   0.00000       0.00000    
      1561 IM1H     79       IM1H     C1       CD33F     2.48500       11.6110           0  -1.18100       1.10000    
      1562 IM1H     79       IM1H     DC1      DRUD     -2.66700      0.400000           0   0.00000       0.00000    
      1563 IM1H     79       IM1H     H1       HDA3A    0.135000       1.00800           0   0.00000       0.00000    
      1564 IM1H     79       IM1H     H2       HDA3A    0.135000       1.00800           0   0.00000       0.00000    
      1565 IM1H     79       IM1H     H3       HDA3A    0.135000       1.00800           0   0.00000       0.00000    
      1566 IM1H     79       IM1H     N1       ND2R5C    2.35720       13.6070           0 -0.803000       1.00000    
      1567 IM1H     79       IM1H     DN1      DRUD     -2.19920      0.400000           0   0.00000       0.00000    
      1568 IM1H     79       IM1H     C2       CD2R5D    2.44700       11.6110           0  -1.08300       1.10000    
      1569 IM1H     79       IM1H     DC2      DRUD     -2.55400      0.400000           0   0.00000       0.00000    
      1570 IM1H     79       IM1H     H4       HDR5D    0.195000       1.00800           0   0.00000       0.00000    
      1571 IM1H     79       IM1H     C3       CD2R5D    2.50700       11.6110           0  -1.08300       1.10000    
      1572 IM1H     79       IM1H     DC3      DRUD     -2.55400      0.400000           0   0.00000       0.00000    
      1573 IM1H     79       IM1H     H5       HDR5D    0.192000       1.00800           0   0.00000       0.00000    
      1574 IM1H     79       IM1H     C4       CD2R5E    2.72410       11.6110           0  -1.25300       1.20000    
      1575 IM1H     79       IM1H     DC4      DRUD     -2.74710      0.400000           0   0.00000       0.00000    
      1576 IM1H     79       IM1H     H6       HDR5E    0.203000       1.00800           0   0.00000       0.00000    
      1577 IM1H     79       IM1H     N2       ND2R5C    2.04220       13.6070           0 -0.803000       1.00000    
      1578 IM1H     79       IM1H     DN2      DRUD     -2.19920      0.400000           0   0.00000       0.00000    
      1579 IM1H     79       IM1H     H7       HDP1A    0.363000       1.00800           0   0.00000       0.00000    
      1580 IM1H     79       IM1H     LPN21    LPD       0.00000       0.00000          -1   0.00000       0.00000    
      1581 IM1H     80       IM1H     C1       CD33F     2.48500       11.6110           0  -1.18100       1.10000    
      1582 IM1H     80       IM1H     DC1      DRUD     -2.66700      0.400000           0   0.00000       0.00000    
      1583 IM1H     80       IM1H     H1       HDA3A    0.135000       1.00800           0   0.00000       0.00000    
      1584 IM1H     80       IM1H     H2       HDA3A    0.135000       1.00800           0   0.00000       0.00000    
      1585 IM1H     80       IM1H     H3       HDA3A    0.135000       1.00800           0   0.00000       0.00000    
      1586 IM1H     80       IM1H     N1       ND2R5C    2.35720       13.6070           0 -0.803000       1.00000    
      1587 IM1H     80       IM1H     DN1      DRUD     -2.19920      0.400000           0   0.00000       0.00000    
      1588 IM1H     80       IM1H     C2       CD2R5D    2.44700       11.6110           0  -1.08300       1.10000    
      1589 IM1H     80       IM1H     DC2      DRUD     -2.55400      0.400000           0   0.00000       0.00000    
      1590 IM1H     80       IM1H     H4       HDR5D    0.195000       1.00800           0   0.00000       0.00000    
      1591 IM1H     80       IM1H     C3       CD2R5D    2.50700       11.6110           0  -1.08300       1.10000    
      1592 IM1H     80       IM1H     DC3      DRUD     -2.55400      0.400000           0   0.00000       0.00000    
      1593 IM1H     80       IM1H     H5       HDR5D    0.192000       1.00800           0   0.00000       0.00000    
      1594 IM1H     80       IM1H     C4       CD2R5E    2.72410       11.6110           0  -1.25300       1.20000    
      1595 IM1H     80       IM1H     DC4      DRUD     -2.74710      0.400000           0   0.00000       0.00000    
      1596 IM1H     80       IM1H     H6       HDR5E    0.203000       1.00800           0   0.00000       0.00000    
      1597 IM1H     80       IM1H     N2       ND2R5C    2.04220       13.6070           0 -0.803000       1.00000    
      1598 IM1H     80       IM1H     DN2      DRUD     -2.19920      0.400000           0   0.00000       0.00000    
      1599 IM1H     80       IM1H     H7       HDP1A    0.363000       1.00800           0   0.00000       0.00000    
      1600 IM1H     80       IM1H     LPN21    LPD       0.00000       0.00000          -1   0.00000       0.00000    
      1601 IM1H     81       IM1H     C1       CD33F     2.48500       11.6110           0  -1.18100       1.10000    
      1602 IM1H     81       IM1H     DC1      DRUD     -2.66700      0.400000           0   0.00000       0.00000    
      1603 IM1H     81       IM1H     H1       HDA3A    0.135000       1.00800           0   0.00000       0.00000    
      1604 IM1H     81       IM1H     H2       HDA3A    0.135000       1.00800           0   0.00000       0.00000    
      1605 IM1H     81       IM1H     H3       HDA3A    0.135000       1.00800           0   0.00000       0.00000    
      1606 IM1H     81       IM1H     N1       ND2R5C    2.35720       13.6070           0 -0.803000       1.00000    
      1607 IM1H     81       IM1H     DN1      DRUD     -2.19920      0.400000           0   0.00000       0.00000    
      1608 IM1H     81       IM1H     C2       CD2R5D    2.44700       11.6110           0  -1.08300       1.10000    
      1609 IM1H     81       IM1H     DC2      DRUD     -2.55400      0.400000           0   0.00000       0.00000    
      1610 IM1H     81       IM1H     H4       HDR5D    0.195000       1.00800           0   0.00000       0.00000    
      1611 IM1H     81       IM1H     C3       CD2R5D    2.50700       11.6110           0  -1.08300       1.10000    
      1612 IM1H     81       IM1H     DC3      DRUD     -2.55400      0.400000           0   0.00000       0.00000    
      1613 IM1H     81       IM1H     H5       HDR5D    0.192000       1.00800           0   0.00000       0.00000    
      1614 IM1H     81       IM1H     C4       CD2R5E    2.72410       11.6110           0  -1.25300       1.20000    
      1615 IM1H     81       IM1H     DC4      DRUD     -2.74710      0.400000           0   0.00000       0.00000    
      1616 IM1H     81       IM1H     H6       HDR5E    0.203000       1.00800           0   0.00000       0.00000    
      1617 IM1H     81       IM1H     N2       ND2R5C    2.04220       13.6070           0 -0.803000       1.00000    
      1618 IM1H     81       IM1H     DN2      DRUD     -2.19920      0.400000           0   0.00000       0.00000    
      1619 IM1H     81       IM1H     H7       HDP1A    0.363000       1.00800           0   0.00000       0.00000    
      1620 IM1H     81       IM1H     LPN21    LPD       0.00000       0.00000          -1   0.00000       0.00000    
      1621 IM1H     82       IM1H     C1       CD33F     2.48500       11.6110           0  -1.18100       1.10000    
      1622 IM1H     82       IM1H     DC1      DRUD     -2.66700      0.400000           0   0.00000       0.00000    
      1623 IM1H     82       IM1H     H1       HDA3A    0.135000       1.00800           0   0.00000       0.00000    
      1624 IM1H     82       IM1H     H2       HDA3A    0.135000       1.00800           0   0.00000       0.00000    
      1625 IM1H     82       IM1H     H3       HDA3A    0.135000       1.00800           0   0.00000       0.00000    
      1626 IM1H     82       IM1H     N1       ND2R5C    2.35720       13.6070           0 -0.803000       1.00000    
      1627 IM1H     82       IM1H     DN1      DRUD     -2.19920      0.400000           0   0.00000       0.00000    
      1628 IM1H     82       IM1H     C2       CD2R5D    2.44700       11.6110           0  -1.08300       1.10000    
      1629 IM1H     82       IM1H     DC2      DRUD     -2.55400      0.400000           0   0.00000       0.00000    
      1630 IM1H     82       IM1H     H4       HDR5D    0.195000       1.00800           0   0.00000       0.00000    
      1631 IM1H     82       IM1H     C3       CD2R5D    2.50700       11.6110           0  -1.08300       1.10000    
      1632 IM1H     82       IM1H     DC3      DRUD     -2.55400      0.400000           0   0.00000       0.00000    
      1633 IM1H     82       IM1H     H5       HDR5D    0.192000       1.00800           0   0.00000       0.00000    
      1634 IM1H     82       IM1H     C4       CD2R5E    2.72410       11.6110           0  -1.25300       1.20000    
      1635 IM1H     82       IM1H     DC4      DRUD     -2.74710      0.400000           0   0.00000       0.00000    
      1636 IM1H     82       IM1H     H6       HDR5E    0.203000       1.00800           0   0.00000       0.00000    
      1637 IM1H     82       IM1H     N2       ND2R5C    2.04220       13.6070           0 -0.803000       1.00000    
      1638 IM1H     82       IM1H     DN2      DRUD     -2.19920      0.400000           0   0.00000       0.00000    
      1639 IM1H     82       IM1H     H7       HDP1A    0.363000       1.00800           0   0.00000       0.00000    
      1640 IM1H     82       IM1H     LPN21    LPD       0.00000       0.00000          -1   0.00000       0.00000    
      1641 IM1H     83       IM1H     C1       CD33F     2.48500       11.6110           0  -1.18100       1.10000    
      1642 IM1H     83       IM1H     DC1      DRUD     -2.66700      0.400000           0   0.00000       0.00000    
      1643 IM1H     83       IM1H     H1       HDA3A    0.135000       1.00800           0   0.00000       0.00000    
      1644 IM1H     83       IM1H     H2       HDA3A    0.135000       1.00800           0   0.00000       0.00000    
      1645 IM1H     83       IM1H     H3       HDA3A    0.135000       1.00800           0   0.00000       0.00000    
      1646 IM1H     83       IM1H     N1       ND2R5C    2.35720       13.6070           0 -0.803000       1.00000    
      1647 IM1H     83       IM1H     DN1      DRUD     -2.19920      0.400000           0   0.00000       0.00000    
      1648 IM1H     83       IM1H     C2       CD2R5D    2.44700       11.6110           0  -1.08300       1.10000    
      1649 IM1H     83       IM1H     DC2      DRUD     -2.55400      0.400000           0   0.00000       0.00000    
      1650 IM1H     83       IM1H     H4       HDR5D    0.195000       1.00800           0   0.00000       0.00000    
      1651 IM1H     83       IM1H     C3       CD2R5D    2.50700       11.6110           0  -1.08300       1.10000    
      1652 IM1H     83       IM1H     DC3      DRUD     -2.55400      0.400000           0   0.00000       0.00000    
      1653 IM1H     83       IM1H     H5       HDR5D    0.192000       1.00800           0   0.00000       0.00000    
      1654 IM1H     83       IM1H     C4       CD2R5E    2.72410       11.6110           0  -1.25300       1.20000    
      1655 IM1H     83       IM1H     DC4      DRUD     -2.74710      0.400000           0   0.00000       0.00000    
      1656 IM1H     83       IM1H     H6       HDR5E    0.203000       1.00800           0   0.00000       0.00000    
      1657 IM1H     83       IM1H     N2       ND2R5C    2.04220       13.6070           0 -0.803000       1.00000    
      1658 IM1H     83       IM1H     DN2      DRUD     -2.19920      0.400000           0   0.00000       0.00000    
      1659 IM1H     83       IM1H     H7       HDP1A    0.363000       1.00800           0   0.00000       0.00000    
      1660 IM1H     83       IM1H     LPN21    LPD       0.00000       0.00000          -1   0.00000       0.00000    
      1661 IM1H     84       IM1H     C1       CD33F     2.48500       11.6110           0  -1.18100       1.10000    
      1662 IM1H     84       IM1H     DC1      DRUD     -2.66700      0.400000           0   0.00000       0.00000    
      1663 IM1H     84       IM1H     H1       HDA3A    0.135000       1.00800           0   0.00000       0.00000    
      1664 IM1H     84       IM1H     H2       HDA3A    0.135000       1.00800           0   0.00000       0.00000    
      1665 IM1H     84       IM1H     H3       HDA3A    0.135000       1.00800           0   0.00000       0.00000    
      1666 IM1H     84       IM1H     N1       ND2R5C    2.35720       13.6070           0 -0.803000       1.00000    
      1667 IM1H     84       IM1H     DN1      DRUD     -2.19920      0.400000           0   0.00000       0.00000    
      1668 IM1H     84       IM1H     C2       CD2R5D    2.44700       11.6110           0  -1.08300       1.10000    
      1669 IM1H     84       IM1H     DC2      DRUD     -2.55400      0.400000           0   0.00000       0.00000    
      1670 IM1H     84       IM1H     H4       HDR5D    0.195000       1.00800           0   0.00000       0.00000    
      1671 IM1H     84       IM1H     C3       CD2R5D    2.50700       11.6110           0  -1.08300       1.10000    
      1672 IM1H     84       IM1H     DC3      DRUD     -2.55400      0.400000           0   0.00000       0.00000    
      1673 IM1H     84       IM1H     H5       HDR5D    0.192000       1.00800           0   0.00000       0.00000    
      1674 IM1H     84       IM1H     C4       CD2R5E    2.72410       11.6110           0  -1.25300       1.20000    
      1675 IM1H     84       IM1H     DC4      DRUD     -2.74710      0.400000           0   0.00000       0.00000    
      1676 IM1H     84       IM1H     H6       HDR5E    0.203000       1.00800           0   0.00000       0.00000    
      1677 IM1H     84       IM1H     N2       ND2R5C    2.04220       13.6070           0 -0.803000       1.00000    
      1678 IM1H     84       IM1H     DN2      DRUD     -2.19920      0.400000           0   0.00000       0.00000    
      1679 IM1H     84       IM1H     H7       HDP1A    0.363000       1.00800           0   0.00000       0.00000    
      1680 IM1H     84       IM1H     LPN21    LPD       0.00000       0.00000          -1   0.00000       0.00000    
      1681 IM1H     85       IM1H     C1       CD33F     2.48500       11.6110           0  -1.18100       1.10000    
      1682 IM1H     85       IM1H     DC1      DRUD     -2.66700      0.400000           0   0.00000       0.00000    
      1683 IM1H     85       IM1H     H1       HDA3A    0.135000       1.00800           0   0.00000       0.00000    
      1684 IM1H     85       IM1H     H2       HDA3A    0.135000       1.00800           0   0.00000       0.00000    
      1685 IM1H     85       IM1H     H3       HDA3A    0.135000       1.00800           0   0.00000       0.00000    
      1686 IM1H     85       IM1H     N1       ND2R5C    2.35720       13.6070           0 -0.803000       1.00000    
      1687 IM1H     85       IM1H     DN1      DRUD     -2.19920      0.400000           0   0.00000       0.00000    
      1688 IM1H     85       IM1H     C2       CD2R5D    2.44700       11.6110           0  -1.08300       1.10000    
      1689 IM1H     85       IM1H     DC2      DRUD     -2.55400      0.400000           0   0.00000       0.00000    
      1690 IM1H     85       IM1H     H4       HDR5D    0.195000       1.00800           0   0.00000       0.00000    
      1691 IM1H     85       IM1H     C3       CD2R5D    2.50700       11.6110           0  -1.08300       1.10000    
      1692 IM1H     85       IM1H     DC3      DRUD     -2.55400      0.400000           0   0.00000       0.00000    
      1693 IM1H     85       IM1H     H5       HDR5D    0.192000       1.00800           0   0.00000       0.00000    
      1694 IM1H     85       IM1H     C4       CD2R5E    2.72410       11.6110           0  -1.25300       1.20000    
      1695 IM1H     85       IM1H     DC4      DRUD     -2.74710      0.400000           0   0.00000       0.00000    
      1696 IM1H     85       IM1H     H6       HDR5E    0.203000       1.00800           0   0.00000       0.00000    
      1697 IM1H     85       IM1H     N2       ND2R5C    2.04220       13.6070           0 -0.803000       1.00000    
      1698 IM1H     85       IM1H     DN2      DRUD     -2.19920      0.400000           0   0.00000       0.00000    
      1699 IM1H     85       IM1H     H7       HDP1A    0.363000       1.00800           0   0.00000       0.00000    
      1700 IM1H     85       IM1H     LPN21    LPD       0.00000       0.00000          -1   0.00000       0.00000    
      1701 IM1H     86       IM1H     C1       CD33F     2.48500       11.6110           0  -1.18100       1.10000    
      1702 IM1H     86       IM1H     DC1      DRUD     -2.66700      0.400000           0   0.00000       0.00000    
      1703 IM1H     86       IM1H     H1       HDA3A    0.135000       1.00800           0   0.00000       0.00000    
      1704 IM1H     86       IM1H     H2       HDA3A    0.135000       1.00800           0   0.00000       0.00000    
      1705 IM1H     86       IM1H     H3       HDA3A    0.135000       1.00800           0   0.00000       0.00000    
      1706 IM1H     86       IM1H     N1       ND2R5C    2.35720       13.6070           0 -0.803000       1.00000    
      1707 IM1H     86       IM1H     DN1      DRUD     -2.19920      0.400000           0   0.00000       0.00000    
      1708 IM1H     86       IM1H     C2       CD2R5D    2.44700       11.6110           0  -1.08300       1.10000    
      1709 IM1H     86       IM1H     DC2      DRUD     -2.55400      0.400000           0   0.00000       0.00000    
      1710 IM1H     86       IM1H     H4       HDR5D    0.195000       1.00800           0   0.00000       0.00000    
      1711 IM1H     86       IM1H     C3       CD2R5D    2.50700       11.6110           0  -1.08300       1.10000    
      1712 IM1H     86       IM1H     DC3      DRUD     -2.55400      0.400000           0   0.00000       0.00000    
      1713 IM1H     86       IM1H     H5       HDR5D    0.192000       1.00800           0   0.00000       0.00000    
      1714 IM1H     86       IM1H     C4       CD2R5E    2.72410       11.6110           0  -1.25300       1.20000    
      1715 IM1H     86       IM1H     DC4      DRUD     -2.74710      0.400000           0   0.00000       0.00000    
      1716 IM1H     86       IM1H     H6       HDR5E    0.203000       1.00800           0   0.00000       0.00000    
      1717 IM1H     86       IM1H     N2       ND2R5C    2.04220       13.6070           0 -0.803000       1.00000    
      1718 IM1H     86       IM1H     DN2      DRUD     -2.19920      0.400000           0   0.00000       0.00000    
      1719 IM1H     86       IM1H     H7       HDP1A    0.363000       1.00800           0   0.00000       0.00000    
      1720 IM1H     86       IM1H     LPN21    LPD       0.00000       0.00000          -1   0.00000       0.00000    
      1721 IM1H     87       IM1H     C1       CD33F     2.48500       11.6110           0  -1.18100       1.10000    
      1722 IM1H     87       IM1H     DC1      DRUD     -2.66700      0.400000           0   0.00000       0.00000    
      1723 IM1H     87       IM1H     H1       HDA3A    0.135000       1.00800           0   0.00000       0.00000    
      1724 IM1H     87       IM1H     H2       HDA3A    0.135000       1.00800           0   0.00000       0.00000    
      1725 IM1H     87       IM1H     H3       HDA3A    0.135000       1.00800           0   0.00000       0.00000    
      1726 IM1H     87       IM1H     N1       ND2R5C    2.35720       13.6070           0 -0.803000       1.00000    
      1727 IM1H     87       IM1H     DN1      DRUD     -2.19920      0.400000           0   0.00000       0.00000    
      1728 IM1H     87       IM1H     C2       CD2R5D    2.44700       11.6110           0  -1.08300       1.10000    
      1729 IM1H     87       IM1H     DC2      DRUD     -2.55400      0.400000           0   0.00000       0.00000    
      1730 IM1H     87       IM1H     H4       HDR5D    0.195000       1.00800           0   0.00000       0.00000    
      1731 IM1H     87       IM1H     C3       CD2R5D    2.50700       11.6110           0  -1.08300       1.10000    
      1732 IM1H     87       IM1H     DC3      DRUD     -2.55400      0.400000           0   0.00000       0.00000    
      1733 IM1H     87       IM1H     H5       HDR5D    0.192000       1.00800           0   0.00000       0.00000    
      1734 IM1H     87       IM1H     C4       CD2R5E    2.72410       11.6110           0  -1.25300       1.20000    
      1735 IM1H     87       IM1H     DC4      DRUD     -2.74710      0.400000           0   0.00000       0.00000    
      1736 IM1H     87       IM1H     H6       HDR5E    0.203000       1.00800           0   0.00000       0.00000    
      1737 IM1H     87       IM1H     N2       ND2R5C    2.04220       13.6070           0 -0.803000       1.00000    
      1738 IM1H     87       IM1H     DN2      DRUD     -2.19920      0.400000           0   0.00000       0.00000    
      1739 IM1H     87       IM1H     H7       HDP1A    0.363000       1.00800           0   0.00000       0.00000    
      1740 IM1H     87       IM1H     LPN21    LPD       0.00000       0.00000          -1   0.00000       0.00000    
      1741 IM1H     88       IM1H     C1       CD33F     2.48500       11.6110           0  -1.18100       1.10000    
      1742 IM1H     88       IM1H     DC1      DRUD     -2.66700      0.400000           0   0.00000       0.00000    
      1743 IM1H     88       IM1H     H1       HDA3A    0.135000       1.00800           0   0.00000       0.00000    
      1744 IM1H     88       IM1H     H2       HDA3A    0.135000       1.00800           0   0.00000       0.00000    
      1745 IM1H     88       IM1H     H3       HDA3A    0.135000       1.00800           0   0.00000       0.00000    
      1746 IM1H     88       IM1H     N1       ND2R5C    2.35720       13.6070           0 -0.803000       1.00000    
      1747 IM1H     88       IM1H     DN1      DRUD     -2.19920      0.400000           0   0.00000       0.00000    
      1748 IM1H     88       IM1H     C2       CD2R5D    2.44700       11.6110           0  -1.08300       1.10000    
      1749 IM1H     88       IM1H     DC2      DRUD     -2.55400      0.400000           0   0.00000       0.00000    
      1750 IM1H     88       IM1H     H4       HDR5D    0.195000       1.00800           0   0.00000       0.00000    
      1751 IM1H     88       IM1H     C3       CD2R5D    2.50700       11.6110           0  -1.08300       1.10000    
      1752 IM1H     88       IM1H     DC3      DRUD     -2.55400      0.400000           0   0.00000       0.00000    
      1753 IM1H     88       IM1H     H5       HDR5D    0.192000       1.00800           0   0.00000       0.00000    
      1754 IM1H     88       IM1H     C4       CD2R5E    2.72410       11.6110           0  -1.25300       1.20000    
      1755 IM1H     88       IM1H     DC4      DRUD     -2.74710      0.400000           0   0.00000       0.00000    
      1756 IM1H     88       IM1H     H6       HDR5E    0.203000       1.00800           0   0.00000       0.00000    
      1757 IM1H     88       IM1H     N2       ND2R5C    2.04220       13.6070           0 -0.803000       1.00000    
      1758 IM1H     88       IM1H     DN2      DRUD     -2.19920      0.400000           0   0.00000       0.00000    
      1759 IM1H     88       IM1H     H7       HDP1A    0.363000       1.00800           0   0.00000       0.00000    
      1760 IM1H     88       IM1H     LPN21    LPD       0.00000       0.00000          -1   0.00000       0.00000    
      1761 IM1H     89       IM1H     C1       CD33F     2.48500       11.6110           0  -1.18100       1.10000    
      1762 IM1H     89       IM1H     DC1      DRUD     -2.66700      0.400000           0   0.00000       0.00000    
      1763 IM1H     89       IM1H     H1       HDA3A    0.135000       1.00800           0   0.00000       0.00000    
      1764 IM1H     89       IM1H     H2       HDA3A    0.135000       1.00800           0   0.00000       0.00000    
      1765 IM1H     89       IM1H     H3       HDA3A    0.135000       1.00800           0   0.00000       0.00000    
      1766 IM1H     89       IM1H     N1       ND2R5C    2.35720       13.6070           0 -0.803000       1.00000    
      1767 IM1H     89       IM1H     DN1      DRUD     -2.19920      0.400000           0   0.00000       0.00000    
      1768 IM1H     89       IM1H     C2       CD2R5D    2.44700       11.6110           0  -1.08300       1.10000    
      1769 IM1H     89       IM1H     DC2      DRUD     -2.55400      0.400000           0   0.00000       0.00000    
      1770 IM1H     89       IM1H     H4       HDR5D    0.195000       1.00800           0   0.00000       0.00000    
      1771 IM1H     89       IM1H     C3       CD2R5D    2.50700       11.6110           0  -1.08300       1.10000    
      1772 IM1H     89       IM1H     DC3      DRUD     -2.55400      0.400000           0   0.00000       0.00000    
      1773 IM1H     89       IM1H     H5       HDR5D    0.192000       1.00800           0   0.00000       0.00000    
      1774 IM1H     89       IM1H     C4       CD2R5E    2.72410       11.6110           0  -1.25300       1.20000    
      1775 IM1H     89       IM1H     DC4      DRUD     -2.74710      0.400000           0   0.00000       0.00000    
      1776 IM1H     89       IM1H     H6       HDR5E    0.203000       1.00800           0   0.00000       0.00000    
      1777 IM1H     89       IM1H     N2       ND2R5C    2.04220       13.6070           0 -0.803000       1.00000    
      1778 IM1H     89       IM1H     DN2      DRUD     -2.19920      0.400000           0   0.00000       0.00000    
      1779 IM1H     89       IM1H     H7       HDP1A    0.363000       1.00800           0   0.00000       0.00000    
      1780 IM1H     89       IM1H     LPN21    LPD       0.00000       0.00000          -1   0.00000       0.00000    
      1781 IM1H     90       IM1H     C1       CD33F     2.48500       11.6110           0  -1.18100       1.10000    
      1782 IM1H     90       IM1H     DC1      DRUD     -2.66700      0.400000           0   0.00000       0.00000    
      1783 IM1H     90       IM1H     H1       HDA3A    0.135000       1.00800           0   0.00000       0.00000    
      1784 IM1H     90       IM1H     H2       HDA3A    0.135000       1.00800           0   0.00000       0.00000    
      1785 IM1H     90       IM1H     H3       HDA3A    0.135000       1.00800           0   0.00000       0.00000    
      1786 IM1H     90       IM1H     N1       ND2R5C    2.35720       13.6070           0 -0.803000       1.00000    
      1787 IM1H     90       IM1H     DN1      DRUD     -2.19920      0.400000           0   0.00000       0.00000    
      1788 IM1H     90       IM1H     C2       CD2R5D    2.44700       11.6110           0  -1.08300       1.10000    
      1789 IM1H     90       IM1H     DC2      DRUD     -2.55400      0.400000           0   0.00000       0.00000    
      1790 IM1H     90       IM1H     H4       HDR5D    0.195000       1.00800           0   0.00000       0.00000    
      1791 IM1H     90       IM1H     C3       CD2R5D    2.50700       11.6110           0  -1.08300       1.10000    
      1792 IM1H     90       IM1H     DC3      DRUD     -2.55400      0.400000           0   0.00000       0.00000    
      1793 IM1H     90       IM1H     H5       HDR5D    0.192000       1.00800           0   0.00000       0.00000    
      1794 IM1H     90       IM1H     C4       CD2R5E    2.72410       11.6110           0  -1.25300       1.20000    
      1795 IM1H     90       IM1H     DC4      DRUD     -2.74710      0.400000           0   0.00000       0.00000    
      1796 IM1H     90       IM1H     H6       HDR5E    0.203000       1.00800           0   0.00000       0.00000    
      1797 IM1H     90       IM1H     N2       ND2R5C    2.04220       13.6070           0 -0.803000       1.00000    
      1798 IM1H     90       IM1H     DN2      DRUD     -2.19920      0.400000           0   0.00000       0.00000    
      1799 IM1H     90       IM1H     H7       HDP1A    0.363000       1.00800           0   0.00000       0.00000    
      1800 IM1H     90       IM1H     LPN21    LPD       0.00000       0.00000          -1   0.00000       0.00000    
      1801 IM1H     91       IM1H     C1       CD33F     2.48500       11.6110           0  -1.18100       1.10000    
      1802 IM1H     91       IM1H     DC1      DRUD     -2.66700      0.400000           0   0.00000       0.00000    
      1803 IM1H     91       IM1H     H1       HDA3A    0.135000       1.00800           0   0.00000       0.00000    
      1804 IM1H     91       IM1H     H2       HDA3A    0.135000       1.00800           0   0.00000       0.00000    
      1805 IM1H     91       IM1H     H3       HDA3A    0.135000       1.00800           0   0.00000       0.00000    
      1806 IM1H     91       IM1H     N1       ND2R5C    2.35720       13.6070           0 -0.803000       1.00000    
      1807 IM1H     91       IM1H     DN1      DRUD     -2.19920      0.400000           0   0.00000       0.00000    
      1808 IM1H     91       IM1H     C2       CD2R5D    2.44700       11.6110           0  -1.08300       1.10000    
      1809 IM1H     91       IM1H     DC2      DRUD     -2.55400      0.400000           0   0.00000       0.00000    
      1810 IM1H     91       IM1H     H4       HDR5D    0.195000       1.00800           0   0.00000       0.00000    
      1811 IM1H     91       IM1H     C3       CD2R5D    2.50700       11.6110           0  -1.08300       1.10000    
      1812 IM1H     91       IM1H     DC3      DRUD     -2.55400      0.400000           0   0.00000       0.00000    
      1813 IM1H     91       IM1H     H5       HDR5D    0.192000       1.00800           0   0.00000       0.00000    
      1814 IM1H     91       IM1H     C4       CD2R5E    2.72410       11.6110           0  -1.25300       1.20000    
      1815 IM1H     91       IM1H     DC4      DRUD     -2.74710      0.400000           0   0.00000       0.00000    
      1816 IM1H     91       IM1H     H6       HDR5E    0.203000       1.00800           0   0.00000       0.00000    
      1817 IM1H     91       IM1H     N2       ND2R5C    2.04220       13.6070           0 -0.803000       1.00000    
      1818 IM1H     91       IM1H     DN2      DRUD     -2.19920      0.400000           0   0.00000       0.00000    
      1819 IM1H     91       IM1H     H7       HDP1A    0.363000       1.00800           0   0.00000       0.00000    
      1820 IM1H     91       IM1H     LPN21    LPD       0.00000       0.00000          -1   0.00000       0.00000    
      1821 IM1H     92       IM1H     C1       CD33F     2.48500       11.6110           0  -1.18100       1.10000    
      1822 IM1H     92       IM1H     DC1      DRUD     -2.66700      0.400000           0   0.00000       0.00000    
      1823 IM1H     92       IM1H     H1       HDA3A    0.135000       1.00800           0   0.00000       0.00000    
      1824 IM1H     92       IM1H     H2       HDA3A    0.135000       1.00800           0   0.00000       0.00000    
      1825 IM1H     92       IM1H     H3       HDA3A    0.135000       1.00800           0   0.00000       0.00000    
      1826 IM1H     92       IM1H     N1       ND2R5C    2.35720       13.6070           0 -0.803000       1.00000    
      1827 IM1H     92       IM1H     DN1      DRUD     -2.19920      0.400000           0   0.00000       0.00000    
      1828 IM1H     92       IM1H     C2       CD2R5D    2.44700       11.6110           0  -1.08300       1.10000    
      1829 IM1H     92       IM1H     DC2      DRUD     -2.55400      0.400000           0   0.00000       0.00000    
      1830 IM1H     92       IM1H     H4       HDR5D    0.195000       1.00800           0   0.00000       0.00000    
      1831 IM1H     92       IM1H     C3       CD2R5D    2.50700       11.6110           0  -1.08300       1.10000    
      1832 IM1H     92       IM1H     DC3      DRUD     -2.55400      0.400000           0   0.00000       0.00000    
      1833 IM1H     92       IM1H     H5       HDR5D    0.192000       1.00800           0   0.00000       0.00000    
      1834 IM1H     92       IM1H     C4       CD2R5E    2.72410       11.6110           0  -1.25300       1.20000    
      1835 IM1H     92       IM1H     DC4      DRUD     -2.74710      0.400000           0   0.00000       0.00000    
      1836 IM1H     92       IM1H     H6       HDR5E    0.203000       1.00800           0   0.00000       0.00000    
      1837 IM1H     92       IM1H     N2       ND2R5C    2.04220       13.6070           0 -0.803000       1.00000    
      1838 IM1H     92       IM1H     DN2      DRUD     -2.19920      0.400000           0   0.00000       0.00000    
      1839 IM1H     92       IM1H     H7       HDP1A    0.363000       1.00800           0   0.00000       0.00000    
      1840 IM1H     92       IM1H     LPN21    LPD       0.00000       0.00000          -1   0.00000       0.00000    
      1841 IM1H     93       IM1H     C1       CD33F     2.48500       11.6110           0  -1.18100       1.10000    
      1842 IM1H     93       IM1H     DC1      DRUD     -2.66700      0.400000           0   0.00000       0.00000    
      1843 IM1H     93       IM1H     H1       HDA3A    0.135000       1.00800           0   0.00000       0.00000    
      1844 IM1H     93       IM1H     H2       HDA3A    0.135000       1.00800           0   0.00000       0.00000    
      1845 IM1H     93       IM1H     H3       HDA3A    0.135000       1.00800           0   0.00000       0.00000    
      1846 IM1H     93       IM1H     N1       ND2R5C    2.35720       13.6070           0 -0.803000       1.00000    
      1847 IM1H     93       IM1H     DN1      DRUD     -2.19920      0.400000           0   0.00000       0.00000    
      1848 IM1H     93       IM1H     C2       CD2R5D    2.44700       11.6110           0  -1.08300       1.10000    
      1849 IM1H     93       IM1H     DC2      DRUD     -2.55400      0.400000           0   0.00000       0.00000    
      1850 IM1H     93       IM1H     H4       HDR5D    0.195000       1.00800           0   0.00000       0.00000    
      1851 IM1H     93       IM1H     C3       CD2R5D    2.50700       11.6110           0  -1.08300       1.10000    
      1852 IM1H     93       IM1H     DC3      DRUD     -2.55400      0.400000           0   0.00000       0.00000    
      1853 IM1H     93       IM1H     H5       HDR5D    0.192000       1.00800           0   0.00000       0.00000    
      1854 IM1H     93       IM1H     C4       CD2R5E    2.72410       11.6110           0  -1.25300       1.20000    
      1855 IM1H     93       IM1H     DC4      DRUD     -2.74710      0.400000           0   0.00000       0.00000    
      1856 IM1H     93       IM1H     H6       HDR5E    0.203000       1.00800           0   0.00000       0.00000    
      1857 IM1H     93       IM1H     N2       ND2R5C    2.04220       13.6070           0 -0.803000       1.00000    
      1858 IM1H     93       IM1H     DN2      DRUD     -2.19920      0.400000           0   0.00000       0.00000    
      1859 IM1H     93       IM1H     H7       HDP1A    0.363000       1.00800           0   0.00000       0.00000    
      1860 IM1H     93       IM1H     LPN21    LPD       0.00000       0.00000          -1   0.00000       0.00000    
      1861 IM1H     94       IM1H     C1       CD33F     2.48500       11.6110           0  -1.18100       1.10000    
      1862 IM1H     94       IM1H     DC1      DRUD     -2.66700      0.400000           0   0.00000       0.00000    
      1863 IM1H     94       IM1H     H1       HDA3A    0.135000       1.00800           0   0.00000       0.00000    
      1864 IM1H     94       IM1H     H2       HDA3A    0.135000       1.00800           0   0.00000       0.00000    
      1865 IM1H     94       IM1H     H3       HDA3A    0.135000       1.00800           0   0.00000       0.00000    
      1866 IM1H     94       IM1H     N1       ND2R5C    2.35720       13.6070           0 -0.803000       1.00000    
      1867 IM1H     94       IM1H     DN1      DRUD     -2.19920      0.400000           0   0.00000       0.00000    
      1868 IM1H     94       IM1H     C2       CD2R5D    2.44700       11.6110           0  -1.08300       1.10000    
      1869 IM1H     94       IM1H     DC2      DRUD     -2.55400      0.400000           0   0.00000       0.00000    
      1870 IM1H     94       IM1H     H4       HDR5D    0.195000       1.00800           0   0.00000       0.00000    
      1871 IM1H     94       IM1H     C3       CD2R5D    2.50700       11.6110           0  -1.08300       1.10000    
      1872 IM1H     94       IM1H     DC3      DRUD     -2.55400      0.400000           0   0.00000       0.00000    
      1873 IM1H     94       IM1H     H5       HDR5D    0.192000       1.00800           0   0.00000       0.00000    
      1874 IM1H     94       IM1H     C4       CD2R5E    2.72410       11.6110           0  -1.25300       1.20000    
      1875 IM1H     94       IM1H     DC4      DRUD     -2.74710      0.400000           0   0.00000       0.00000    
      1876 IM1H     94       IM1H     H6       HDR5E    0.203000       1.00800           0   0.00000       0.00000    
      1877 IM1H     94       IM1H     N2       ND2R5C    2.04220       13.6070           0 -0.803000       1.00000    
      1878 IM1H     94       IM1H     DN2      DRUD     -2.19920      0.400000           0   0.00000       0.00000    
      1879 IM1H     94       IM1H     H7       HDP1A    0.363000       1.00800           0   0.00000       0.00000    
      1880 IM1H     94       IM1H     LPN21    LPD       0.00000       0.00000          -1   0.00000       0.00000    
      1881 IM1H     95       IM1H     C1       CD33F     2.48500       11.6110           0  -1.18100       1.10000    
      1882 IM1H     95       IM1H     DC1      DRUD     -2.66700      0.400000           0   0.00000       0.00000    
      1883 IM1H     95       IM1H     H1       HDA3A    0.135000       1.00800           0   0.00000       0.00000    
      1884 IM1H     95       IM1H     H2       HDA3A    0.135000       1.00800           0   0.00000       0.00000    
      1885 IM1H     95       IM1H     H3       HDA3A    0.135000       1.00800           0   0.00000       0.00000    
      1886 IM1H     95       IM1H     N1       ND2R5C    2.35720       13.6070           0 -0.803000       1.00000    
      1887 IM1H     95       IM1H     DN1      DRUD     -2.19920      0.400000           0   0.00000       0.00000    
      1888 IM1H     95       IM1H     C2       CD2R5D    2.44700       11.6110           0  -1.08300       1.10000    
      1889 IM1H     95       IM1H     DC2      DRUD     -2.55400      0.400000           0   0.00000       0.00000    
      1890 IM1H     95       IM1H     H4       HDR5D    0.195000       1.00800           0   0.00000       0.00000    
      1891 IM1H     95       IM1H     C3       CD2R5D    2.50700       11.6110           0  -1.08300       1.10000    
      1892 IM1H     95       IM1H     DC3      DRUD     -2.55400      0.400000           0   0.00000       0.00000    
      1893 IM1H     95       IM1H     H5       HDR5D    0.192000       1.00800           0   0.00000       0.00000    
      1894 IM1H     95       IM1H     C4       CD2R5E    2.72410       11.6110           0  -1.25300       1.20000    
      1895 IM1H     95       IM1H     DC4      DRUD     -2.74710      0.400000           0   0.00000       0.00000    
      1896 IM1H     95       IM1H     H6       HDR5E    0.203000       1.00800           0   0.00000       0.00000    
      1897 IM1H     95       IM1H     N2       ND2R5C    2.04220       13.6070           0 -0.803000       1.00000    
      1898 IM1H     95       IM1H     DN2      DRUD     -2.19920      0.400000           0   0.00000       0.00000    
      1899 IM1H     95       IM1H     H7       HDP1A    0.363000       1.00800           0   0.00000       0.00000    
      1900 IM1H     95       IM1H     LPN21    LPD       0.00000       0.00000          -1   0.00000       0.00000    
      1901 IM1H     96       IM1H     C1       CD33F     2.48500       11.6110           0  -1.18100       1.10000    
      1902 IM1H     96       IM1H     DC1      DRUD     -2.66700      0.400000           0   0.00000       0.00000    
      1903 IM1H     96       IM1H     H1       HDA3A    0.135000       1.00800           0   0.00000       0.00000    
      1904 IM1H     96       IM1H     H2       HDA3A    0.135000       1.00800           0   0.00000       0.00000    
      1905 IM1H     96       IM1H     H3       HDA3A    0.135000       1.00800           0   0.00000       0.00000    
      1906 IM1H     96       IM1H     N1       ND2R5C    2.35720       13.6070           0 -0.803000       1.00000    
      1907 IM1H     96       IM1H     DN1      DRUD     -2.19920      0.400000           0   0.00000       0.00000    
      1908 IM1H     96       IM1H     C2       CD2R5D    2.44700       11.6110           0  -1.08300       1.10000    
      1909 IM1H     96       IM1H     DC2      DRUD     -2.55400      0.400000           0   0.00000       0.00000    
      1910 IM1H     96       IM1H     H4       HDR5D    0.195000       1.00800           0   0.00000       0.00000    
      1911 IM1H     96       IM1H     C3       CD2R5D    2.50700       11.6110           0  -1.08300       1.10000    
      1912 IM1H     96       IM1H     DC3      DRUD     -2.55400      0.400000           0   0.00000       0.00000    
      1913 IM1H     96       IM1H     H5       HDR5D    0.192000       1.00800           0   0.00000       0.00000    
      1914 IM1H     96       IM1H     C4       CD2R5E    2.72410       11.6110           0  -1.25300       1.20000    
      1915 IM1H     96       IM1H     DC4      DRUD     -2.74710      0.400000           0   0.00000       0.00000    
      1916 IM1H     96       IM1H     H6       HDR5E    0.203000       1.00800           0   0.00000       0.00000    
      1917 IM1H     96       IM1H     N2       ND2R5C    2.04220       13.6070           0 -0.803000       1.00000    
      1918 IM1H     96       IM1H     DN2      DRUD     -2.19920      0.400000           0   0.00000       0.00000    
      1919 IM1H     96       IM1H     H7       HDP1A    0.363000       1.00800           0   0.00000       0.00000    
      1920 IM1H     96       IM1H     LPN21    LPD       0.00000       0.00000          -1   0.00000       0.00000    
      1921 IM1H     97       IM1H     C1       CD33F     2.48500       11.6110           0  -1.18100       1.10000    
      1922 IM1H     97       IM1H     DC1      DRUD     -2.66700      0.400000           0   0.00000       0.00000    
      1923 IM1H     97       IM1H     H1       HDA3A    0.135000       1.00800           0   0.00000       0.00000    
      1924 IM1H     97       IM1H     H2       HDA3A    0.135000       1.00800           0   0.00000       0.00000    
      1925 IM1H     97       IM1H     H3       HDA3A    0.135000       1.00800           0   0.00000       0.00000    
      1926 IM1H     97       IM1H     N1       ND2R5C    2.35720       13.6070           0 -0.803000       1.00000    
      1927 IM1H     97       IM1H     DN1      DRUD     -2.19920      0.400000           0   0.00000       0.00000    
      1928 IM1H     97       IM1H     C2       CD2R5D    2.44700       11.6110           0  -1.08300       1.10000    
      1929 IM1H     97       IM1H     DC2      DRUD     -2.55400      0.400000           0   0.00000       0.00000    
      1930 IM1H     97       IM1H     H4       HDR5D    0.195000       1.00800           0   0.00000       0.00000    
      1931 IM1H     97       IM1H     C3       CD2R5D    2.50700       11.6110           0  -1.08300       1.10000    
      1932 IM1H     97       IM1H     DC3      DRUD     -2.55400      0.400000           0   0.00000       0.00000    
      1933 IM1H     97       IM1H     H5       HDR5D    0.192000       1.00800           0   0.00000       0.00000    
      1934 IM1H     97       IM1H     C4       CD2R5E    2.72410       11.6110           0  -1.25300       1.20000    
      1935 IM1H     97       IM1H     DC4      DRUD     -2.74710      0.400000           0   0.00000       0.00000    
      1936 IM1H     97       IM1H     H6       HDR5E    0.203000       1.00800           0   0.00000       0.00000    
      1937 IM1H     97       IM1H     N2       ND2R5C    2.04220       13.6070           0 -0.803000       1.00000    
      1938 IM1H     97       IM1H     DN2      DRUD     -2.19920      0.400000           0   0.00000       0.00000    
      1939 IM1H     97       IM1H     H7       HDP1A    0.363000       1.00800           0   0.00000       0.00000    
      1940 IM1H     97       IM1H     LPN21    LPD       0.00000       0.00000          -1   0.00000       0.00000    
      1941 IM1H     98       IM1H     C1       CD33F     2.48500       11.6110           0  -1.18100       1.10000    
      1942 IM1H     98       IM1H     DC1      DRUD     -2.66700      0.400000           0   0.00000       0.00000    
      1943 IM1H     98       IM1H     H1       HDA3A    0.135000       1.00800           0   0.00000       0.00000    
      1944 IM1H     98       IM1H     H2       HDA3A    0.135000       1.00800           0   0.00000       0.00000    
      1945 IM1H     98       IM1H     H3       HDA3A    0.135000       1.00800           0   0.00000       0.00000    
      1946 IM1H     98       IM1H     N1       ND2R5C    2.35720       13.6070           0 -0.803000       1.00000    
      1947 IM1H     98       IM1H     DN1      DRUD     -2.19920      0.400000           0   0.00000       0.00000    
      1948 IM1H     98       IM1H     C2       CD2R5D    2.44700       11.6110           0  -1.08300       1.10000    
      1949 IM1H     98       IM1H     DC2      DRUD     -2.55400      0.400000           0   0.00000       0.00000    
      1950 IM1H     98       IM1H     H4       HDR5D    0.195000       1.00800           0   0.00000       0.00000    
      1951 IM1H     98       IM1H     C3       CD2R5D    2.50700       11.6110           0  -1.08300       1.10000    
      1952 IM1H     98       IM1H     DC3      DRUD     -2.55400      0.400000           0   0.00000       0.00000    
      1953 IM1H     98       IM1H     H5       HDR5D    0.192000       1.00800           0   0.00000       0.00000    
      1954 IM1H     98       IM1H     C4       CD2R5E    2.72410       11.6110           0  -1.25300       1.20000    
      1955 IM1H     98       IM1H     DC4      DRUD     -2.74710      0.400000           0   0.00000       0.00000    
      1956 IM1H     98       IM1H     H6       HDR5E    0.203000       1.00800           0   0.00000       0.00000    
      1957 IM1H     98       IM1H     N2       ND2R5C    2.04220       13.6070           0 -0.803000       1.00000    
      1958 IM1H     98       IM1H     DN2      DRUD     -2.19920      0.400000           0   0.00000       0.00000    
      1959 IM1H     98       IM1H     H7       HDP1A    0.363000       1.00800           0   0.00000       0.00000    
      1960 IM1H     98       IM1H     LPN21    LPD       0.00000       0.00000          -1   0.00000       0.00000    
      1961 IM1H     99       IM1H     C1       CD33F     2.48500       11.6110           0  -1.18100       1.10000    
      1962 IM1H     99       IM1H     DC1      DRUD     -2.66700      0.400000           0   0.00000       0.00000    
      1963 IM1H     99       IM1H     H1       HDA3A    0.135000       1.00800           0   0.00000       0.00000    
      1964 IM1H     99       IM1H     H2       HDA3A    0.135000       1.00800           0   0.00000       0.00000    
      1965 IM1H     99       IM1H     H3       HDA3A    0.135000       1.00800           0   0.00000       0.00000    
      1966 IM1H     99       IM1H     N1       ND2R5C    2.35720       13.6070           0 -0.803000       1.00000    
      1967 IM1H     99       IM1H     DN1      DRUD     -2.19920      0.400000           0   0.00000       0.00000    
      1968 IM1H     99       IM1H     C2       CD2R5D    2.44700       11.6110           0  -1.08300       1.10000    
      1969 IM1H     99       IM1H     DC2      DRUD     -2.55400      0.400000           0   0.00000       0.00000    
      1970 IM1H     99       IM1H     H4       HDR5D    0.195000       1.00800           0   0.00000       0.00000    
      1971 IM1H     99       IM1H     C3       CD2R5D    2.50700       11.6110           0  -1.08300       1.10000    
      1972 IM1H     99       IM1H     DC3      DRUD     -2.55400      0.400000           0   0.00000       0.00000    
      1973 IM1H     99       IM1H     H5       HDR5D    0.192000       1.00800           0   0.00000       0.00000    
      1974 IM1H     99       IM1H     C4       CD2R5E    2.72410       11.6110           0  -1.25300       1.20000    
      1975 IM1H     99       IM1H     DC4      DRUD     -2.74710      0.400000           0   0.00000       0.00000    
      1976 IM1H     99       IM1H     H6       HDR5E    0.203000       1.00800           0   0.00000       0.00000    
      1977 IM1H     99       IM1H     N2       ND2R5C    2.04220       13.6070           0 -0.803000       1.00000    
      1978 IM1H     99       IM1H     DN2      DRUD     -2.19920      0.400000           0   0.00000       0.00000    
      1979 IM1H     99       IM1H     H7       HDP1A    0.363000       1.00800           0   0.00000       0.00000    
      1980 IM1H     99       IM1H     LPN21    LPD       0.00000       0.00000          -1   0.00000       0.00000    
      1981 IM1H     100      IM1H     C1       CD33F     2.48500       11.6110           0  -1.18100       1.10000    
      1982 IM1H     100      IM1H     DC1      DRUD     -2.66700      0.400000           0   0.00000       0.00000    
      1983 IM1H     100      IM1H     H1       HDA3A    0.135000       1.00800           0   0.00000       0.00000    
      1984 IM1H     100      IM1H     H2       HDA3A    0.135000       1.00800           0   0.00000       0.00000    
      1985 IM1H     100      IM1H     H3       HDA3A    0.135000       1.00800           0   0.00000       0.00000    
      1986 IM1H     100      IM1H     N1       ND2R5C    2.35720       13.6070           0 -0.803000       1.00000    
      1987 IM1H     100      IM1H     DN1      DRUD     -2.19920      0.400000           0   0.00000       0.00000    
      1988 IM1H     100      IM1H     C2       CD2R5D    2.44700       11.6110           0  -1.08300       1.10000    
      1989 IM1H     100      IM1H     DC2      DRUD     -2.55400      0.400000           0   0.00000       0.00000    
      1990 IM1H     100      IM1H     H4       HDR5D    0.195000       1.00800           0   0.00000       0.00000    
      1991 IM1H     100      IM1H     C3       CD2R5D    2.50700       11.6110           0  -1.08300       1.10000    
      1992 IM1H     100      IM1H     DC3      DRUD     -2.55400      0.400000           0   0.00000       0.00000    
      1993 IM1H     100      IM1H     H5       HDR5D    0.192000       1.00800           0   0.00000       0.00000    
      1994 IM1H     100      IM1H     C4       CD2R5E    2.72410       11.6110           0  -1.25300       1.20000    
      1995 IM1H     100      IM1H     DC4      DRUD     -2.74710      0.400000           0   0.00000       0.00000    
      1996 IM1H     100      IM1H     H6       HDR5E    0.203000       1.00800           0   0.00000       0.00000    
      1997 IM1H     100      IM1H     N2       ND2R5C    2.04220       13.6070           0 -0.803000       1.00000    
      1998 IM1H     100      IM1H     DN2      DRUD     -2.19920      0.400000           0   0.00000       0.00000    
      1999 IM1H     100      IM1H     H7       HDP1A    0.363000       1.00800           0   0.00000       0.00000    
      2000 IM1H     100      IM1H     LPN21    LPD       0.00000       0.00000          -1   0.00000       0.00000    
      2001 IM1H     101      IM1H     C1       CD33F     2.48500       11.6110           0  -1.18100       1.10000    
      2002 IM1H     101      IM1H     DC1      DRUD     -2.66700      0.400000           0   0.00000       0.00000    
      2003 IM1H     101      IM1H     H1       HDA3A    0.135000       1.00800           0   0.00000       0.00000    
      2004 IM1H     101      IM1H     H2       HDA3A    0.135000       1.00800           0   0.00000       0.00000    
      2005 IM1H     101      IM1H     H3       HDA3A    0.135000       1.00800           0   0.00000       0.00000    
      2006 IM1H     101      IM1H     N1       ND2R5C    2.35720       13.6070           0 -0.803000       1.00000    
      2007 IM1H     101      IM1H     DN1      DRUD     -2.19920      0.400000           0   0.00000       0.00000    
      2008 IM1H     101      IM1H     C2       CD2R5D    2.44700       11.6110           0  -1.08300       1.10000    
      2009 IM1H     101      IM1H     DC2      DRUD     -2.55400      0.400000           0   0.00000       0.00000    
      2010 IM1H     101      IM1H     H4       HDR5D    0.195000       1.00800           0   0.00000       0.00000    
      2011 IM1H     101      IM1H     C3       CD2R5D    2.50700       11.6110           0  -1.08300       1.10000    
      2012 IM1H     101      IM1H     DC3      DRUD     -2.55400      0.400000           0   0.00000       0.00000    
      2013 IM1H     101      IM1H     H5       HDR5D    0.192000       1.00800           0   0.00000       0.00000    
      2014 IM1H     101      IM1H     C4       CD2R5E    2.72410       11.6110           0  -1.25300       1.20000    
      2015 IM1H     101      IM1H     DC4      DRUD     -2.74710      0.400000           0   0.00000       0.00000    
      2016 IM1H     101      IM1H     H6       HDR5E    0.203000       1.00800           0   0.00000       0.00000    
      2017 IM1H     101      IM1H     N2       ND2R5C    2.04220       13.6070           0 -0.803000       1.00000    
      2018 IM1H     101      IM1H     DN2      DRUD     -2.19920      0.400000           0   0.00000       0.00000    
      2019 IM1H     101      IM1H     H7       HDP1A    0.363000       1.00800           0   0.00000       0.00000    
      2020 IM1H     101      IM1H     LPN21    LPD       0.00000       0.00000          -1   0.00000       0.00000    
      2021 IM1H     102      IM1H     C1       CD33F     2.48500       11.6110           0  -1.18100       1.10000    
      2022 IM1H     102      IM1H     DC1      DRUD     -2.66700      0.400000           0   0.00000       0.00000    
      2023 IM1H     102      IM1H     H1       HDA3A    0.135000       1.00800           0   0.00000       0.00000    
      2024 IM1H     102      IM1H     H2       HDA3A    0.135000       1.00800           0   0.00000       0.00000    
      2025 IM1H     102      IM1H     H3       HDA3A    0.135000       1.00800           0   0.00000       0.00000    
      2026 IM1H     102      IM1H     N1       ND2R5C    2.35720       13.6070           0 -0.803000       1.00000    
      2027 IM1H     102      IM1H     DN1      DRUD     -2.19920      0.400000           0   0.00000       0.00000    
      2028 IM1H     102      IM1H     C2       CD2R5D    2.44700       11.6110           0  -1.08300       1.10000    
      2029 IM1H     102      IM1H     DC2      DRUD     -2.55400      0.400000           0   0.00000       0.00000    
      2030 IM1H     102      IM1H     H4       HDR5D    0.195000       1.00800           0   0.00000       0.00000    
      2031 IM1H     102      IM1H     C3       CD2R5D    2.50700       11.6110           0  -1.08300       1.10000    
      2032 IM1H     102      IM1H     DC3      DRUD     -2.55400      0.400000           0   0.00000       0.00000    
      2033 IM1H     102      IM1H     H5       HDR5D    0.192000       1.00800           0   0.00000       0.00000    
      2034 IM1H     102      IM1H     C4       CD2R5E    2.72410       11.6110           0  -1.25300       1.20000    
      2035 IM1H     102      IM1H     DC4      DRUD     -2.74710      0.400000           0   0.00000       0.00000    
      2036 IM1H     102      IM1H     H6       HDR5E    0.203000       1.00800           0   0.00000       0.00000    
      2037 IM1H     102      IM1H     N2       ND2R5C    2.04220       13.6070           0 -0.803000       1.00000    
      2038 IM1H     102      IM1H     DN2      DRUD     -2.19920      0.400000           0   0.00000       0.00000    
      2039 IM1H     102      IM1H     H7       HDP1A    0.363000       1.00800           0   0.00000       0.00000    
      2040 IM1H     102      IM1H     LPN21    LPD       0.00000       0.00000          -1   0.00000       0.00000    
      2041 IM1H     103      IM1H     C1       CD33F     2.48500       11.6110           0  -1.18100       1.10000    
      2042 IM1H     103      IM1H     DC1      DRUD     -2.66700      0.400000           0   0.00000       0.00000    
      2043 IM1H     103      IM1H     H1       HDA3A    0.135000       1.00800           0   0.00000       0.00000    
      2044 IM1H     103      IM1H     H2       HDA3A    0.135000       1.00800           0   0.00000       0.00000    
      2045 IM1H     103      IM1H     H3       HDA3A    0.135000       1.00800           0   0.00000       0.00000    
      2046 IM1H     103      IM1H     N1       ND2R5C    2.35720       13.6070           0 -0.803000       1.00000    
      2047 IM1H     103      IM1H     DN1      DRUD     -2.19920      0.400000           0   0.00000       0.00000    
      2048 IM1H     103      IM1H     C2       CD2R5D    2.44700       11.6110           0  -1.08300       1.10000    
      2049 IM1H     103      IM1H     DC2      DRUD     -2.55400      0.400000           0   0.00000       0.00000    
      2050 IM1H     103      IM1H     H4       HDR5D    0.195000       1.00800           0   0.00000       0.00000    
      2051 IM1H     103      IM1H     C3       CD2R5D    2.50700       11.6110           0  -1.08300       1.10000    
      2052 IM1H     103      IM1H     DC3      DRUD     -2.55400      0.400000           0   0.00000       0.00000    
      2053 IM1H     103      IM1H     H5       HDR5D    0.192000       1.00800           0   0.00000       0.00000    
      2054 IM1H     103      IM1H     C4       CD2R5E    2.72410       11.6110           0  -1.25300       1.20000    
      2055 IM1H     103      IM1H     DC4      DRUD     -2.74710      0.400000           0   0.00000       0.00000    
      2056 IM1H     103      IM1H     H6       HDR5E    0.203000       1.00800           0   0.00000       0.00000    
      2057 IM1H     103      IM1H     N2       ND2R5C    2.04220       13.6070           0 -0.803000       1.00000    
      2058 IM1H     103      IM1H     DN2      DRUD     -2.19920      0.400000           0   0.00000       0.00000    
      2059 IM1H     103      IM1H     H7       HDP1A    0.363000       1.00800           0   0.00000       0.00000    
      2060 IM1H     103      IM1H     LPN21    LPD       0.00000       0.00000          -1   0.00000       0.00000    
      2061 IM1H     104      IM1H     C1       CD33F     2.48500       11.6110           0  -1.18100       1.10000    
      2062 IM1H     104      IM1H     DC1      DRUD     -2.66700      0.400000           0   0.00000       0.00000    
      2063 IM1H     104      IM1H     H1       HDA3A    0.135000       1.00800           0   0.00000       0.00000    
      2064 IM1H     104      IM1H     H2       HDA3A    0.135000       1.00800           0   0.00000       0.00000    
      2065 IM1H     104      IM1H     H3       HDA3A    0.135000       1.00800           0   0.00000       0.00000    
      2066 IM1H     104      IM1H     N1       ND2R5C    2.35720       13.6070           0 -0.803000       1.00000    
      2067 IM1H     104      IM1H     DN1      DRUD     -2.19920      0.400000           0   0.00000       0.00000    
      2068 IM1H     104      IM1H     C2       CD2R5D    2.44700       11.6110           0  -1.08300       1.10000    
      2069 IM1H     104      IM1H     DC2      DRUD     -2.55400      0.400000           0   0.00000       0.00000    
      2070 IM1H     104      IM1H     H4       HDR5D    0.195000       1.00800           0   0.00000       0.00000    
      2071 IM1H     104      IM1H     C3       CD2R5D    2.50700       11.6110           0  -1.08300       1.10000    
      2072 IM1H     104      IM1H     DC3      DRUD     -2.55400      0.400000           0   0.00000       0.00000    
      2073 IM1H     104      IM1H     H5       HDR5D    0.192000       1.00800           0   0.00000       0.00000    
      2074 IM1H     104      IM1H     C4       CD2R5E    2.72410       11.6110           0  -1.25300       1.20000    
      2075 IM1H     104      IM1H     DC4      DRUD     -2.74710      0.400000           0   0.00000       0.00000    
      2076 IM1H     104      IM1H     H6       HDR5E    0.203000       1.00800           0   0.00000       0.00000    
      2077 IM1H     104      IM1H     N2       ND2R5C    2.04220       13.6070           0 -0.803000       1.00000    
      2078 IM1H     104      IM1H     DN2      DRUD     -2.19920      0.400000           0   0.00000       0.00000    
      2079 IM1H     104      IM1H     H7       HDP1A    0.363000       1.00800           0   0.00000       0.00000    
      2080 IM1H     104      IM1H     LPN21    LPD       0.00000       0.00000          -1   0.00000       0.00000    
      2081 IM1H     105      IM1H     C1       CD33F     2.48500       11.6110           0  -1.18100       1.10000    
      2082 IM1H     105      IM1H     DC1      DRUD     -2.66700      0.400000           0   0.00000       0.00000    
      2083 IM1H     105      IM1H     H1       HDA3A    0.135000       1.00800           0   0.00000       0.00000    
      2084 IM1H     105      IM1H     H2       HDA3A    0.135000       1.00800           0   0.00000       0.00000    
      2085 IM1H     105      IM1H     H3       HDA3A    0.135000       1.00800           0   0.00000       0.00000    
      2086 IM1H     105      IM1H     N1       ND2R5C    2.35720       13.6070           0 -0.803000       1.00000    
      2087 IM1H     105      IM1H     DN1      DRUD     -2.19920      0.400000           0   0.00000       0.00000    
      2088 IM1H     105      IM1H     C2       CD2R5D    2.44700       11.6110           0  -1.08300       1.10000    
      2089 IM1H     105      IM1H     DC2      DRUD     -2.55400      0.400000           0   0.00000       0.00000    
      2090 IM1H     105      IM1H     H4       HDR5D    0.195000       1.00800           0   0.00000       0.00000    
      2091 IM1H     105      IM1H     C3       CD2R5D    2.50700       11.6110           0  -1.08300       1.10000    
      2092 IM1H     105      IM1H     DC3      DRUD     -2.55400      0.400000           0   0.00000       0.00000    
      2093 IM1H     105      IM1H     H5       HDR5D    0.192000       1.00800           0   0.00000       0.00000    
      2094 IM1H     105      IM1H     C4       CD2R5E    2.72410       11.6110           0  -1.25300       1.20000    
      2095 IM1H     105      IM1H     DC4      DRUD     -2.74710      0.400000           0   0.00000       0.00000    
      2096 IM1H     105      IM1H     H6       HDR5E    0.203000       1.00800           0   0.00000       0.00000    
      2097 IM1H     105      IM1H     N2       ND2R5C    2.04220       13.6070           0 -0.803000       1.00000    
      2098 IM1H     105      IM1H     DN2      DRUD     -2.19920      0.400000           0   0.00000       0.00000    
      2099 IM1H     105      IM1H     H7       HDP1A    0.363000       1.00800           0   0.00000       0.00000    
      2100 IM1H     105      IM1H     LPN21    LPD       0.00000       0.00000          -1   0.00000       0.00000    
      2101 IM1H     106      IM1H     C1       CD33F     2.48500       11.6110           0  -1.18100       1.10000    
      2102 IM1H     106      IM1H     DC1      DRUD     -2.66700      0.400000           0   0.00000       0.00000    
      2103 IM1H     106      IM1H     H1       HDA3A    0.135000       1.00800           0   0.00000       0.00000    
      2104 IM1H     106      IM1H     H2       HDA3A    0.135000       1.00800           0   0.00000       0.00000    
      2105 IM1H     106      IM1H     H3       HDA3A    0.135000       1.00800           0   0.00000       0.00000    
      2106 IM1H     106      IM1H     N1       ND2R5C    2.35720       13.6070           0 -0.803000       1.00000    
      2107 IM1H     106      IM1H     DN1      DRUD     -2.19920      0.400000           0   0.00000       0.00000    
      2108 IM1H     106      IM1H     C2       CD2R5D    2.44700       11.6110           0  -1.08300       1.10000    
      2109 IM1H     106      IM1H     DC2      DRUD     -2.55400      0.400000           0   0.00000       0.00000    
      2110 IM1H     106      IM1H     H4       HDR5D    0.195000       1.00800           0   0.00000       0.00000    
      2111 IM1H     106      IM1H     C3       CD2R5D    2.50700       11.6110           0  -1.08300       1.10000    
      2112 IM1H     106      IM1H     DC3      DRUD     -2.55400      0.400000           0   0.00000       0.00000    
      2113 IM1H     106      IM1H     H5       HDR5D    0.192000       1.00800           0   0.00000       0.00000    
      2114 IM1H     106      IM1H     C4       CD2R5E    2.72410       11.6110           0  -1.25300       1.20000    
      2115 IM1H     106      IM1H     DC4      DRUD     -2.74710      0.400000           0   0.00000       0.00000    
      2116 IM1H     106      IM1H     H6       HDR5E    0.203000       1.00800           0   0.00000       0.00000    
      2117 IM1H     106      IM1H     N2       ND2R5C    2.04220       13.6070           0 -0.803000       1.00000    
      2118 IM1H     106      IM1H     DN2      DRUD     -2.19920      0.400000           0   0.00000       0.00000    
      2119 IM1H     106      IM1H     H7       HDP1A    0.363000       1.00800           0   0.00000       0.00000    
      2120 IM1H     106      IM1H     LPN21    LPD       0.00000       0.00000          -1   0.00000       0.00000    
      2121 IM1H     107      IM1H     C1       CD33F     2.48500       11.6110           0  -1.18100       1.10000    
      2122 IM1H     107      IM1H     DC1      DRUD     -2.66700      0.400000           0   0.00000       0.00000    
      2123 IM1H     107      IM1H     H1       HDA3A    0.135000       1.00800           0   0.00000       0.00000    
      2124 IM1H     107      IM1H     H2       HDA3A    0.135000       1.00800           0   0.00000       0.00000    
      2125 IM1H     107      IM1H     H3       HDA3A    0.135000       1.00800           0   0.00000       0.00000    
      2126 IM1H     107      IM1H     N1       ND2R5C    2.35720       13.6070           0 -0.803000       1.00000    
      2127 IM1H     107      IM1H     DN1      DRUD     -2.19920      0.400000           0   0.00000       0.00000    
      2128 IM1H     107      IM1H     C2       CD2R5D    2.44700       11.6110           0  -1.08300       1.10000    
      2129 IM1H     107      IM1H     DC2      DRUD     -2.55400      0.400000           0   0.00000       0.00000    
      2130 IM1H     107      IM1H     H4       HDR5D    0.195000       1.00800           0   0.00000       0.00000    
      2131 IM1H     107      IM1H     C3       CD2R5D    2.50700       11.6110           0  -1.08300       1.10000    
      2132 IM1H     107      IM1H     DC3      DRUD     -2.55400      0.400000           0   0.00000       0.00000    
      2133 IM1H     107      IM1H     H5       HDR5D    0.192000       1.00800           0   0.00000       0.00000    
      2134 IM1H     107      IM1H     C4       CD2R5E    2.72410       11.6110           0  -1.25300       1.20000    
      2135 IM1H     107      IM1H     DC4      DRUD     -2.74710      0.400000           0   0.00000       0.00000    
      2136 IM1H     107      IM1H     H6       HDR5E    0.203000       1.00800           0   0.00000       0.00000    
      2137 IM1H     107      IM1H     N2       ND2R5C    2.04220       13.6070           0 -0.803000       1.00000    
      2138 IM1H     107      IM1H     DN2      DRUD     -2.19920      0.400000           0   0.00000       0.00000    
      2139 IM1H     107      IM1H     H7       HDP1A    0.363000       1.00800           0   0.00000       0.00000    
      2140 IM1H     107      IM1H     LPN21    LPD       0.00000       0.00000          -1   0.00000       0.00000    
      2141 IM1H     108      IM1H     C1       CD33F     2.48500       11.6110           0  -1.18100       1.10000    
      2142 IM1H     108      IM1H     DC1      DRUD     -2.66700      0.400000           0   0.00000       0.00000    
      2143 IM1H     108      IM1H     H1       HDA3A    0.135000       1.00800           0   0.00000       0.00000    
      2144 IM1H     108      IM1H     H2       HDA3A    0.135000       1.00800           0   0.00000       0.00000    
      2145 IM1H     108      IM1H     H3       HDA3A    0.135000       1.00800           0   0.00000       0.00000    
      2146 IM1H     108      IM1H     N1       ND2R5C    2.35720       13.6070           0 -0.803000       1.00000    
      2147 IM1H     108      IM1H     DN1      DRUD     -2.19920      0.400000           0   0.00000       0.00000    
      2148 IM1H     108      IM1H     C2       CD2R5D    2.44700       11.6110           0  -1.08300       1.10000    
      2149 IM1H     108      IM1H     DC2      DRUD     -2.55400      0.400000           0   0.00000       0.00000    
      2150 IM1H     108      IM1H     H4       HDR5D    0.195000       1.00800           0   0.00000       0.00000    
      2151 IM1H     108      IM1H     C3       CD2R5D    2.50700       11.6110           0  -1.08300       1.10000    
      2152 IM1H     108      IM1H     DC3      DRUD     -2.55400      0.400000           0   0.00000       0.00000    
      2153 IM1H     108      IM1H     H5       HDR5D    0.192000       1.00800           0   0.00000       0.00000    
      2154 IM1H     108      IM1H     C4       CD2R5E    2.72410       11.6110           0  -1.25300       1.20000    
      2155 IM1H     108      IM1H     DC4      DRUD     -2.74710      0.400000           0   0.00000       0.00000    
      2156 IM1H     108      IM1H     H6       HDR5E    0.203000       1.00800           0   0.00000       0.00000    
      2157 IM1H     108      IM1H     N2       ND2R5C    2.04220       13.6070           0 -0.803000       1.00000    
      2158 IM1H     108      IM1H     DN2      DRUD     -2.19920      0.400000           0   0.00000       0.00000    
      2159 IM1H     108      IM1H     H7       HDP1A    0.363000       1.00800           0   0.00000       0.00000    
      2160 IM1H     108      IM1H     LPN21    LPD       0.00000       0.00000          -1   0.00000       0.00000    
      2161 IM1H     109      IM1H     C1       CD33F     2.48500       11.6110           0  -1.18100       1.10000    
      2162 IM1H     109      IM1H     DC1      DRUD     -2.66700      0.400000           0   0.00000       0.00000    
      2163 IM1H     109      IM1H     H1       HDA3A    0.135000       1.00800           0   0.00000       0.00000    
      2164 IM1H     109      IM1H     H2       HDA3A    0.135000       1.00800           0   0.00000       0.00000    
      2165 IM1H     109      IM1H     H3       HDA3A    0.135000       1.00800           0   0.00000       0.00000    
      2166 IM1H     109      IM1H     N1       ND2R5C    2.35720       13.6070           0 -0.803000       1.00000    
      2167 IM1H     109      IM1H     DN1      DRUD     -2.19920      0.400000           0   0.00000       0.00000    
      2168 IM1H     109      IM1H     C2       CD2R5D    2.44700       11.6110           0  -1.08300       1.10000    
      2169 IM1H     109      IM1H     DC2      DRUD     -2.55400      0.400000           0   0.00000       0.00000    
      2170 IM1H     109      IM1H     H4       HDR5D    0.195000       1.00800           0   0.00000       0.00000    
      2171 IM1H     109      IM1H     C3       CD2R5D    2.50700       11.6110           0  -1.08300       1.10000    
      2172 IM1H     109      IM1H     DC3      DRUD     -2.55400      0.400000           0   0.00000       0.00000    
      2173 IM1H     109      IM1H     H5       HDR5D    0.192000       1.00800           0   0.00000       0.00000    
      2174 IM1H     109      IM1H     C4       CD2R5E    2.72410       11.6110           0  -1.25300       1.20000    
      2175 IM1H     109      IM1H     DC4      DRUD     -2.74710      0.400000           0   0.00000       0.00000    
      2176 IM1H     109      IM1H     H6       HDR5E    0.203000       1.00800           0   0.00000       0.00000    
      2177 IM1H     109      IM1H     N2       ND2R5C    2.04220       13.6070           0 -0.803000       1.00000    
      2178 IM1H     109      IM1H     DN2      DRUD     -2.19920      0.400000           0   0.00000       0.00000    
      2179 IM1H     109      IM1H     H7       HDP1A    0.363000       1.00800           0   0.00000       0.00000    
      2180 IM1H     109      IM1H     LPN21    LPD       0.00000       0.00000          -1   0.00000       0.00000    
      2181 IM1H     110      IM1H     C1       CD33F     2.48500       11.6110           0  -1.18100       1.10000    
      2182 IM1H     110      IM1H     DC1      DRUD     -2.66700      0.400000           0   0.00000       0.00000    
      2183 IM1H     110      IM1H     H1       HDA3A    0.135000       1.00800           0   0.00000       0.00000    
      2184 IM1H     110      IM1H     H2       HDA3A    0.135000       1.00800           0   0.00000       0.00000    
      2185 IM1H     110      IM1H     H3       HDA3A    0.135000       1.00800           0   0.00000       0.00000    
      2186 IM1H     110      IM1H     N1       ND2R5C    2.35720       13.6070           0 -0.803000       1.00000    
      2187 IM1H     110      IM1H     DN1      DRUD     -2.19920      0.400000           0   0.00000       0.00000    
      2188 IM1H     110      IM1H     C2       CD2R5D    2.44700       11.6110           0  -1.08300       1.10000    
      2189 IM1H     110      IM1H     DC2      DRUD     -2.55400      0.400000           0   0.00000       0.00000    
      2190 IM1H     110      IM1H     H4       HDR5D    0.195000       1.00800           0   0.00000       0.00000    
      2191 IM1H     110      IM1H     C3       CD2R5D    2.50700       11.6110           0  -1.08300       1.10000    
      2192 IM1H     110      IM1H     DC3      DRUD     -2.55400      0.400000           0   0.00000       0.00000    
      2193 IM1H     110      IM1H     H5       HDR5D    0.192000       1.00800           0   0.00000       0.00000    
      2194 IM1H     110      IM1H     C4       CD2R5E    2.72410       11.6110           0  -1.25300       1.20000    
      2195 IM1H     110      IM1H     DC4      DRUD     -2.74710      0.400000           0   0.00000       0.00000    
      2196 IM1H     110      IM1H     H6       HDR5E    0.203000       1.00800           0   0.00000       0.00000    
      2197 IM1H     110      IM1H     N2       ND2R5C    2.04220       13.6070           0 -0.803000       1.00000    
      2198 IM1H     110      IM1H     DN2      DRUD     -2.19920      0.400000           0   0.00000       0.00000    
      2199 IM1H     110      IM1H     H7       HDP1A    0.363000       1.00800           0   0.00000       0.00000    
      2200 IM1H     110      IM1H     LPN21    LPD       0.00000       0.00000          -1   0.00000       0.00000    
      2201 IM1H     111      IM1H     C1       CD33F     2.48500       11.6110           0  -1.18100       1.10000    
      2202 IM1H     111      IM1H     DC1      DRUD     -2.66700      0.400000           0   0.00000       0.00000    
      2203 IM1H     111      IM1H     H1       HDA3A    0.135000       1.00800           0   0.00000       0.00000    
      2204 IM1H     111      IM1H     H2       HDA3A    0.135000       1.00800           0   0.00000       0.00000    
      2205 IM1H     111      IM1H     H3       HDA3A    0.135000       1.00800           0   0.00000       0.00000    
      2206 IM1H     111      IM1H     N1       ND2R5C    2.35720       13.6070           0 -0.803000       1.00000    
      2207 IM1H     111      IM1H     DN1      DRUD     -2.19920      0.400000           0   0.00000       0.00000    
      2208 IM1H     111      IM1H     C2       CD2R5D    2.44700       11.6110           0  -1.08300       1.10000    
      2209 IM1H     111      IM1H     DC2      DRUD     -2.55400      0.400000           0   0.00000       0.00000    
      2210 IM1H     111      IM1H     H4       HDR5D    0.195000       1.00800           0   0.00000       0.00000    
      2211 IM1H     111      IM1H     C3       CD2R5D    2.50700       11.6110           0  -1.08300       1.10000    
      2212 IM1H     111      IM1H     DC3      DRUD     -2.55400      0.400000           0   0.00000       0.00000    
      2213 IM1H     111      IM1H     H5       HDR5D    0.192000       1.00800           0   0.00000       0.00000    
      2214 IM1H     111      IM1H     C4       CD2R5E    2.72410       11.6110           0  -1.25300       1.20000    
      2215 IM1H     111      IM1H     DC4      DRUD     -2.74710      0.400000           0   0.00000       0.00000    
      2216 IM1H     111      IM1H     H6       HDR5E    0.203000       1.00800           0   0.00000       0.00000    
      2217 IM1H     111      IM1H     N2       ND2R5C    2.04220       13.6070           0 -0.803000       1.00000    
      2218 IM1H     111      IM1H     DN2      DRUD     -2.19920      0.400000           0   0.00000       0.00000    
      2219 IM1H     111      IM1H     H7       HDP1A    0.363000       1.00800           0   0.00000       0.00000    
      2220 IM1H     111      IM1H     LPN21    LPD       0.00000       0.00000          -1   0.00000       0.00000    
      2221 IM1H     112      IM1H     C1       CD33F     2.48500       11.6110           0  -1.18100       1.10000    
      2222 IM1H     112      IM1H     DC1      DRUD     -2.66700      0.400000           0   0.00000       0.00000    
      2223 IM1H     112      IM1H     H1       HDA3A    0.135000       1.00800           0   0.00000       0.00000    
      2224 IM1H     112      IM1H     H2       HDA3A    0.135000       1.00800           0   0.00000       0.00000    
      2225 IM1H     112      IM1H     H3       HDA3A    0.135000       1.00800           0   0.00000       0.00000    
      2226 IM1H     112      IM1H     N1       ND2R5C    2.35720       13.6070           0 -0.803000       1.00000    
      2227 IM1H     112      IM1H     DN1      DRUD     -2.19920      0.400000           0   0.00000       0.00000    
      2228 IM1H     112      IM1H     C2       CD2R5D    2.44700       11.6110           0  -1.08300       1.10000    
      2229 IM1H     112      IM1H     DC2      DRUD     -2.55400      0.400000           0   0.00000       0.00000    
      2230 IM1H     112      IM1H     H4       HDR5D    0.195000       1.00800           0   0.00000       0.00000    
      2231 IM1H     112      IM1H     C3       CD2R5D    2.50700       11.6110           0  -1.08300       1.10000    
      2232 IM1H     112      IM1H     DC3      DRUD     -2.55400      0.400000           0   0.00000       0.00000    
      2233 IM1H     112      IM1H     H5       HDR5D    0.192000       1.00800           0   0.00000       0.00000    
      2234 IM1H     112      IM1H     C4       CD2R5E    2.72410       11.6110           0  -1.25300       1.20000    
      2235 IM1H     112      IM1H     DC4      DRUD     -2.74710      0.400000           0   0.00000       0.00000    
      2236 IM1H     112      IM1H     H6       HDR5E    0.203000       1.00800           0   0.00000       0.00000    
      2237 IM1H     112      IM1H     N2       ND2R5C    2.04220       13.6070           0 -0.803000       1.00000    
      2238 IM1H     112      IM1H     DN2      DRUD     -2.19920      0.400000           0   0.00000       0.00000    
      2239 IM1H     112      IM1H     H7       HDP1A    0.363000       1.00800           0   0.00000       0.00000    
      2240 IM1H     112      IM1H     LPN21    LPD       0.00000       0.00000          -1   0.00000       0.00000    
      2241 IM1H     113      IM1H     C1       CD33F     2.48500       11.6110           0  -1.18100       1.10000    
      2242 IM1H     113      IM1H     DC1      DRUD     -2.66700      0.400000           0   0.00000       0.00000    
      2243 IM1H     113      IM1H     H1       HDA3A    0.135000       1.00800           0   0.00000       0.00000    
      2244 IM1H     113      IM1H     H2       HDA3A    0.135000       1.00800           0   0.00000       0.00000    
      2245 IM1H     113      IM1H     H3       HDA3A    0.135000       1.00800           0   0.00000       0.00000    
      2246 IM1H     113      IM1H     N1       ND2R5C    2.35720       13.6070           0 -0.803000       1.00000    
      2247 IM1H     113      IM1H     DN1      DRUD     -2.19920      0.400000           0   0.00000       0.00000    
      2248 IM1H     113      IM1H     C2       CD2R5D    2.44700       11.6110           0  -1.08300       1.10000    
      2249 IM1H     113      IM1H     DC2      DRUD     -2.55400      0.400000           0   0.00000       0.00000    
      2250 IM1H     113      IM1H     H4       HDR5D    0.195000       1.00800           0   0.00000       0.00000    
      2251 IM1H     113      IM1H     C3       CD2R5D    2.50700       11.6110           0  -1.08300       1.10000    
      2252 IM1H     113      IM1H     DC3      DRUD     -2.55400      0.400000           0   0.00000       0.00000    
      2253 IM1H     113      IM1H     H5       HDR5D    0.192000       1.00800           0   0.00000       0.00000    
      2254 IM1H     113      IM1H     C4       CD2R5E    2.72410       11.6110           0  -1.25300       1.20000    
      2255 IM1H     113      IM1H     DC4      DRUD     -2.74710      0.400000           0   0.00000       0.00000    
      2256 IM1H     113      IM1H     H6       HDR5E    0.203000       1.00800           0   0.00000       0.00000    
      2257 IM1H     113      IM1H     N2       ND2R5C    2.04220       13.6070           0 -0.803000       1.00000    
      2258 IM1H     113      IM1H     DN2      DRUD     -2.19920      0.400000           0   0.00000       0.00000    
      2259 IM1H     113      IM1H     H7       HDP1A    0.363000       1.00800           0   0.00000       0.00000    
      2260 IM1H     113      IM1H     LPN21    LPD       0.00000       0.00000          -1   0.00000       0.00000    
      2261 IM1H     114      IM1H     C1       CD33F     2.48500       11.6110           0  -1.18100       1.10000    
      2262 IM1H     114      IM1H     DC1      DRUD     -2.66700      0.400000           0   0.00000       0.00000    
      2263 IM1H     114      IM1H     H1       HDA3A    0.135000       1.00800           0   0.00000       0.00000    
      2264 IM1H     114      IM1H     H2       HDA3A    0.135000       1.00800           0   0.00000       0.00000    
      2265 IM1H     114      IM1H     H3       HDA3A    0.135000       1.00800           0   0.00000       0.00000    
      2266 IM1H     114      IM1H     N1       ND2R5C    2.35720       13.6070           0 -0.803000       1.00000    
      2267 IM1H     114      IM1H     DN1      DRUD     -2.19920      0.400000           0   0.00000       0.00000    
      2268 IM1H     114      IM1H     C2       CD2R5D    2.44700       11.6110           0  -1.08300       1.10000    
      2269 IM1H     114      IM1H     DC2      DRUD     -2.55400      0.400000           0   0.00000       0.00000    
      2270 IM1H     114      IM1H     H4       HDR5D    0.195000       1.00800           0   0.00000       0.00000    
      2271 IM1H     114      IM1H     C3       CD2R5D    2.50700       11.6110           0  -1.08300       1.10000    
      2272 IM1H     114      IM1H     DC3      DRUD     -2.55400      0.400000           0   0.00000       0.00000    
      2273 IM1H     114      IM1H     H5       HDR5D    0.192000       1.00800           0   0.00000       0.00000    
      2274 IM1H     114      IM1H     C4       CD2R5E    2.72410       11.6110           0  -1.25300       1.20000    
      2275 IM1H     114      IM1H     DC4      DRUD     -2.74710      0.400000           0   0.00000       0.00000    
      2276 IM1H     114      IM1H     H6       HDR5E    0.203000       1.00800           0   0.00000       0.00000    
      2277 IM1H     114      IM1H     N2       ND2R5C    2.04220       13.6070           0 -0.803000       1.00000    
      2278 IM1H     114      IM1H     DN2      DRUD     -2.19920      0.400000           0   0.00000       0.00000    
      2279 IM1H     114      IM1H     H7       HDP1A    0.363000       1.00800           0   0.00000       0.00000    
      2280 IM1H     114      IM1H     LPN21    LPD       0.00000       0.00000          -1   0.00000       0.00000    
      2281 IM1H     115      IM1H     C1       CD33F     2.48500       11.6110           0  -1.18100       1.10000    
      2282 IM1H     115      IM1H     DC1      DRUD     -2.66700      0.400000           0   0.00000       0.00000    
      2283 IM1H     115      IM1H     H1       HDA3A    0.135000       1.00800           0   0.00000       0.00000    
      2284 IM1H     115      IM1H     H2       HDA3A    0.135000       1.00800           0   0.00000       0.00000    
      2285 IM1H     115      IM1H     H3       HDA3A    0.135000       1.00800           0   0.00000       0.00000    
      2286 IM1H     115      IM1H     N1       ND2R5C    2.35720       13.6070           0 -0.803000       1.00000    
      2287 IM1H     115      IM1H     DN1      DRUD     -2.19920      0.400000           0   0.00000       0.00000    
      2288 IM1H     115      IM1H     C2       CD2R5D    2.44700       11.6110           0  -1.08300       1.10000    
      2289 IM1H     115      IM1H     DC2      DRUD     -2.55400      0.400000           0   0.00000       0.00000    
      2290 IM1H     115      IM1H     H4       HDR5D    0.195000       1.00800           0   0.00000       0.00000    
      2291 IM1H     115      IM1H     C3       CD2R5D    2.50700       11.6110           0  -1.08300       1.10000    
      2292 IM1H     115      IM1H     DC3      DRUD     -2.55400      0.400000           0   0.00000       0.00000    
      2293 IM1H     115      IM1H     H5       HDR5D    0.192000       1.00800           0   0.00000       0.00000    
      2294 IM1H     115      IM1H     C4       CD2R5E    2.72410       11.6110           0  -1.25300       1.20000    
      2295 IM1H     115      IM1H     DC4      DRUD     -2.74710      0.400000           0   0.00000       0.00000    
      2296 IM1H     115      IM1H     H6       HDR5E    0.203000       1.00800           0   0.00000       0.00000    
      2297 IM1H     115      IM1H     N2       ND2R5C    2.04220       13.6070           0 -0.803000       1.00000    
      2298 IM1H     115      IM1H     DN2      DRUD     -2.19920      0.400000           0   0.00000       0.00000    
      2299 IM1H     115      IM1H     H7       HDP1A    0.363000       1.00800           0   0.00000       0.00000    
      2300 IM1H     115      IM1H     LPN21    LPD       0.00000       0.00000          -1   0.00000       0.00000    
      2301 IM1H     116      IM1H     C1       CD33F     2.48500       11.6110           0  -1.18100       1.10000    
      2302 IM1H     116      IM1H     DC1      DRUD     -2.66700      0.400000           0   0.00000       0.00000    
      2303 IM1H     116      IM1H     H1       HDA3A    0.135000       1.00800           0   0.00000       0.00000    
      2304 IM1H     116      IM1H     H2       HDA3A    0.135000       1.00800           0   0.00000       0.00000    
      2305 IM1H     116      IM1H     H3       HDA3A    0.135000       1.00800           0   0.00000       0.00000    
      2306 IM1H     116      IM1H     N1       ND2R5C    2.35720       13.6070           0 -0.803000       1.00000    
      2307 IM1H     116      IM1H     DN1      DRUD     -2.19920      0.400000           0   0.00000       0.00000    
      2308 IM1H     116      IM1H     C2       CD2R5D    2.44700       11.6110           0  -1.08300       1.10000    
      2309 IM1H     116      IM1H     DC2      DRUD     -2.55400      0.400000           0   0.00000       0.00000    
      2310 IM1H     116      IM1H     H4       HDR5D    0.195000       1.00800           0   0.00000       0.00000    
      2311 IM1H     116      IM1H     C3       CD2R5D    2.50700       11.6110           0  -1.08300       1.10000    
      2312 IM1H     116      IM1H     DC3      DRUD     -2.55400      0.400000           0   0.00000       0.00000    
      2313 IM1H     116      IM1H     H5       HDR5D    0.192000       1.00800           0   0.00000       0.00000    
      2314 IM1H     116      IM1H     C4       CD2R5E    2.72410       11.6110           0  -1.25300       1.20000    
      2315 IM1H     116      IM1H     DC4      DRUD     -2.74710      0.400000           0   0.00000       0.00000    
      2316 IM1H     116      IM1H     H6       HDR5E    0.203000       1.00800           0   0.00000       0.00000    
      2317 IM1H     116      IM1H     N2       ND2R5C    2.04220       13.6070           0 -0.803000       1.00000    
      2318 IM1H     116      IM1H     DN2      DRUD     -2.19920      0.400000           0   0.00000       0.00000    
      2319 IM1H     116      IM1H     H7       HDP1A    0.363000       1.00800           0   0.00000       0.00000    
      2320 IM1H     116      IM1H     LPN21    LPD       0.00000       0.00000          -1   0.00000       0.00000    
      2321 IM1H     117      IM1H     C1       CD33F     2.48500       11.6110           0  -1.18100       1.10000    
      2322 IM1H     117      IM1H     DC1      DRUD     -2.66700      0.400000           0   0.00000       0.00000    
      2323 IM1H     117      IM1H     H1       HDA3A    0.135000       1.00800           0   0.00000       0.00000    
      2324 IM1H     117      IM1H     H2       HDA3A    0.135000       1.00800           0   0.00000       0.00000    
      2325 IM1H     117      IM1H     H3       HDA3A    0.135000       1.00800           0   0.00000       0.00000    
      2326 IM1H     117      IM1H     N1       ND2R5C    2.35720       13.6070           0 -0.803000       1.00000    
      2327 IM1H     117      IM1H     DN1      DRUD     -2.19920      0.400000           0   0.00000       0.00000    
      2328 IM1H     117      IM1H     C2       CD2R5D    2.44700       11.6110           0  -1.08300       1.10000    
      2329 IM1H     117      IM1H     DC2      DRUD     -2.55400      0.400000           0   0.00000       0.00000    
      2330 IM1H     117      IM1H     H4       HDR5D    0.195000       1.00800           0   0.00000       0.00000    
      2331 IM1H     117      IM1H     C3       CD2R5D    2.50700       11.6110           0  -1.08300       1.10000    
      2332 IM1H     117      IM1H     DC3      DRUD     -2.55400      0.400000           0   0.00000       0.00000    
      2333 IM1H     117      IM1H     H5       HDR5D    0.192000       1.00800           0   0.00000       0.00000    
      2334 IM1H     117      IM1H     C4       CD2R5E    2.72410       11.6110           0  -1.25300       1.20000    
      2335 IM1H     117      IM1H     DC4      DRUD     -2.74710      0.400000           0   0.00000       0.00000    
      2336 IM1H     117      IM1H     H6       HDR5E    0.203000       1.00800           0   0.00000       0.00000    
      2337 IM1H     117      IM1H     N2       ND2R5C    2.04220       13.6070           0 -0.803000       1.00000    
      2338 IM1H     117      IM1H     DN2      DRUD     -2.19920      0.400000           0   0.00000       0.00000    
      2339 IM1H     117      IM1H     H7       HDP1A    0.363000       1.00800           0   0.00000       0.00000    
      2340 IM1H     117      IM1H     LPN21    LPD       0.00000       0.00000          -1   0.00000       0.00000    
      2341 IM1H     118      IM1H     C1       CD33F     2.48500       11.6110           0  -1.18100       1.10000    
      2342 IM1H     118      IM1H     DC1      DRUD     -2.66700      0.400000           0   0.00000       0.00000    
      2343 IM1H     118      IM1H     H1       HDA3A    0.135000       1.00800           0   0.00000       0.00000    
      2344 IM1H     118      IM1H     H2       HDA3A    0.135000       1.00800           0   0.00000       0.00000    
      2345 IM1H     118      IM1H     H3       HDA3A    0.135000       1.00800           0   0.00000       0.00000    
      2346 IM1H     118      IM1H     N1       ND2R5C    2.35720       13.6070           0 -0.803000       1.00000    
      2347 IM1H     118      IM1H     DN1      DRUD     -2.19920      0.400000           0   0.00000       0.00000    
      2348 IM1H     118      IM1H     C2       CD2R5D    2.44700       11.6110           0  -1.08300       1.10000    
      2349 IM1H     118      IM1H     DC2      DRUD     -2.55400      0.400000           0   0.00000       0.00000    
      2350 IM1H     118      IM1H     H4       HDR5D    0.195000       1.00800           0   0.00000       0.00000    
      2351 IM1H     118      IM1H     C3       CD2R5D    2.50700       11.6110           0  -1.08300       1.10000    
      2352 IM1H     118      IM1H     DC3      DRUD     -2.55400      0.400000           0   0.00000       0.00000    
      2353 IM1H     118      IM1H     H5       HDR5D    0.192000       1.00800           0   0.00000       0.00000    
      2354 IM1H     118      IM1H     C4       CD2R5E    2.72410       11.6110           0  -1.25300       1.20000    
      2355 IM1H     118      IM1H     DC4      DRUD     -2.74710      0.400000           0   0.00000       0.00000    
      2356 IM1H     118      IM1H     H6       HDR5E    0.203000       1.00800           0   0.00000       0.00000    
      2357 IM1H     118      IM1H     N2       ND2R5C    2.04220       13.6070           0 -0.803000       1.00000    
      2358 IM1H     118      IM1H     DN2      DRUD     -2.19920      0.400000           0   0.00000       0.00000    
      2359 IM1H     118      IM1H     H7       HDP1A    0.363000       1.00800           0   0.00000       0.00000    
      2360 IM1H     118      IM1H     LPN21    LPD       0.00000       0.00000          -1   0.00000       0.00000    
      2361 IM1H     119      IM1H     C1       CD33F     2.48500       11.6110           0  -1.18100       1.10000    
      2362 IM1H     119      IM1H     DC1      DRUD     -2.66700      0.400000           0   0.00000       0.00000    
      2363 IM1H     119      IM1H     H1       HDA3A    0.135000       1.00800           0   0.00000       0.00000    
      2364 IM1H     119      IM1H     H2       HDA3A    0.135000       1.00800           0   0.00000       0.00000    
      2365 IM1H     119      IM1H     H3       HDA3A    0.135000       1.00800           0   0.00000       0.00000    
      2366 IM1H     119      IM1H     N1       ND2R5C    2.35720       13.6070           0 -0.803000       1.00000    
      2367 IM1H     119      IM1H     DN1      DRUD     -2.19920      0.400000           0   0.00000       0.00000    
      2368 IM1H     119      IM1H     C2       CD2R5D    2.44700       11.6110           0  -1.08300       1.10000    
      2369 IM1H     119      IM1H     DC2      DRUD     -2.55400      0.400000           0   0.00000       0.00000    
      2370 IM1H     119      IM1H     H4       HDR5D    0.195000       1.00800           0   0.00000       0.00000    
      2371 IM1H     119      IM1H     C3       CD2R5D    2.50700       11.6110           0  -1.08300       1.10000    
      2372 IM1H     119      IM1H     DC3      DRUD     -2.55400      0.400000           0   0.00000       0.00000    
      2373 IM1H     119      IM1H     H5       HDR5D    0.192000       1.00800           0   0.00000       0.00000    
      2374 IM1H     119      IM1H     C4       CD2R5E    2.72410       11.6110           0  -1.25300       1.20000    
      2375 IM1H     119      IM1H     DC4      DRUD     -2.74710      0.400000           0   0.00000       0.00000    
      2376 IM1H     119      IM1H     H6       HDR5E    0.203000       1.00800           0   0.00000       0.00000    
      2377 IM1H     119      IM1H     N2       ND2R5C    2.04220       13.6070           0 -0.803000       1.00000    
      2378 IM1H     119      IM1H     DN2      DRUD     -2.19920      0.400000           0   0.00000       0.00000    
      2379 IM1H     119      IM1H     H7       HDP1A    0.363000       1.00800           0   0.00000       0.00000    
      2380 IM1H     119      IM1H     LPN21    LPD       0.00000       0.00000          -1   0.00000       0.00000    
      2381 IM1H     120      IM1H     C1       CD33F     2.48500       11.6110           0  -1.18100       1.10000    
      2382 IM1H     120      IM1H     DC1      DRUD     -2.66700      0.400000           0   0.00000       0.00000    
      2383 IM1H     120      IM1H     H1       HDA3A    0.135000       1.00800           0   0.00000       0.00000    
      2384 IM1H     120      IM1H     H2       HDA3A    0.135000       1.00800           0   0.00000       0.00000    
      2385 IM1H     120      IM1H     H3       HDA3A    0.135000       1.00800           0   0.00000       0.00000    
      2386 IM1H     120      IM1H     N1       ND2R5C    2.35720       13.6070           0 -0.803000       1.00000    
      2387 IM1H     120      IM1H     DN1      DRUD     -2.19920      0.400000           0   0.00000       0.00000    
      2388 IM1H     120      IM1H     C2       CD2R5D    2.44700       11.6110           0  -1.08300       1.10000    
      2389 IM1H     120      IM1H     DC2      DRUD     -2.55400      0.400000           0   0.00000       0.00000    
      2390 IM1H     120      IM1H     H4       HDR5D    0.195000       1.00800           0   0.00000       0.00000    
      2391 IM1H     120      IM1H     C3       CD2R5D    2.50700       11.6110           0  -1.08300       1.10000    
      2392 IM1H     120      IM1H     DC3      DRUD     -2.55400      0.400000           0   0.00000       0.00000    
      2393 IM1H     120      IM1H     H5       HDR5D    0.192000       1.00800           0   0.00000       0.00000    
      2394 IM1H     120      IM1H     C4       CD2R5E    2.72410       11.6110           0  -1.25300       1.20000    
      2395 IM1H     120      IM1H     DC4      DRUD     -2.74710      0.400000           0   0.00000       0.00000    
      2396 IM1H     120      IM1H     H6       HDR5E    0.203000       1.00800           0   0.00000       0.00000    
      2397 IM1H     120      IM1H     N2       ND2R5C    2.04220       13.6070           0 -0.803000       1.00000    
      2398 IM1H     120      IM1H     DN2      DRUD     -2.19920      0.400000           0   0.00000       0.00000    
      2399 IM1H     120      IM1H     H7       HDP1A    0.363000       1.00800           0   0.00000       0.00000    
      2400 IM1H     120      IM1H     LPN21    LPD       0.00000       0.00000          -1   0.00000       0.00000    
      2401 IM1H     121      IM1H     C1       CD33F     2.48500       11.6110           0  -1.18100       1.10000    
      2402 IM1H     121      IM1H     DC1      DRUD     -2.66700      0.400000           0   0.00000       0.00000    
      2403 IM1H     121      IM1H     H1       HDA3A    0.135000       1.00800           0   0.00000       0.00000    
      2404 IM1H     121      IM1H     H2       HDA3A    0.135000       1.00800           0   0.00000       0.00000    
      2405 IM1H     121      IM1H     H3       HDA3A    0.135000       1.00800           0   0.00000       0.00000    
      2406 IM1H     121      IM1H     N1       ND2R5C    2.35720       13.6070           0 -0.803000       1.00000    
      2407 IM1H     121      IM1H     DN1      DRUD     -2.19920      0.400000           0   0.00000       0.00000    
      2408 IM1H     121      IM1H     C2       CD2R5D    2.44700       11.6110           0  -1.08300       1.10000    
      2409 IM1H     121      IM1H     DC2      DRUD     -2.55400      0.400000           0   0.00000       0.00000    
      2410 IM1H     121      IM1H     H4       HDR5D    0.195000       1.00800           0   0.00000       0.00000    
      2411 IM1H     121      IM1H     C3       CD2R5D    2.50700       11.6110           0  -1.08300       1.10000    
      2412 IM1H     121      IM1H     DC3      DRUD     -2.55400      0.400000           0   0.00000       0.00000    
      2413 IM1H     121      IM1H     H5       HDR5D    0.192000       1.00800           0   0.00000       0.00000    
      2414 IM1H     121      IM1H     C4       CD2R5E    2.72410       11.6110           0  -1.25300       1.20000    
      2415 IM1H     121      IM1H     DC4      DRUD     -2.74710      0.400000           0   0.00000       0.00000    
      2416 IM1H     121      IM1H     H6       HDR5E    0.203000       1.00800           0   0.00000       0.00000    
      2417 IM1H     121      IM1H     N2       ND2R5C    2.04220       13.6070           0 -0.803000       1.00000    
      2418 IM1H     121      IM1H     DN2      DRUD     -2.19920      0.400000           0   0.00000       0.00000    
      2419 IM1H     121      IM1H     H7       HDP1A    0.363000       1.00800           0   0.00000       0.00000    
      2420 IM1H     121      IM1H     LPN21    LPD       0.00000       0.00000          -1   0.00000       0.00000    
      2421 IM1H     122      IM1H     C1       CD33F     2.48500       11.6110           0  -1.18100       1.10000    
      2422 IM1H     122      IM1H     DC1      DRUD     -2.66700      0.400000           0   0.00000       0.00000    
      2423 IM1H     122      IM1H     H1       HDA3A    0.135000       1.00800           0   0.00000       0.00000    
      2424 IM1H     122      IM1H     H2       HDA3A    0.135000       1.00800           0   0.00000       0.00000    
      2425 IM1H     122      IM1H     H3       HDA3A    0.135000       1.00800           0   0.00000       0.00000    
      2426 IM1H     122      IM1H     N1       ND2R5C    2.35720       13.6070           0 -0.803000       1.00000    
      2427 IM1H     122      IM1H     DN1      DRUD     -2.19920      0.400000           0   0.00000       0.00000    
      2428 IM1H     122      IM1H     C2       CD2R5D    2.44700       11.6110           0  -1.08300       1.10000    
      2429 IM1H     122      IM1H     DC2      DRUD     -2.55400      0.400000           0   0.00000       0.00000    
      2430 IM1H     122      IM1H     H4       HDR5D    0.195000       1.00800           0   0.00000       0.00000    
      2431 IM1H     122      IM1H     C3       CD2R5D    2.50700       11.6110           0  -1.08300       1.10000    
      2432 IM1H     122      IM1H     DC3      DRUD     -2.55400      0.400000           0   0.00000       0.00000    
      2433 IM1H     122      IM1H     H5       HDR5D    0.192000       1.00800           0   0.00000       0.00000    
      2434 IM1H     122      IM1H     C4       CD2R5E    2.72410       11.6110           0  -1.25300       1.20000    
      2435 IM1H     122      IM1H     DC4      DRUD     -2.74710      0.400000           0   0.00000       0.00000    
      2436 IM1H     122      IM1H     H6       HDR5E    0.203000       1.00800           0   0.00000       0.00000    
      2437 IM1H     122      IM1H     N2       ND2R5C    2.04220       13.6070           0 -0.803000       1.00000    
      2438 IM1H     122      IM1H     DN2      DRUD     -2.19920      0.400000           0   0.00000       0.00000    
      2439 IM1H     122      IM1H     H7       HDP1A    0.363000       1.00800           0   0.00000       0.00000    
      2440 IM1H     122      IM1H     LPN21    LPD       0.00000       0.00000          -1   0.00000       0.00000    
      2441 IM1H     123      IM1H     C1       CD33F     2.48500       11.6110           0  -1.18100       1.10000    
      2442 IM1H     123      IM1H     DC1      DRUD     -2.66700      0.400000           0   0.00000       0.00000    
      2443 IM1H     123      IM1H     H1       HDA3A    0.135000       1.00800           0   0.00000       0.00000    
      2444 IM1H     123      IM1H     H2       HDA3A    0.135000       1.00800           0   0.00000       0.00000    
      2445 IM1H     123      IM1H     H3       HDA3A    0.135000       1.00800           0   0.00000       0.00000    
      2446 IM1H     123      IM1H     N1       ND2R5C    2.35720       13.6070           0 -0.803000       1.00000    
      2447 IM1H     123      IM1H     DN1      DRUD     -2.19920      0.400000           0   0.00000       0.00000    
      2448 IM1H     123      IM1H     C2       CD2R5D    2.44700       11.6110           0  -1.08300       1.10000    
      2449 IM1H     123      IM1H     DC2      DRUD     -2.55400      0.400000           0   0.00000       0.00000    
      2450 IM1H     123      IM1H     H4       HDR5D    0.195000       1.00800           0   0.00000       0.00000    
      2451 IM1H     123      IM1H     C3       CD2R5D    2.50700       11.6110           0  -1.08300       1.10000    
      2452 IM1H     123      IM1H     DC3      DRUD     -2.55400      0.400000           0   0.00000       0.00000    
      2453 IM1H     123      IM1H     H5       HDR5D    0.192000       1.00800           0   0.00000       0.00000    
      2454 IM1H     123      IM1H     C4       CD2R5E    2.72410       11.6110           0  -1.25300       1.20000    
      2455 IM1H     123      IM1H     DC4      DRUD     -2.74710      0.400000           0   0.00000       0.00000    
      2456 IM1H     123      IM1H     H6       HDR5E    0.203000       1.00800           0   0.00000       0.00000    
      2457 IM1H     123      IM1H     N2       ND2R5C    2.04220       13.6070           0 -0.803000       1.00000    
      2458 IM1H     123      IM1H     DN2      DRUD     -2.19920      0.400000           0   0.00000       0.00000    
      2459 IM1H     123      IM1H     H7       HDP1A    0.363000       1.00800           0   0.00000       0.00000    
      2460 IM1H     123      IM1H     LPN21    LPD       0.00000       0.00000          -1   0.00000       0.00000    
      2461 IM1H     124      IM1H     C1       CD33F     2.48500       11.6110           0  -1.18100       1.10000    
      2462 IM1H     124      IM1H     DC1      DRUD     -2.66700      0.400000           0   0.00000       0.00000    
      2463 IM1H     124      IM1H     H1       HDA3A    0.135000       1.00800           0   0.00000       0.00000    
      2464 IM1H     124      IM1H     H2       HDA3A    0.135000       1.00800           0   0.00000       0.00000    
      2465 IM1H     124      IM1H     H3       HDA3A    0.135000       1.00800           0   0.00000       0.00000    
      2466 IM1H     124      IM1H     N1       ND2R5C    2.35720       13.6070           0 -0.803000       1.00000    
      2467 IM1H     124      IM1H     DN1      DRUD     -2.19920      0.400000           0   0.00000       0.00000    
      2468 IM1H     124      IM1H     C2       CD2R5D    2.44700       11.6110           0  -1.08300       1.10000    
      2469 IM1H     124      IM1H     DC2      DRUD     -2.55400      0.400000           0   0.00000       0.00000    
      2470 IM1H     124      IM1H     H4       HDR5D    0.195000       1.00800           0   0.00000       0.00000    
      2471 IM1H     124      IM1H     C3       CD2R5D    2.50700       11.6110           0  -1.08300       1.10000    
      2472 IM1H     124      IM1H     DC3      DRUD     -2.55400      0.400000           0   0.00000       0.00000    
      2473 IM1H     124      IM1H     H5       HDR5D    0.192000       1.00800           0   0.00000       0.00000    
      2474 IM1H     124      IM1H     C4       CD2R5E    2.72410       11.6110           0  -1.25300       1.20000    
      2475 IM1H     124      IM1H     DC4      DRUD     -2.74710      0.400000           0   0.00000       0.00000    
      2476 IM1H     124      IM1H     H6       HDR5E    0.203000       1.00800           0   0.00000       0.00000    
      2477 IM1H     124      IM1H     N2       ND2R5C    2.04220       13.6070           0 -0.803000       1.00000    
      2478 IM1H     124      IM1H     DN2      DRUD     -2.19920      0.400000           0   0.00000       0.00000    
      2479 IM1H     124      IM1H     H7       HDP1A    0.363000       1.00800           0   0.00000       0.00000    
      2480 IM1H     124      IM1H     LPN21    LPD       0.00000       0.00000          -1   0.00000       0.00000    
      2481 IM1H     125      IM1H     C1       CD33F     2.48500       11.6110           0  -1.18100       1.10000    
      2482 IM1H     125      IM1H     DC1      DRUD     -2.66700      0.400000           0   0.00000       0.00000    
      2483 IM1H     125      IM1H     H1       HDA3A    0.135000       1.00800           0   0.00000       0.00000    
      2484 IM1H     125      IM1H     H2       HDA3A    0.135000       1.00800           0   0.00000       0.00000    
      2485 IM1H     125      IM1H     H3       HDA3A    0.135000       1.00800           0   0.00000       0.00000    
      2486 IM1H     125      IM1H     N1       ND2R5C    2.35720       13.6070           0 -0.803000       1.00000    
      2487 IM1H     125      IM1H     DN1      DRUD     -2.19920      0.400000           0   0.00000       0.00000    
      2488 IM1H     125      IM1H     C2       CD2R5D    2.44700       11.6110           0  -1.08300       1.10000    
      2489 IM1H     125      IM1H     DC2      DRUD     -2.55400      0.400000           0   0.00000       0.00000    
      2490 IM1H     125      IM1H     H4       HDR5D    0.195000       1.00800           0   0.00000       0.00000    
      2491 IM1H     125      IM1H     C3       CD2R5D    2.50700       11.6110           0  -1.08300       1.10000    
      2492 IM1H     125      IM1H     DC3      DRUD     -2.55400      0.400000           0   0.00000       0.00000    
      2493 IM1H     125      IM1H     H5       HDR5D    0.192000       1.00800           0   0.00000       0.00000    
      2494 IM1H     125      IM1H     C4       CD2R5E    2.72410       11.6110           0  -1.25300       1.20000    
      2495 IM1H     125      IM1H     DC4      DRUD     -2.74710      0.400000           0   0.00000       0.00000    
      2496 IM1H     125      IM1H     H6       HDR5E    0.203000       1.00800           0   0.00000       0.00000    
      2497 IM1H     125      IM1H     N2       ND2R5C    2.04220       13.6070           0 -0.803000       1.00000    
      2498 IM1H     125      IM1H     DN2      DRUD     -2.19920      0.400000           0   0.00000       0.00000    
      2499 IM1H     125      IM1H     H7       HDP1A    0.363000       1.00800           0   0.00000       0.00000    
      2500 IM1H     125      IM1H     LPN21    LPD       0.00000       0.00000          -1   0.00000       0.00000    
      2501 IM1H     126      IM1H     C1       CD33F     2.48500       11.6110           0  -1.18100       1.10000    
      2502 IM1H     126      IM1H     DC1      DRUD     -2.66700      0.400000           0   0.00000       0.00000    
      2503 IM1H     126      IM1H     H1       HDA3A    0.135000       1.00800           0   0.00000       0.00000    
      2504 IM1H     126      IM1H     H2       HDA3A    0.135000       1.00800           0   0.00000       0.00000    
      2505 IM1H     126      IM1H     H3       HDA3A    0.135000       1.00800           0   0.00000       0.00000    
      2506 IM1H     126      IM1H     N1       ND2R5C    2.35720       13.6070           0 -0.803000       1.00000    
      2507 IM1H     126      IM1H     DN1      DRUD     -2.19920      0.400000           0   0.00000       0.00000    
      2508 IM1H     126      IM1H     C2       CD2R5D    2.44700       11.6110           0  -1.08300       1.10000    
      2509 IM1H     126      IM1H     DC2      DRUD     -2.55400      0.400000           0   0.00000       0.00000    
      2510 IM1H     126      IM1H     H4       HDR5D    0.195000       1.00800           0   0.00000       0.00000    
      2511 IM1H     126      IM1H     C3       CD2R5D    2.50700       11.6110           0  -1.08300       1.10000    
      2512 IM1H     126      IM1H     DC3      DRUD     -2.55400      0.400000           0   0.00000       0.00000    
      2513 IM1H     126      IM1H     H5       HDR5D    0.192000       1.00800           0   0.00000       0.00000    
      2514 IM1H     126      IM1H     C4       CD2R5E    2.72410       11.6110           0  -1.25300       1.20000    
      2515 IM1H     126      IM1H     DC4      DRUD     -2.74710      0.400000           0   0.00000       0.00000    
      2516 IM1H     126      IM1H     H6       HDR5E    0.203000       1.00800           0   0.00000       0.00000    
      2517 IM1H     126      IM1H     N2       ND2R5C    2.04220       13.6070           0 -0.803000       1.00000    
      2518 IM1H     126      IM1H     DN2      DRUD     -2.19920      0.400000           0   0.00000       0.00000    
      2519 IM1H     126      IM1H     H7       HDP1A    0.363000       1.00800           0   0.00000       0.00000    
      2520 IM1H     126      IM1H     LPN21    LPD       0.00000       0.00000          -1   0.00000       0.00000    
      2521 IM1H     127      IM1H     C1       CD33F     2.48500       11.6110           0  -1.18100       1.10000    
      2522 IM1H     127      IM1H     DC1      DRUD     -2.66700      0.400000           0   0.00000       0.00000    
      2523 IM1H     127      IM1H     H1       HDA3A    0.135000       1.00800           0   0.00000       0.00000    
      2524 IM1H     127      IM1H     H2       HDA3A    0.135000       1.00800           0   0.00000       0.00000    
      2525 IM1H     127      IM1H     H3       HDA3A    0.135000       1.00800           0   0.00000       0.00000    
      2526 IM1H     127      IM1H     N1       ND2R5C    2.35720       13.6070           0 -0.803000       1.00000    
      2527 IM1H     127      IM1H     DN1      DRUD     -2.19920      0.400000           0   0.00000       0.00000    
      2528 IM1H     127      IM1H     C2       CD2R5D    2.44700       11.6110           0  -1.08300       1.10000    
      2529 IM1H     127      IM1H     DC2      DRUD     -2.55400      0.400000           0   0.00000       0.00000    
      2530 IM1H     127      IM1H     H4       HDR5D    0.195000       1.00800           0   0.00000       0.00000    
      2531 IM1H     127      IM1H     C3       CD2R5D    2.50700       11.6110           0  -1.08300       1.10000    
      2532 IM1H     127      IM1H     DC3      DRUD     -2.55400      0.400000           0   0.00000       0.00000    
      2533 IM1H     127      IM1H     H5       HDR5D    0.192000       1.00800           0   0.00000       0.00000    
      2534 IM1H     127      IM1H     C4       CD2R5E    2.72410       11.6110           0  -1.25300       1.20000    
      2535 IM1H     127      IM1H     DC4      DRUD     -2.74710      0.400000           0   0.00000       0.00000    
      2536 IM1H     127      IM1H     H6       HDR5E    0.203000       1.00800           0   0.00000       0.00000    
      2537 IM1H     127      IM1H     N2       ND2R5C    2.04220       13.6070           0 -0.803000       1.00000    
      2538 IM1H     127      IM1H     DN2      DRUD     -2.19920      0.400000           0   0.00000       0.00000    
      2539 IM1H     127      IM1H     H7       HDP1A    0.363000       1.00800           0   0.00000       0.00000    
      2540 IM1H     127      IM1H     LPN21    LPD       0.00000       0.00000          -1   0.00000       0.00000    
      2541 IM1H     128      IM1H     C1       CD33F     2.48500       11.6110           0  -1.18100       1.10000    
      2542 IM1H     128      IM1H     DC1      DRUD     -2.66700      0.400000           0   0.00000       0.00000    
      2543 IM1H     128      IM1H     H1       HDA3A    0.135000       1.00800           0   0.00000       0.00000    
      2544 IM1H     128      IM1H     H2       HDA3A    0.135000       1.00800           0   0.00000       0.00000    
      2545 IM1H     128      IM1H     H3       HDA3A    0.135000       1.00800           0   0.00000       0.00000    
      2546 IM1H     128      IM1H     N1       ND2R5C    2.35720       13.6070           0 -0.803000       1.00000    
      2547 IM1H     128      IM1H     DN1      DRUD     -2.19920      0.400000           0   0.00000       0.00000    
      2548 IM1H     128      IM1H     C2       CD2R5D    2.44700       11.6110           0  -1.08300       1.10000    
      2549 IM1H     128      IM1H     DC2      DRUD     -2.55400      0.400000           0   0.00000       0.00000    
      2550 IM1H     128      IM1H     H4       HDR5D    0.195000       1.00800           0   0.00000       0.00000    
      2551 IM1H     128      IM1H     C3       CD2R5D    2.50700       11.6110           0  -1.08300       1.10000    
      2552 IM1H     128      IM1H     DC3      DRUD     -2.55400      0.400000           0   0.00000       0.00000    
      2553 IM1H     128      IM1H     H5       HDR5D    0.192000       1.00800           0   0.00000       0.00000    
      2554 IM1H     128      IM1H     C4       CD2R5E    2.72410       11.6110           0  -1.25300       1.20000    
      2555 IM1H     128      IM1H     DC4      DRUD     -2.74710      0.400000           0   0.00000       0.00000    
      2556 IM1H     128      IM1H     H6       HDR5E    0.203000       1.00800           0   0.00000       0.00000    
      2557 IM1H     128      IM1H     N2       ND2R5C    2.04220       13.6070           0 -0.803000       1.00000    
      2558 IM1H     128      IM1H     DN2      DRUD     -2.19920      0.400000           0   0.00000       0.00000    
      2559 IM1H     128      IM1H     H7       HDP1A    0.363000       1.00800           0   0.00000       0.00000    
      2560 IM1H     128      IM1H     LPN21    LPD       0.00000       0.00000          -1   0.00000       0.00000    
      2561 IM1H     129      IM1H     C1       CD33F     2.48500       11.6110           0  -1.18100       1.10000    
      2562 IM1H     129      IM1H     DC1      DRUD     -2.66700      0.400000           0   0.00000       0.00000    
      2563 IM1H     129      IM1H     H1       HDA3A    0.135000       1.00800           0   0.00000       0.00000    
      2564 IM1H     129      IM1H     H2       HDA3A    0.135000       1.00800           0   0.00000       0.00000    
      2565 IM1H     129      IM1H     H3       HDA3A    0.135000       1.00800           0   0.00000       0.00000    
      2566 IM1H     129      IM1H     N1       ND2R5C    2.35720       13.6070           0 -0.803000       1.00000    
      2567 IM1H     129      IM1H     DN1      DRUD     -2.19920      0.400000           0   0.00000       0.00000    
      2568 IM1H     129      IM1H     C2       CD2R5D    2.44700       11.6110           0  -1.08300       1.10000    
      2569 IM1H     129      IM1H     DC2      DRUD     -2.55400      0.400000           0   0.00000       0.00000    
      2570 IM1H     129      IM1H     H4       HDR5D    0.195000       1.00800           0   0.00000       0.00000    
      2571 IM1H     129      IM1H     C3       CD2R5D    2.50700       11.6110           0  -1.08300       1.10000    
      2572 IM1H     129      IM1H     DC3      DRUD     -2.55400      0.400000           0   0.00000       0.00000    
      2573 IM1H     129      IM1H     H5       HDR5D    0.192000       1.00800           0   0.00000       0.00000    
      2574 IM1H     129      IM1H     C4       CD2R5E    2.72410       11.6110           0  -1.25300       1.20000    
      2575 IM1H     129      IM1H     DC4      DRUD     -2.74710      0.400000           0   0.00000       0.00000    
      2576 IM1H     129      IM1H     H6       HDR5E    0.203000       1.00800           0   0.00000       0.00000    
      2577 IM1H     129      IM1H     N2       ND2R5C    2.04220       13.6070           0 -0.803000       1.00000    
      2578 IM1H     129      IM1H     DN2      DRUD     -2.19920      0.400000           0   0.00000       0.00000    
      2579 IM1H     129      IM1H     H7       HDP1A    0.363000       1.00800           0   0.00000       0.00000    
      2580 IM1H     129      IM1H     LPN21    LPD       0.00000       0.00000          -1   0.00000       0.00000    
      2581 IM1H     130      IM1H     C1       CD33F     2.48500       11.6110           0  -1.18100       1.10000    
      2582 IM1H     130      IM1H     DC1      DRUD     -2.66700      0.400000           0   0.00000       0.00000    
      2583 IM1H     130      IM1H     H1       HDA3A    0.135000       1.00800           0   0.00000       0.00000    
      2584 IM1H     130      IM1H     H2       HDA3A    0.135000       1.00800           0   0.00000       0.00000    
      2585 IM1H     130      IM1H     H3       HDA3A    0.135000       1.00800           0   0.00000       0.00000    
      2586 IM1H     130      IM1H     N1       ND2R5C    2.35720       13.6070           0 -0.803000       1.00000    
      2587 IM1H     130      IM1H     DN1      DRUD     -2.19920      0.400000           0   0.00000       0.00000    
      2588 IM1H     130      IM1H     C2       CD2R5D    2.44700       11.6110           0  -1.08300       1.10000    
      2589 IM1H     130      IM1H     DC2      DRUD     -2.55400      0.400000           0   0.00000       0.00000    
      2590 IM1H     130      IM1H     H4       HDR5D    0.195000       1.00800           0   0.00000       0.00000    
      2591 IM1H     130      IM1H     C3       CD2R5D    2.50700       11.6110           0  -1.08300       1.10000    
      2592 IM1H     130      IM1H     DC3      DRUD     -2.55400      0.400000           0   0.00000       0.00000    
      2593 IM1H     130      IM1H     H5       HDR5D    0.192000       1.00800           0   0.00000       0.00000    
      2594 IM1H     130      IM1H     C4       CD2R5E    2.72410       11.6110           0  -1.25300       1.20000    
      2595 IM1H     130      IM1H     DC4      DRUD     -2.74710      0.400000           0   0.00000       0.00000    
      2596 IM1H     130      IM1H     H6       HDR5E    0.203000       1.00800           0   0.00000       0.00000    
      2597 IM1H     130      IM1H     N2       ND2R5C    2.04220       13.6070           0 -0.803000       1.00000    
      2598 IM1H     130      IM1H     DN2      DRUD     -2.19920      0.400000           0   0.00000       0.00000    
      2599 IM1H     130      IM1H     H7       HDP1A    0.363000       1.00800           0   0.00000       0.00000    
      2600 IM1H     130      IM1H     LPN21    LPD       0.00000       0.00000          -1   0.00000       0.00000    
      2601 IM1H     131      IM1H     C1       CD33F     2.48500       11.6110           0  -1.18100       1.10000    
      2602 IM1H     131      IM1H     DC1      DRUD     -2.66700      0.400000           0   0.00000       0.00000    
      2603 IM1H     131      IM1H     H1       HDA3A    0.135000       1.00800           0   0.00000       0.00000    
      2604 IM1H     131      IM1H     H2       HDA3A    0.135000       1.00800           0   0.00000       0.00000    
      2605 IM1H     131      IM1H     H3       HDA3A    0.135000       1.00800           0   0.00000       0.00000    
      2606 IM1H     131      IM1H     N1       ND2R5C    2.35720       13.6070           0 -0.803000       1.00000    
      2607 IM1H     131      IM1H     DN1      DRUD     -2.19920      0.400000           0   0.00000       0.00000    
      2608 IM1H     131      IM1H     C2       CD2R5D    2.44700       11.6110           0  -1.08300       1.10000    
      2609 IM1H     131      IM1H     DC2      DRUD     -2.55400      0.400000           0   0.00000       0.00000    
      2610 IM1H     131      IM1H     H4       HDR5D    0.195000       1.00800           0   0.00000       0.00000    
      2611 IM1H     131      IM1H     C3       CD2R5D    2.50700       11.6110           0  -1.08300       1.10000    
      2612 IM1H     131      IM1H     DC3      DRUD     -2.55400      0.400000           0   0.00000       0.00000    
      2613 IM1H     131      IM1H     H5       HDR5D    0.192000       1.00800           0   0.00000       0.00000    
      2614 IM1H     131      IM1H     C4       CD2R5E    2.72410       11.6110           0  -1.25300       1.20000    
      2615 IM1H     131      IM1H     DC4      DRUD     -2.74710      0.400000           0   0.00000       0.00000    
      2616 IM1H     131      IM1H     H6       HDR5E    0.203000       1.00800           0   0.00000       0.00000    
      2617 IM1H     131      IM1H     N2       ND2R5C    2.04220       13.6070           0 -0.803000       1.00000    
      2618 IM1H     131      IM1H     DN2      DRUD     -2.19920      0.400000           0   0.00000       0.00000    
      2619 IM1H     131      IM1H     H7       HDP1A    0.363000       1.00800           0   0.00000       0.00000    
      2620 IM1H     131      IM1H     LPN21    LPD       0.00000       0.00000          -1   0.00000       0.00000    
      2621 IM1H     132      IM1H     C1       CD33F     2.48500       11.6110           0  -1.18100       1.10000    
      2622 IM1H     132      IM1H     DC1      DRUD     -2.66700      0.400000           0   0.00000       0.00000    
      2623 IM1H     132      IM1H     H1       HDA3A    0.135000       1.00800           0   0.00000       0.00000    
      2624 IM1H     132      IM1H     H2       HDA3A    0.135000       1.00800           0   0.00000       0.00000    
      2625 IM1H     132      IM1H     H3       HDA3A    0.135000       1.00800           0   0.00000       0.00000    
      2626 IM1H     132      IM1H     N1       ND2R5C    2.35720       13.6070           0 -0.803000       1.00000    
      2627 IM1H     132      IM1H     DN1      DRUD     -2.19920      0.400000           0   0.00000       0.00000    
      2628 IM1H     132      IM1H     C2       CD2R5D    2.44700       11.6110           0  -1.08300       1.10000    
      2629 IM1H     132      IM1H     DC2      DRUD     -2.55400      0.400000           0   0.00000       0.00000    
      2630 IM1H     132      IM1H     H4       HDR5D    0.195000       1.00800           0   0.00000       0.00000    
      2631 IM1H     132      IM1H     C3       CD2R5D    2.50700       11.6110           0  -1.08300       1.10000    
      2632 IM1H     132      IM1H     DC3      DRUD     -2.55400      0.400000           0   0.00000       0.00000    
      2633 IM1H     132      IM1H     H5       HDR5D    0.192000       1.00800           0   0.00000       0.00000    
      2634 IM1H     132      IM1H     C4       CD2R5E    2.72410       11.6110           0  -1.25300       1.20000    
      2635 IM1H     132      IM1H     DC4      DRUD     -2.74710      0.400000           0   0.00000       0.00000    
      2636 IM1H     132      IM1H     H6       HDR5E    0.203000       1.00800           0   0.00000       0.00000    
      2637 IM1H     132      IM1H     N2       ND2R5C    2.04220       13.6070           0 -0.803000       1.00000    
      2638 IM1H     132      IM1H     DN2      DRUD     -2.19920      0.400000           0   0.00000       0.00000    
      2639 IM1H     132      IM1H     H7       HDP1A    0.363000       1.00800           0   0.00000       0.00000    
      2640 IM1H     132      IM1H     LPN21    LPD       0.00000       0.00000          -1   0.00000       0.00000    
      2641 IM1H     133      IM1H     C1       CD33F     2.48500       11.6110           0  -1.18100       1.10000    
      2642 IM1H     133      IM1H     DC1      DRUD     -2.66700      0.400000           0   0.00000       0.00000    
      2643 IM1H     133      IM1H     H1       HDA3A    0.135000       1.00800           0   0.00000       0.00000    
      2644 IM1H     133      IM1H     H2       HDA3A    0.135000       1.00800           0   0.00000       0.00000    
      2645 IM1H     133      IM1H     H3       HDA3A    0.135000       1.00800           0   0.00000       0.00000    
      2646 IM1H     133      IM1H     N1       ND2R5C    2.35720       13.6070           0 -0.803000       1.00000    
      2647 IM1H     133      IM1H     DN1      DRUD     -2.19920      0.400000           0   0.00000       0.00000    
      2648 IM1H     133      IM1H     C2       CD2R5D    2.44700       11.6110           0  -1.08300       1.10000    
      2649 IM1H     133      IM1H     DC2      DRUD     -2.55400      0.400000           0   0.00000       0.00000    
      2650 IM1H     133      IM1H     H4       HDR5D    0.195000       1.00800           0   0.00000       0.00000    
      2651 IM1H     133      IM1H     C3       CD2R5D    2.50700       11.6110           0  -1.08300       1.10000    
      2652 IM1H     133      IM1H     DC3      DRUD     -2.55400      0.400000           0   0.00000       0.00000    
      2653 IM1H     133      IM1H     H5       HDR5D    0.192000       1.00800           0   0.00000       0.00000    
      2654 IM1H     133      IM1H     C4       CD2R5E    2.72410       11.6110           0  -1.25300       1.20000    
      2655 IM1H     133      IM1H     DC4      DRUD     -2.74710      0.400000           0   0.00000       0.00000    
      2656 IM1H     133      IM1H     H6       HDR5E    0.203000       1.00800           0   0.00000       0.00000    
      2657 IM1H     133      IM1H     N2       ND2R5C    2.04220       13.6070           0 -0.803000       1.00000    
      2658 IM1H     133      IM1H     DN2      DRUD     -2.19920      0.400000           0   0.00000       0.00000    
      2659 IM1H     133      IM1H     H7       HDP1A    0.363000       1.00800           0   0.00000       0.00000    
      2660 IM1H     133      IM1H     LPN21    LPD       0.00000       0.00000          -1   0.00000       0.00000    
      2661 IM1H     134      IM1H     C1       CD33F     2.48500       11.6110           0  -1.18100       1.10000    
      2662 IM1H     134      IM1H     DC1      DRUD     -2.66700      0.400000           0   0.00000       0.00000    
      2663 IM1H     134      IM1H     H1       HDA3A    0.135000       1.00800           0   0.00000       0.00000    
      2664 IM1H     134      IM1H     H2       HDA3A    0.135000       1.00800           0   0.00000       0.00000    
      2665 IM1H     134      IM1H     H3       HDA3A    0.135000       1.00800           0   0.00000       0.00000    
      2666 IM1H     134      IM1H     N1       ND2R5C    2.35720       13.6070           0 -0.803000       1.00000    
      2667 IM1H     134      IM1H     DN1      DRUD     -2.19920      0.400000           0   0.00000       0.00000    
      2668 IM1H     134      IM1H     C2       CD2R5D    2.44700       11.6110           0  -1.08300       1.10000    
      2669 IM1H     134      IM1H     DC2      DRUD     -2.55400      0.400000           0   0.00000       0.00000    
      2670 IM1H     134      IM1H     H4       HDR5D    0.195000       1.00800           0   0.00000       0.00000    
      2671 IM1H     134      IM1H     C3       CD2R5D    2.50700       11.6110           0  -1.08300       1.10000    
      2672 IM1H     134      IM1H     DC3      DRUD     -2.55400      0.400000           0   0.00000       0.00000    
      2673 IM1H     134      IM1H     H5       HDR5D    0.192000       1.00800           0   0.00000       0.00000    
      2674 IM1H     134      IM1H     C4       CD2R5E    2.72410       11.6110           0  -1.25300       1.20000    
      2675 IM1H     134      IM1H     DC4      DRUD     -2.74710      0.400000           0   0.00000       0.00000    
      2676 IM1H     134      IM1H     H6       HDR5E    0.203000       1.00800           0   0.00000       0.00000    
      2677 IM1H     134      IM1H     N2       ND2R5C    2.04220       13.6070           0 -0.803000       1.00000    
      2678 IM1H     134      IM1H     DN2      DRUD     -2.19920      0.400000           0   0.00000       0.00000    
      2679 IM1H     134      IM1H     H7       HDP1A    0.363000       1.00800           0   0.00000       0.00000    
      2680 IM1H     134      IM1H     LPN21    LPD       0.00000       0.00000          -1   0.00000       0.00000    
      2681 IM1H     135      IM1H     C1       CD33F     2.48500       11.6110           0  -1.18100       1.10000    
      2682 IM1H     135      IM1H     DC1      DRUD     -2.66700      0.400000           0   0.00000       0.00000    
      2683 IM1H     135      IM1H     H1       HDA3A    0.135000       1.00800           0   0.00000       0.00000    
      2684 IM1H     135      IM1H     H2       HDA3A    0.135000       1.00800           0   0.00000       0.00000    
      2685 IM1H     135      IM1H     H3       HDA3A    0.135000       1.00800           0   0.00000       0.00000    
      2686 IM1H     135      IM1H     N1       ND2R5C    2.35720       13.6070           0 -0.803000       1.00000    
      2687 IM1H     135      IM1H     DN1      DRUD     -2.19920      0.400000           0   0.00000       0.00000    
      2688 IM1H     135      IM1H     C2       CD2R5D    2.44700       11.6110           0  -1.08300       1.10000    
      2689 IM1H     135      IM1H     DC2      DRUD     -2.55400      0.400000           0   0.00000       0.00000    
      2690 IM1H     135      IM1H     H4       HDR5D    0.195000       1.00800           0   0.00000       0.00000    
      2691 IM1H     135      IM1H     C3       CD2R5D    2.50700       11.6110           0  -1.08300       1.10000    
      2692 IM1H     135      IM1H     DC3      DRUD     -2.55400      0.400000           0   0.00000       0.00000    
      2693 IM1H     135      IM1H     H5       HDR5D    0.192000       1.00800           0   0.00000       0.00000    
      2694 IM1H     135      IM1H     C4       CD2R5E    2.72410       11.6110           0  -1.25300       1.20000    
      2695 IM1H     135      IM1H     DC4      DRUD     -2.74710      0.400000           0   0.00000       0.00000    
      2696 IM1H     135      IM1H     H6       HDR5E    0.203000       1.00800           0   0.00000       0.00000    
      2697 IM1H     135      IM1H     N2       ND2R5C    2.04220       13.6070           0 -0.803000       1.00000    
      2698 IM1H     135      IM1H     DN2      DRUD     -2.19920      0.400000           0   0.00000       0.00000    
      2699 IM1H     135      IM1H     H7       HDP1A    0.363000       1.00800           0   0.00000       0.00000    
      2700 IM1H     135      IM1H     LPN21    LPD       0.00000       0.00000          -1   0.00000       0.00000    
      2701 IM1H     136      IM1H     C1       CD33F     2.48500       11.6110           0  -1.18100       1.10000    
      2702 IM1H     136      IM1H     DC1      DRUD     -2.66700      0.400000           0   0.00000       0.00000    
      2703 IM1H     136      IM1H     H1       HDA3A    0.135000       1.00800           0   0.00000       0.00000    
      2704 IM1H     136      IM1H     H2       HDA3A    0.135000       1.00800           0   0.00000       0.00000    
      2705 IM1H     136      IM1H     H3       HDA3A    0.135000       1.00800           0   0.00000       0.00000    
      2706 IM1H     136      IM1H     N1       ND2R5C    2.35720       13.6070           0 -0.803000       1.00000    
      2707 IM1H     136      IM1H     DN1      DRUD     -2.19920      0.400000           0   0.00000       0.00000    
      2708 IM1H     136      IM1H     C2       CD2R5D    2.44700       11.6110           0  -1.08300       1.10000    
      2709 IM1H     136      IM1H     DC2      DRUD     -2.55400      0.400000           0   0.00000       0.00000    
      2710 IM1H     136      IM1H     H4       HDR5D    0.195000       1.00800           0   0.00000       0.00000    
      2711 IM1H     136      IM1H     C3       CD2R5D    2.50700       11.6110           0  -1.08300       1.10000    
      2712 IM1H     136      IM1H     DC3      DRUD     -2.55400      0.400000           0   0.00000       0.00000    
      2713 IM1H     136      IM1H     H5       HDR5D    0.192000       1.00800           0   0.00000       0.00000    
      2714 IM1H     136      IM1H     C4       CD2R5E    2.72410       11.6110           0  -1.25300       1.20000    
      2715 IM1H     136      IM1H     DC4      DRUD     -2.74710      0.400000           0   0.00000       0.00000    
      2716 IM1H     136      IM1H     H6       HDR5E    0.203000       1.00800           0   0.00000       0.00000    
      2717 IM1H     136      IM1H     N2       ND2R5C    2.04220       13.6070           0 -0.803000       1.00000    
      2718 IM1H     136      IM1H     DN2      DRUD     -2.19920      0.400000           0   0.00000       0.00000    
      2719 IM1H     136      IM1H     H7       HDP1A    0.363000       1.00800           0   0.00000       0.00000    
      2720 IM1H     136      IM1H     LPN21    LPD       0.00000       0.00000          -1   0.00000       0.00000    
      2721 IM1H     137      IM1H     C1       CD33F     2.48500       11.6110           0  -1.18100       1.10000    
      2722 IM1H     137      IM1H     DC1      DRUD     -2.66700      0.400000           0   0.00000       0.00000    
      2723 IM1H     137      IM1H     H1       HDA3A    0.135000       1.00800           0   0.00000       0.00000    
      2724 IM1H     137      IM1H     H2       HDA3A    0.135000       1.00800           0   0.00000       0.00000    
      2725 IM1H     137      IM1H     H3       HDA3A    0.135000       1.00800           0   0.00000       0.00000    
      2726 IM1H     137      IM1H     N1       ND2R5C    2.35720       13.6070           0 -0.803000       1.00000    
      2727 IM1H     137      IM1H     DN1      DRUD     -2.19920      0.400000           0   0.00000       0.00000    
      2728 IM1H     137      IM1H     C2       CD2R5D    2.44700       11.6110           0  -1.08300       1.10000    
      2729 IM1H     137      IM1H     DC2      DRUD     -2.55400      0.400000           0   0.00000       0.00000    
      2730 IM1H     137      IM1H     H4       HDR5D    0.195000       1.00800           0   0.00000       0.00000    
      2731 IM1H     137      IM1H     C3       CD2R5D    2.50700       11.6110           0  -1.08300       1.10000    
      2732 IM1H     137      IM1H     DC3      DRUD     -2.55400      0.400000           0   0.00000       0.00000    
      2733 IM1H     137      IM1H     H5       HDR5D    0.192000       1.00800           0   0.00000       0.00000    
      2734 IM1H     137      IM1H     C4       CD2R5E    2.72410       11.6110           0  -1.25300       1.20000    
      2735 IM1H     137      IM1H     DC4      DRUD     -2.74710      0.400000           0   0.00000       0.00000    
      2736 IM1H     137      IM1H     H6       HDR5E    0.203000       1.00800           0   0.00000       0.00000    
      2737 IM1H     137      IM1H     N2       ND2R5C    2.04220       13.6070           0 -0.803000       1.00000    
      2738 IM1H     137      IM1H     DN2      DRUD     -2.19920      0.400000           0   0.00000       0.00000    
      2739 IM1H     137      IM1H     H7       HDP1A    0.363000       1.00800           0   0.00000       0.00000    
      2740 IM1H     137      IM1H     LPN21    LPD       0.00000       0.00000          -1   0.00000       0.00000    
      2741 IM1H     138      IM1H     C1       CD33F     2.48500       11.6110           0  -1.18100       1.10000    
      2742 IM1H     138      IM1H     DC1      DRUD     -2.66700      0.400000           0   0.00000       0.00000    
      2743 IM1H     138      IM1H     H1       HDA3A    0.135000       1.00800           0   0.00000       0.00000    
      2744 IM1H     138      IM1H     H2       HDA3A    0.135000       1.00800           0   0.00000       0.00000    
      2745 IM1H     138      IM1H     H3       HDA3A    0.135000       1.00800           0   0.00000       0.00000    
      2746 IM1H     138      IM1H     N1       ND2R5C    2.35720       13.6070           0 -0.803000       1.00000    
      2747 IM1H     138      IM1H     DN1      DRUD     -2.19920      0.400000           0   0.00000       0.00000    
      2748 IM1H     138      IM1H     C2       CD2R5D    2.44700       11.6110           0  -1.08300       1.10000    
      2749 IM1H     138      IM1H     DC2      DRUD     -2.55400      0.400000           0   0.00000       0.00000    
      2750 IM1H     138      IM1H     H4       HDR5D    0.195000       1.00800           0   0.00000       0.00000    
      2751 IM1H     138      IM1H     C3       CD2R5D    2.50700       11.6110           0  -1.08300       1.10000    
      2752 IM1H     138      IM1H     DC3      DRUD     -2.55400      0.400000           0   0.00000       0.00000    
      2753 IM1H     138      IM1H     H5       HDR5D    0.192000       1.00800           0   0.00000       0.00000    
      2754 IM1H     138      IM1H     C4       CD2R5E    2.72410       11.6110           0  -1.25300       1.20000    
      2755 IM1H     138      IM1H     DC4      DRUD     -2.74710      0.400000           0   0.00000       0.00000    
      2756 IM1H     138      IM1H     H6       HDR5E    0.203000       1.00800           0   0.00000       0.00000    
      2757 IM1H     138      IM1H     N2       ND2R5C    2.04220       13.6070           0 -0.803000       1.00000    
      2758 IM1H     138      IM1H     DN2      DRUD     -2.19920      0.400000           0   0.00000       0.00000    
      2759 IM1H     138      IM1H     H7       HDP1A    0.363000       1.00800           0   0.00000       0.00000    
      2760 IM1H     138      IM1H     LPN21    LPD       0.00000       0.00000          -1   0.00000       0.00000    
      2761 IM1H     139      IM1H     C1       CD33F     2.48500       11.6110           0  -1.18100       1.10000    
      2762 IM1H     139      IM1H     DC1      DRUD     -2.66700      0.400000           0   0.00000       0.00000    
      2763 IM1H     139      IM1H     H1       HDA3A    0.135000       1.00800           0   0.00000       0.00000    
      2764 IM1H     139      IM1H     H2       HDA3A    0.135000       1.00800           0   0.00000       0.00000    
      2765 IM1H     139      IM1H     H3       HDA3A    0.135000       1.00800           0   0.00000       0.00000    
      2766 IM1H     139      IM1H     N1       ND2R5C    2.35720       13.6070           0 -0.803000       1.00000    
      2767 IM1H     139      IM1H     DN1      DRUD     -2.19920      0.400000           0   0.00000       0.00000    
      2768 IM1H     139      IM1H     C2       CD2R5D    2.44700       11.6110           0  -1.08300       1.10000    
      2769 IM1H     139      IM1H     DC2      DRUD     -2.55400      0.400000           0   0.00000       0.00000    
      2770 IM1H     139      IM1H     H4       HDR5D    0.195000       1.00800           0   0.00000       0.00000    
      2771 IM1H     139      IM1H     C3       CD2R5D    2.50700       11.6110           0  -1.08300       1.10000    
      2772 IM1H     139      IM1H     DC3      DRUD     -2.55400      0.400000           0   0.00000       0.00000    
      2773 IM1H     139      IM1H     H5       HDR5D    0.192000       1.00800           0   0.00000       0.00000    
      2774 IM1H     139      IM1H     C4       CD2R5E    2.72410       11.6110           0  -1.25300       1.20000    
      2775 IM1H     139      IM1H     DC4      DRUD     -2.74710      0.400000           0   0.00000       0.00000    
      2776 IM1H     139      IM1H     H6       HDR5E    0.203000       1.00800           0   0.00000       0.00000    
      2777 IM1H     139      IM1H     N2       ND2R5C    2.04220       13.6070           0 -0.803000       1.00000    
      2778 IM1H     139      IM1H     DN2      DRUD     -2.19920      0.400000           0   0.00000       0.00000    
      2779 IM1H     139      IM1H     H7       HDP1A    0.363000       1.00800           0   0.00000       0.00000    
      2780 IM1H     139      IM1H     LPN21    LPD       0.00000       0.00000          -1   0.00000       0.00000    
      2781 IM1H     140      IM1H     C1       CD33F     2.48500       11.6110           0  -1.18100       1.10000    
      2782 IM1H     140      IM1H     DC1      DRUD     -2.66700      0.400000           0   0.00000       0.00000    
      2783 IM1H     140      IM1H     H1       HDA3A    0.135000       1.00800           0   0.00000       0.00000    
      2784 IM1H     140      IM1H     H2       HDA3A    0.135000       1.00800           0   0.00000       0.00000    
      2785 IM1H     140      IM1H     H3       HDA3A    0.135000       1.00800           0   0.00000       0.00000    
      2786 IM1H     140      IM1H     N1       ND2R5C    2.35720       13.6070           0 -0.803000       1.00000    
      2787 IM1H     140      IM1H     DN1      DRUD     -2.19920      0.400000           0   0.00000       0.00000    
      2788 IM1H     140      IM1H     C2       CD2R5D    2.44700       11.6110           0  -1.08300       1.10000    
      2789 IM1H     140      IM1H     DC2      DRUD     -2.55400      0.400000           0   0.00000       0.00000    
      2790 IM1H     140      IM1H     H4       HDR5D    0.195000       1.00800           0   0.00000       0.00000    
      2791 IM1H     140      IM1H     C3       CD2R5D    2.50700       11.6110           0  -1.08300       1.10000    
      2792 IM1H     140      IM1H     DC3      DRUD     -2.55400      0.400000           0   0.00000       0.00000    
      2793 IM1H     140      IM1H     H5       HDR5D    0.192000       1.00800           0   0.00000       0.00000    
      2794 IM1H     140      IM1H     C4       CD2R5E    2.72410       11.6110           0  -1.25300       1.20000    
      2795 IM1H     140      IM1H     DC4      DRUD     -2.74710      0.400000           0   0.00000       0.00000    
      2796 IM1H     140      IM1H     H6       HDR5E    0.203000       1.00800           0   0.00000       0.00000    
      2797 IM1H     140      IM1H     N2       ND2R5C    2.04220       13.6070           0 -0.803000       1.00000    
      2798 IM1H     140      IM1H     DN2      DRUD     -2.19920      0.400000           0   0.00000       0.00000    
      2799 IM1H     140      IM1H     H7       HDP1A    0.363000       1.00800           0   0.00000       0.00000    
      2800 IM1H     140      IM1H     LPN21    LPD       0.00000       0.00000          -1   0.00000       0.00000    
      2801 IM1H     141      IM1H     C1       CD33F     2.48500       11.6110           0  -1.18100       1.10000    
      2802 IM1H     141      IM1H     DC1      DRUD     -2.66700      0.400000           0   0.00000       0.00000    
      2803 IM1H     141      IM1H     H1       HDA3A    0.135000       1.00800           0   0.00000       0.00000    
      2804 IM1H     141      IM1H     H2       HDA3A    0.135000       1.00800           0   0.00000       0.00000    
      2805 IM1H     141      IM1H     H3       HDA3A    0.135000       1.00800           0   0.00000       0.00000    
      2806 IM1H     141      IM1H     N1       ND2R5C    2.35720       13.6070           0 -0.803000       1.00000    
      2807 IM1H     141      IM1H     DN1      DRUD     -2.19920      0.400000           0   0.00000       0.00000    
      2808 IM1H     141      IM1H     C2       CD2R5D    2.44700       11.6110           0  -1.08300       1.10000    
      2809 IM1H     141      IM1H     DC2      DRUD     -2.55400      0.400000           0   0.00000       0.00000    
      2810 IM1H     141      IM1H     H4       HDR5D    0.195000       1.00800           0   0.00000       0.00000    
      2811 IM1H     141      IM1H     C3       CD2R5D    2.50700       11.6110           0  -1.08300       1.10000    
      2812 IM1H     141      IM1H     DC3      DRUD     -2.55400      0.400000           0   0.00000       0.00000    
      2813 IM1H     141      IM1H     H5       HDR5D    0.192000       1.00800           0   0.00000       0.00000    
      2814 IM1H     141      IM1H     C4       CD2R5E    2.72410       11.6110           0  -1.25300       1.20000    
      2815 IM1H     141      IM1H     DC4      DRUD     -2.74710      0.400000           0   0.00000       0.00000    
      2816 IM1H     141      IM1H     H6       HDR5E    0.203000       1.00800           0   0.00000       0.00000    
      2817 IM1H     141      IM1H     N2       ND2R5C    2.04220       13.6070           0 -0.803000       1.00000    
      2818 IM1H     141      IM1H     DN2      DRUD     -2.19920      0.400000           0   0.00000       0.00000    
      2819 IM1H     141      IM1H     H7       HDP1A    0.363000       1.00800           0   0.00000       0.00000    
      2820 IM1H     141      IM1H     LPN21    LPD       0.00000       0.00000          -1   0.00000       0.00000    
      2821 IM1H     142      IM1H     C1       CD33F     2.48500       11.6110           0  -1.18100       1.10000    
      2822 IM1H     142      IM1H     DC1      DRUD     -2.66700      0.400000           0   0.00000       0.00000    
      2823 IM1H     142      IM1H     H1       HDA3A    0.135000       1.00800           0   0.00000       0.00000    
      2824 IM1H     142      IM1H     H2       HDA3A    0.135000       1.00800           0   0.00000       0.00000    
      2825 IM1H     142      IM1H     H3       HDA3A    0.135000       1.00800           0   0.00000       0.00000    
      2826 IM1H     142      IM1H     N1       ND2R5C    2.35720       13.6070           0 -0.803000       1.00000    
      2827 IM1H     142      IM1H     DN1      DRUD     -2.19920      0.400000           0   0.00000       0.00000    
      2828 IM1H     142      IM1H     C2       CD2R5D    2.44700       11.6110           0  -1.08300       1.10000    
      2829 IM1H     142      IM1H     DC2      DRUD     -2.55400      0.400000           0   0.00000       0.00000    
      2830 IM1H     142      IM1H     H4       HDR5D    0.195000       1.00800           0   0.00000       0.00000    
      2831 IM1H     142      IM1H     C3       CD2R5D    2.50700       11.6110           0  -1.08300       1.10000    
      2832 IM1H     142      IM1H     DC3      DRUD     -2.55400      0.400000           0   0.00000       0.00000    
      2833 IM1H     142      IM1H     H5       HDR5D    0.192000       1.00800           0   0.00000       0.00000    
      2834 IM1H     142      IM1H     C4       CD2R5E    2.72410       11.6110           0  -1.25300       1.20000    
      2835 IM1H     142      IM1H     DC4      DRUD     -2.74710      0.400000           0   0.00000       0.00000    
      2836 IM1H     142      IM1H     H6       HDR5E    0.203000       1.00800           0   0.00000       0.00000    
      2837 IM1H     142      IM1H     N2       ND2R5C    2.04220       13.6070           0 -0.803000       1.00000    
      2838 IM1H     142      IM1H     DN2      DRUD     -2.19920      0.400000           0   0.00000       0.00000    
      2839 IM1H     142      IM1H     H7       HDP1A    0.363000       1.00800           0   0.00000       0.00000    
      2840 IM1H     142      IM1H     LPN21    LPD       0.00000       0.00000          -1   0.00000       0.00000    
      2841 IM1H     143      IM1H     C1       CD33F     2.48500       11.6110           0  -1.18100       1.10000    
      2842 IM1H     143      IM1H     DC1      DRUD     -2.66700      0.400000           0   0.00000       0.00000    
      2843 IM1H     143      IM1H     H1       HDA3A    0.135000       1.00800           0   0.00000       0.00000    
      2844 IM1H     143      IM1H     H2       HDA3A    0.135000       1.00800           0   0.00000       0.00000    
      2845 IM1H     143      IM1H     H3       HDA3A    0.135000       1.00800           0   0.00000       0.00000    
      2846 IM1H     143      IM1H     N1       ND2R5C    2.35720       13.6070           0 -0.803000       1.00000    
      2847 IM1H     143      IM1H     DN1      DRUD     -2.19920      0.400000           0   0.00000       0.00000    
      2848 IM1H     143      IM1H     C2       CD2R5D    2.44700       11.6110           0  -1.08300       1.10000    
      2849 IM1H     143      IM1H     DC2      DRUD     -2.55400      0.400000           0   0.00000       0.00000    
      2850 IM1H     143      IM1H     H4       HDR5D    0.195000       1.00800           0   0.00000       0.00000    
      2851 IM1H     143      IM1H     C3       CD2R5D    2.50700       11.6110           0  -1.08300       1.10000    
      2852 IM1H     143      IM1H     DC3      DRUD     -2.55400      0.400000           0   0.00000       0.00000    
      2853 IM1H     143      IM1H     H5       HDR5D    0.192000       1.00800           0   0.00000       0.00000    
      2854 IM1H     143      IM1H     C4       CD2R5E    2.72410       11.6110           0  -1.25300       1.20000    
      2855 IM1H     143      IM1H     DC4      DRUD     -2.74710      0.400000           0   0.00000       0.00000    
      2856 IM1H     143      IM1H     H6       HDR5E    0.203000       1.00800           0   0.00000       0.00000    
      2857 IM1H     143      IM1H     N2       ND2R5C    2.04220       13.6070           0 -0.803000       1.00000    
      2858 IM1H     143      IM1H     DN2      DRUD     -2.19920      0.400000           0   0.00000       0.00000    
      2859 IM1H     143      IM1H     H7       HDP1A    0.363000       1.00800           0   0.00000       0.00000    
      2860 IM1H     143      IM1H     LPN21    LPD       0.00000       0.00000          -1   0.00000       0.00000    
      2861 IM1H     144      IM1H     C1       CD33F     2.48500       11.6110           0  -1.18100       1.10000    
      2862 IM1H     144      IM1H     DC1      DRUD     -2.66700      0.400000           0   0.00000       0.00000    
      2863 IM1H     144      IM1H     H1       HDA3A    0.135000       1.00800           0   0.00000       0.00000    
      2864 IM1H     144      IM1H     H2       HDA3A    0.135000       1.00800           0   0.00000       0.00000    
      2865 IM1H     144      IM1H     H3       HDA3A    0.135000       1.00800           0   0.00000       0.00000    
      2866 IM1H     144      IM1H     N1       ND2R5C    2.35720       13.6070           0 -0.803000       1.00000    
      2867 IM1H     144      IM1H     DN1      DRUD     -2.19920      0.400000           0   0.00000       0.00000    
      2868 IM1H     144      IM1H     C2       CD2R5D    2.44700       11.6110           0  -1.08300       1.10000    
      2869 IM1H     144      IM1H     DC2      DRUD     -2.55400      0.400000           0   0.00000       0.00000    
      2870 IM1H     144      IM1H     H4       HDR5D    0.195000       1.00800           0   0.00000       0.00000    
      2871 IM1H     144      IM1H     C3       CD2R5D    2.50700       11.6110           0  -1.08300       1.10000    
      2872 IM1H     144      IM1H     DC3      DRUD     -2.55400      0.400000           0   0.00000       0.00000    
      2873 IM1H     144      IM1H     H5       HDR5D    0.192000       1.00800           0   0.00000       0.00000    
      2874 IM1H     144      IM1H     C4       CD2R5E    2.72410       11.6110           0  -1.25300       1.20000    
      2875 IM1H     144      IM1H     DC4      DRUD     -2.74710      0.400000           0   0.00000       0.00000    
      2876 IM1H     144      IM1H     H6       HDR5E    0.203000       1.00800           0   0.00000       0.00000    
      2877 IM1H     144      IM1H     N2       ND2R5C    2.04220       13.6070           0 -0.803000       1.00000    
      2878 IM1H     144      IM1H     DN2      DRUD     -2.19920      0.400000           0   0.00000       0.00000    
      2879 IM1H     144      IM1H     H7       HDP1A    0.363000       1.00800           0   0.00000       0.00000    
      2880 IM1H     144      IM1H     LPN21    LPD       0.00000       0.00000          -1   0.00000       0.00000    
      2881 IM1H     145      IM1H     C1       CD33F     2.48500       11.6110           0  -1.18100       1.10000    
      2882 IM1H     145      IM1H     DC1      DRUD     -2.66700      0.400000           0   0.00000       0.00000    
      2883 IM1H     145      IM1H     H1       HDA3A    0.135000       1.00800           0   0.00000       0.00000    
      2884 IM1H     145      IM1H     H2       HDA3A    0.135000       1.00800           0   0.00000       0.00000    
      2885 IM1H     145      IM1H     H3       HDA3A    0.135000       1.00800           0   0.00000       0.00000    
      2886 IM1H     145      IM1H     N1       ND2R5C    2.35720       13.6070           0 -0.803000       1.00000    
      2887 IM1H     145      IM1H     DN1      DRUD     -2.19920      0.400000           0   0.00000       0.00000    
      2888 IM1H     145      IM1H     C2       CD2R5D    2.44700       11.6110           0  -1.08300       1.10000    
      2889 IM1H     145      IM1H     DC2      DRUD     -2.55400      0.400000           0   0.00000       0.00000    
      2890 IM1H     145      IM1H     H4       HDR5D    0.195000       1.00800           0   0.00000       0.00000    
      2891 IM1H     145      IM1H     C3       CD2R5D    2.50700       11.6110           0  -1.08300       1.10000    
      2892 IM1H     145      IM1H     DC3      DRUD     -2.55400      0.400000           0   0.00000       0.00000    
      2893 IM1H     145      IM1H     H5       HDR5D    0.192000       1.00800           0   0.00000       0.00000    
      2894 IM1H     145      IM1H     C4       CD2R5E    2.72410       11.6110           0  -1.25300       1.20000    
      2895 IM1H     145      IM1H     DC4      DRUD     -2.74710      0.400000           0   0.00000       0.00000    
      2896 IM1H     145      IM1H     H6       HDR5E    0.203000       1.00800           0   0.00000       0.00000    
      2897 IM1H     145      IM1H     N2       ND2R5C    2.04220       13.6070           0 -0.803000       1.00000    
      2898 IM1H     145      IM1H     DN2      DRUD     -2.19920      0.400000           0   0.00000       0.00000    
      2899 IM1H     145      IM1H     H7       HDP1A    0.363000       1.00800           0   0.00000       0.00000    
      2900 IM1H     145      IM1H     LPN21    LPD       0.00000       0.00000          -1   0.00000       0.00000    
      2901 IM1H     146      IM1H     C1       CD33F     2.48500       11.6110           0  -1.18100       1.10000    
      2902 IM1H     146      IM1H     DC1      DRUD     -2.66700      0.400000           0   0.00000       0.00000    
      2903 IM1H     146      IM1H     H1       HDA3A    0.135000       1.00800           0   0.00000       0.00000    
      2904 IM1H     146      IM1H     H2       HDA3A    0.135000       1.00800           0   0.00000       0.00000    
      2905 IM1H     146      IM1H     H3       HDA3A    0.135000       1.00800           0   0.00000       0.00000    
      2906 IM1H     146      IM1H     N1       ND2R5C    2.35720       13.6070           0 -0.803000       1.00000    
      2907 IM1H     146      IM1H     DN1      DRUD     -2.19920      0.400000           0   0.00000       0.00000    
      2908 IM1H     146      IM1H     C2       CD2R5D    2.44700       11.6110           0  -1.08300       1.10000    
      2909 IM1H     146      IM1H     DC2      DRUD     -2.55400      0.400000           0   0.00000       0.00000    
      2910 IM1H     146      IM1H     H4       HDR5D    0.195000       1.00800           0   0.00000       0.00000    
      2911 IM1H     146      IM1H     C3       CD2R5D    2.50700       11.6110           0  -1.08300       1.10000    
      2912 IM1H     146      IM1H     DC3      DRUD     -2.55400      0.400000           0   0.00000       0.00000    
      2913 IM1H     146      IM1H     H5       HDR5D    0.192000       1.00800           0   0.00000       0.00000    
      2914 IM1H     146      IM1H     C4       CD2R5E    2.72410       11.6110           0  -1.25300       1.20000    
      2915 IM1H     146      IM1H     DC4      DRUD     -2.74710      0.400000           0   0.00000       0.00000    
      2916 IM1H     146      IM1H     H6       HDR5E    0.203000       1.00800           0   0.00000       0.00000    
      2917 IM1H     146      IM1H     N2       ND2R5C    2.04220       13.6070           0 -0.803000       1.00000    
      2918 IM1H     146      IM1H     DN2      DRUD     -2.19920      0.400000           0   0.00000       0.00000    
      2919 IM1H     146      IM1H     H7       HDP1A    0.363000       1.00800           0   0.00000       0.00000    
      2920 IM1H     146      IM1H     LPN21    LPD       0.00000       0.00000          -1   0.00000       0.00000    
      2921 IM1H     147      IM1H     C1       CD33F     2.48500       11.6110           0  -1.18100       1.10000    
      2922 IM1H     147      IM1H     DC1      DRUD     -2.66700      0.400000           0   0.00000       0.00000    
      2923 IM1H     147      IM1H     H1       HDA3A    0.135000       1.00800           0   0.00000       0.00000    
      2924 IM1H     147      IM1H     H2       HDA3A    0.135000       1.00800           0   0.00000       0.00000    
      2925 IM1H     147      IM1H     H3       HDA3A    0.135000       1.00800           0   0.00000       0.00000    
      2926 IM1H     147      IM1H     N1       ND2R5C    2.35720       13.6070           0 -0.803000       1.00000    
      2927 IM1H     147      IM1H     DN1      DRUD     -2.19920      0.400000           0   0.00000       0.00000    
      2928 IM1H     147      IM1H     C2       CD2R5D    2.44700       11.6110           0  -1.08300       1.10000    
      2929 IM1H     147      IM1H     DC2      DRUD     -2.55400      0.400000           0   0.00000       0.00000    
      2930 IM1H     147      IM1H     H4       HDR5D    0.195000       1.00800           0   0.00000       0.00000    
      2931 IM1H     147      IM1H     C3       CD2R5D    2.50700       11.6110           0  -1.08300       1.10000    
      2932 IM1H     147      IM1H     DC3      DRUD     -2.55400      0.400000           0   0.00000       0.00000    
      2933 IM1H     147      IM1H     H5       HDR5D    0.192000       1.00800           0   0.00000       0.00000    
      2934 IM1H     147      IM1H     C4       CD2R5E    2.72410       11.6110           0  -1.25300       1.20000    
      2935 IM1H     147      IM1H     DC4      DRUD     -2.74710      0.400000           0   0.00000       0.00000    
      2936 IM1H     147      IM1H     H6       HDR5E    0.203000       1.00800           0   0.00000       0.00000    
      2937 IM1H     147      IM1H     N2       ND2R5C    2.04220       13.6070           0 -0.803000       1.00000    
      2938 IM1H     147      IM1H     DN2      DRUD     -2.19920      0.400000           0   0.00000       0.00000    
      2939 IM1H     147      IM1H     H7       HDP1A    0.363000       1.00800           0   0.00000       0.00000    
      2940 IM1H     147      IM1H     LPN21    LPD       0.00000       0.00000          -1   0.00000       0.00000    
      2941 IM1H     148      IM1H     C1       CD33F     2.48500       11.6110           0  -1.18100       1.10000    
      2942 IM1H     148      IM1H     DC1      DRUD     -2.66700      0.400000           0   0.00000       0.00000    
      2943 IM1H     148      IM1H     H1       HDA3A    0.135000       1.00800           0   0.00000       0.00000    
      2944 IM1H     148      IM1H     H2       HDA3A    0.135000       1.00800           0   0.00000       0.00000    
      2945 IM1H     148      IM1H     H3       HDA3A    0.135000       1.00800           0   0.00000       0.00000    
      2946 IM1H     148      IM1H     N1       ND2R5C    2.35720       13.6070           0 -0.803000       1.00000    
      2947 IM1H     148      IM1H     DN1      DRUD     -2.19920      0.400000           0   0.00000       0.00000    
      2948 IM1H     148      IM1H     C2       CD2R5D    2.44700       11.6110           0  -1.08300       1.10000    
      2949 IM1H     148      IM1H     DC2      DRUD     -2.55400      0.400000           0   0.00000       0.00000    
      2950 IM1H     148      IM1H     H4       HDR5D    0.195000       1.00800           0   0.00000       0.00000    
      2951 IM1H     148      IM1H     C3       CD2R5D    2.50700       11.6110           0  -1.08300       1.10000    
      2952 IM1H     148      IM1H     DC3      DRUD     -2.55400      0.400000           0   0.00000       0.00000    
      2953 IM1H     148      IM1H     H5       HDR5D    0.192000       1.00800           0   0.00000       0.00000    
      2954 IM1H     148      IM1H     C4       CD2R5E    2.72410       11.6110           0  -1.25300       1.20000    
      2955 IM1H     148      IM1H     DC4      DRUD     -2.74710      0.400000           0   0.00000       0.00000    
      2956 IM1H     148      IM1H     H6       HDR5E    0.203000       1.00800           0   0.00000       0.00000    
      2957 IM1H     148      IM1H     N2       ND2R5C    2.04220       13.6070           0 -0.803000       1.00000    
      2958 IM1H     148      IM1H     DN2      DRUD     -2.19920      0.400000           0   0.00000       0.00000    
      2959 IM1H     148      IM1H     H7       HDP1A    0.363000       1.00800           0   0.00000       0.00000    
      2960 IM1H     148      IM1H     LPN21    LPD       0.00000       0.00000          -1   0.00000       0.00000    
      2961 IM1H     149      IM1H     C1       CD33F     2.48500       11.6110           0  -1.18100       1.10000    
      2962 IM1H     149      IM1H     DC1      DRUD     -2.66700      0.400000           0   0.00000       0.00000    
      2963 IM1H     149      IM1H     H1       HDA3A    0.135000       1.00800           0   0.00000       0.00000    
      2964 IM1H     149      IM1H     H2       HDA3A    0.135000       1.00800           0   0.00000       0.00000    
      2965 IM1H     149      IM1H     H3       HDA3A    0.135000       1.00800           0   0.00000       0.00000    
      2966 IM1H     149      IM1H     N1       ND2R5C    2.35720       13.6070           0 -0.803000       1.00000    
      2967 IM1H     149      IM1H     DN1      DRUD     -2.19920      0.400000           0   0.00000       0.00000    
      2968 IM1H     149      IM1H     C2       CD2R5D    2.44700       11.6110           0  -1.08300       1.10000    
      2969 IM1H     149      IM1H     DC2      DRUD     -2.55400      0.400000           0   0.00000       0.00000    
      2970 IM1H     149      IM1H     H4       HDR5D    0.195000       1.00800           0   0.00000       0.00000    
      2971 IM1H     149      IM1H     C3       CD2R5D    2.50700       11.6110           0  -1.08300       1.10000    
      2972 IM1H     149      IM1H     DC3      DRUD     -2.55400      0.400000           0   0.00000       0.00000    
      2973 IM1H     149      IM1H     H5       HDR5D    0.192000       1.00800           0   0.00000       0.00000    
      2974 IM1H     149      IM1H     C4       CD2R5E    2.72410       11.6110           0  -1.25300       1.20000    
      2975 IM1H     149      IM1H     DC4      DRUD     -2.74710      0.400000           0   0.00000       0.00000    
      2976 IM1H     149      IM1H     H6       HDR5E    0.203000       1.00800           0   0.00000       0.00000    
      2977 IM1H     149      IM1H     N2       ND2R5C    2.04220       13.6070           0 -0.803000       1.00000    
      2978 IM1H     149      IM1H     DN2      DRUD     -2.19920      0.400000           0   0.00000       0.00000    
      2979 IM1H     149      IM1H     H7       HDP1A    0.363000       1.00800           0   0.00000       0.00000    
      2980 IM1H     149      IM1H     LPN21    LPD       0.00000       0.00000          -1   0.00000       0.00000    
      2981 IM1H     150      IM1H     C1       CD33F     2.48500       11.6110           0  -1.18100       1.10000    
      2982 IM1H     150      IM1H     DC1      DRUD     -2.66700      0.400000           0   0.00000       0.00000    
      2983 IM1H     150      IM1H     H1       HDA3A    0.135000       1.00800           0   0.00000       0.00000    
      2984 IM1H     150      IM1H     H2       HDA3A    0.135000       1.00800           0   0.00000       0.00000    
      2985 IM1H     150      IM1H     H3       HDA3A    0.135000       1.00800           0   0.00000       0.00000    
      2986 IM1H     150      IM1H     N1       ND2R5C    2.35720       13.6070           0 -0.803000       1.00000    
      2987 IM1H     150      IM1H     DN1      DRUD     -2.19920      0.400000           0   0.00000       0.00000    
      2988 IM1H     150      IM1H     C2       CD2R5D    2.44700       11.6110           0  -1.08300       1.10000    
      2989 IM1H     150      IM1H     DC2      DRUD     -2.55400      0.400000           0   0.00000       0.00000    
      2990 IM1H     150      IM1H     H4       HDR5D    0.195000       1.00800           0   0.00000       0.00000    
      2991 IM1H     150      IM1H     C3       CD2R5D    2.50700       11.6110           0  -1.08300       1.10000    
      2992 IM1H     150      IM1H     DC3      DRUD     -2.55400      0.400000           0   0.00000       0.00000    
      2993 IM1H     150      IM1H     H5       HDR5D    0.192000       1.00800           0   0.00000       0.00000    
      2994 IM1H     150      IM1H     C4       CD2R5E    2.72410       11.6110           0  -1.25300       1.20000    
      2995 IM1H     150      IM1H     DC4      DRUD     -2.74710      0.400000           0   0.00000       0.00000    
      2996 IM1H     150      IM1H     H6       HDR5E    0.203000       1.00800           0   0.00000       0.00000    
      2997 IM1H     150      IM1H     N2       ND2R5C    2.04220       13.6070           0 -0.803000       1.00000    
      2998 IM1H     150      IM1H     DN2      DRUD     -2.19920      0.400000           0   0.00000       0.00000    
      2999 IM1H     150      IM1H     H7       HDP1A    0.363000       1.00800           0   0.00000       0.00000    
      3000 IM1H     150      IM1H     LPN21    LPD       0.00000       0.00000          -1   0.00000       0.00000    
      3001 IM1H     151      IM1H     C1       CD33F     2.48500       11.6110           0  -1.18100       1.10000    
      3002 IM1H     151      IM1H     DC1      DRUD     -2.66700      0.400000           0   0.00000       0.00000    
      3003 IM1H     151      IM1H     H1       HDA3A    0.135000       1.00800           0   0.00000       0.00000    
      3004 IM1H     151      IM1H     H2       HDA3A    0.135000       1.00800           0   0.00000       0.00000    
      3005 IM1H     151      IM1H     H3       HDA3A    0.135000       1.00800           0   0.00000       0.00000    
      3006 IM1H     151      IM1H     N1       ND2R5C    2.35720       13.6070           0 -0.803000       1.00000    
      3007 IM1H     151      IM1H     DN1      DRUD     -2.19920      0.400000           0   0.00000       0.00000    
      3008 IM1H     151      IM1H     C2       CD2R5D    2.44700       11.6110           0  -1.08300       1.10000    
      3009 IM1H     151      IM1H     DC2      DRUD     -2.55400      0.400000           0   0.00000       0.00000    
      3010 IM1H     151      IM1H     H4       HDR5D    0.195000       1.00800           0   0.00000       0.00000    
      3011 IM1H     151      IM1H     C3       CD2R5D    2.50700       11.6110           0  -1.08300       1.10000    
      3012 IM1H     151      IM1H     DC3      DRUD     -2.55400      0.400000           0   0.00000       0.00000    
      3013 IM1H     151      IM1H     H5       HDR5D    0.192000       1.00800           0   0.00000       0.00000    
      3014 IM1H     151      IM1H     C4       CD2R5E    2.72410       11.6110           0  -1.25300       1.20000    
      3015 IM1H     151      IM1H     DC4      DRUD     -2.74710      0.400000           0   0.00000       0.00000    
      3016 IM1H     151      IM1H     H6       HDR5E    0.203000       1.00800           0   0.00000       0.00000    
      3017 IM1H     151      IM1H     N2       ND2R5C    2.04220       13.6070           0 -0.803000       1.00000    
      3018 IM1H     151      IM1H     DN2      DRUD     -2.19920      0.400000           0   0.00000       0.00000    
      3019 IM1H     151      IM1H     H7       HDP1A    0.363000       1.00800           0   0.00000       0.00000    
      3020 IM1H     151      IM1H     LPN21    LPD       0.00000       0.00000          -1   0.00000       0.00000    
      3021 IM1H     152      IM1H     C1       CD33F     2.48500       11.6110           0  -1.18100       1.10000    
      3022 IM1H     152      IM1H     DC1      DRUD     -2.66700      0.400000           0   0.00000       0.00000    
      3023 IM1H     152      IM1H     H1       HDA3A    0.135000       1.00800           0   0.00000       0.00000    
      3024 IM1H     152      IM1H     H2       HDA3A    0.135000       1.00800           0   0.00000       0.00000    
      3025 IM1H     152      IM1H     H3       HDA3A    0.135000       1.00800           0   0.00000       0.00000    
      3026 IM1H     152      IM1H     N1       ND2R5C    2.35720       13.6070           0 -0.803000       1.00000    
      3027 IM1H     152      IM1H     DN1      DRUD     -2.19920      0.400000           0   0.00000       0.00000    
      3028 IM1H     152      IM1H     C2       CD2R5D    2.44700       11.6110           0  -1.08300       1.10000    
      3029 IM1H     152      IM1H     DC2      DRUD     -2.55400      0.400000           0   0.00000       0.00000    
      3030 IM1H     152      IM1H     H4       HDR5D    0.195000       1.00800           0   0.00000       0.00000    
      3031 IM1H     152      IM1H     C3       CD2R5D    2.50700       11.6110           0  -1.08300       1.10000    
      3032 IM1H     152      IM1H     DC3      DRUD     -2.55400      0.400000           0   0.00000       0.00000    
      3033 IM1H     152      IM1H     H5       HDR5D    0.192000       1.00800           0   0.00000       0.00000    
      3034 IM1H     152      IM1H     C4       CD2R5E    2.72410       11.6110           0  -1.25300       1.20000    
      3035 IM1H     152      IM1H     DC4      DRUD     -2.74710      0.400000           0   0.00000       0.00000    
      3036 IM1H     152      IM1H     H6       HDR5E    0.203000       1.00800           0   0.00000       0.00000    
      3037 IM1H     152      IM1H     N2       ND2R5C    2.04220       13.6070           0 -0.803000       1.00000    
      3038 IM1H     152      IM1H     DN2      DRUD     -2.19920      0.400000           0   0.00000       0.00000    
      3039 IM1H     152      IM1H     H7       HDP1A    0.363000       1.00800           0   0.00000       0.00000    
      3040 IM1H     152      IM1H     LPN21    LPD       0.00000       0.00000          -1   0.00000       0.00000    
      3041 IM1H     153      IM1H     C1       CD33F     2.48500       11.6110           0  -1.18100       1.10000    
      3042 IM1H     153      IM1H     DC1      DRUD     -2.66700      0.400000           0   0.00000       0.00000    
      3043 IM1H     153      IM1H     H1       HDA3A    0.135000       1.00800           0   0.00000       0.00000    
      3044 IM1H     153      IM1H     H2       HDA3A    0.135000       1.00800           0   0.00000       0.00000    
      3045 IM1H     153      IM1H     H3       HDA3A    0.135000       1.00800           0   0.00000       0.00000    
      3046 IM1H     153      IM1H     N1       ND2R5C    2.35720       13.6070           0 -0.803000       1.00000    
      3047 IM1H     153      IM1H     DN1      DRUD     -2.19920      0.400000           0   0.00000       0.00000    
      3048 IM1H     153      IM1H     C2       CD2R5D    2.44700       11.6110           0  -1.08300       1.10000    
      3049 IM1H     153      IM1H     DC2      DRUD     -2.55400      0.400000           0   0.00000       0.00000    
      3050 IM1H     153      IM1H     H4       HDR5D    0.195000       1.00800           0   0.00000       0.00000    
      3051 IM1H     153      IM1H     C3       CD2R5D    2.50700       11.6110           0  -1.08300       1.10000    
      3052 IM1H     153      IM1H     DC3      DRUD     -2.55400      0.400000           0   0.00000       0.00000    
      3053 IM1H     153      IM1H     H5       HDR5D    0.192000       1.00800           0   0.00000       0.00000    
      3054 IM1H     153      IM1H     C4       CD2R5E    2.72410       11.6110           0  -1.25300       1.20000    
      3055 IM1H     153      IM1H     DC4      DRUD     -2.74710      0.400000           0   0.00000       0.00000    
      3056 IM1H     153      IM1H     H6       HDR5E    0.203000       1.00800           0   0.00000       0.00000    
      3057 IM1H     153      IM1H     N2       ND2R5C    2.04220       13.6070           0 -0.803000       1.00000    
      3058 IM1H     153      IM1H     DN2      DRUD     -2.19920      0.400000           0   0.00000       0.00000    
      3059 IM1H     153      IM1H     H7       HDP1A    0.363000       1.00800           0   0.00000       0.00000    
      3060 IM1H     153      IM1H     LPN21    LPD       0.00000       0.00000          -1   0.00000       0.00000    
      3061 IM1H     154      IM1H     C1       CD33F     2.48500       11.6110           0  -1.18100       1.10000    
      3062 IM1H     154      IM1H     DC1      DRUD     -2.66700      0.400000           0   0.00000       0.00000    
      3063 IM1H     154      IM1H     H1       HDA3A    0.135000       1.00800           0   0.00000       0.00000    
      3064 IM1H     154      IM1H     H2       HDA3A    0.135000       1.00800           0   0.00000       0.00000    
      3065 IM1H     154      IM1H     H3       HDA3A    0.135000       1.00800           0   0.00000       0.00000    
      3066 IM1H     154      IM1H     N1       ND2R5C    2.35720       13.6070           0 -0.803000       1.00000    
      3067 IM1H     154      IM1H     DN1      DRUD     -2.19920      0.400000           0   0.00000       0.00000    
      3068 IM1H     154      IM1H     C2       CD2R5D    2.44700       11.6110           0  -1.08300       1.10000    
      3069 IM1H     154      IM1H     DC2      DRUD     -2.55400      0.400000           0   0.00000       0.00000    
      3070 IM1H     154      IM1H     H4       HDR5D    0.195000       1.00800           0   0.00000       0.00000    
      3071 IM1H     154      IM1H     C3       CD2R5D    2.50700       11.6110           0  -1.08300       1.10000    
      3072 IM1H     154      IM1H     DC3      DRUD     -2.55400      0.400000           0   0.00000       0.00000    
      3073 IM1H     154      IM1H     H5       HDR5D    0.192000       1.00800           0   0.00000       0.00000    
      3074 IM1H     154      IM1H     C4       CD2R5E    2.72410       11.6110           0  -1.25300       1.20000    
      3075 IM1H     154      IM1H     DC4      DRUD     -2.74710      0.400000           0   0.00000       0.00000    
      3076 IM1H     154      IM1H     H6       HDR5E    0.203000       1.00800           0   0.00000       0.00000    
      3077 IM1H     154      IM1H     N2       ND2R5C    2.04220       13.6070           0 -0.803000       1.00000    
      3078 IM1H     154      IM1H     DN2      DRUD     -2.19920      0.400000           0   0.00000       0.00000    
      3079 IM1H     154      IM1H     H7       HDP1A    0.363000       1.00800           0   0.00000       0.00000    
      3080 IM1H     154      IM1H     LPN21    LPD       0.00000       0.00000          -1   0.00000       0.00000    
      3081 IM1H     155      IM1H     C1       CD33F     2.48500       11.6110           0  -1.18100       1.10000    
      3082 IM1H     155      IM1H     DC1      DRUD     -2.66700      0.400000           0   0.00000       0.00000    
      3083 IM1H     155      IM1H     H1       HDA3A    0.135000       1.00800           0   0.00000       0.00000    
      3084 IM1H     155      IM1H     H2       HDA3A    0.135000       1.00800           0   0.00000       0.00000    
      3085 IM1H     155      IM1H     H3       HDA3A    0.135000       1.00800           0   0.00000       0.00000    
      3086 IM1H     155      IM1H     N1       ND2R5C    2.35720       13.6070           0 -0.803000       1.00000    
      3087 IM1H     155      IM1H     DN1      DRUD     -2.19920      0.400000           0   0.00000       0.00000    
      3088 IM1H     155      IM1H     C2       CD2R5D    2.44700       11.6110           0  -1.08300       1.10000    
      3089 IM1H     155      IM1H     DC2      DRUD     -2.55400      0.400000           0   0.00000       0.00000    
      3090 IM1H     155      IM1H     H4       HDR5D    0.195000       1.00800           0   0.00000       0.00000    
      3091 IM1H     155      IM1H     C3       CD2R5D    2.50700       11.6110           0  -1.08300       1.10000    
      3092 IM1H     155      IM1H     DC3      DRUD     -2.55400      0.400000           0   0.00000       0.00000    
      3093 IM1H     155      IM1H     H5       HDR5D    0.192000       1.00800           0   0.00000       0.00000    
      3094 IM1H     155      IM1H     C4       CD2R5E    2.72410       11.6110           0  -1.25300       1.20000    
      3095 IM1H     155      IM1H     DC4      DRUD     -2.74710      0.400000           0   0.00000       0.00000    
      3096 IM1H     155      IM1H     H6       HDR5E    0.203000       1.00800           0   0.00000       0.00000    
      3097 IM1H     155      IM1H     N2       ND2R5C    2.04220       13.6070           0 -0.803000       1.00000    
      3098 IM1H     155      IM1H     DN2      DRUD     -2.19920      0.400000           0   0.00000       0.00000    
      3099 IM1H     155      IM1H     H7       HDP1A    0.363000       1.00800           0   0.00000       0.00000    
      3100 IM1H     155      IM1H     LPN21    LPD       0.00000       0.00000          -1   0.00000       0.00000    
      3101 IM1H     156      IM1H     C1       CD33F     2.48500       11.6110           0  -1.18100       1.10000    
      3102 IM1H     156      IM1H     DC1      DRUD     -2.66700      0.400000           0   0.00000       0.00000    
      3103 IM1H     156      IM1H     H1       HDA3A    0.135000       1.00800           0   0.00000       0.00000    
      3104 IM1H     156      IM1H     H2       HDA3A    0.135000       1.00800           0   0.00000       0.00000    
      3105 IM1H     156      IM1H     H3       HDA3A    0.135000       1.00800           0   0.00000       0.00000    
      3106 IM1H     156      IM1H     N1       ND2R5C    2.35720       13.6070           0 -0.803000       1.00000    
      3107 IM1H     156      IM1H     DN1      DRUD     -2.19920      0.400000           0   0.00000       0.00000    
      3108 IM1H     156      IM1H     C2       CD2R5D    2.44700       11.6110           0  -1.08300       1.10000    
      3109 IM1H     156      IM1H     DC2      DRUD     -2.55400      0.400000           0   0.00000       0.00000    
      3110 IM1H     156      IM1H     H4       HDR5D    0.195000       1.00800           0   0.00000       0.00000    
      3111 IM1H     156      IM1H     C3       CD2R5D    2.50700       11.6110           0  -1.08300       1.10000    
      3112 IM1H     156      IM1H     DC3      DRUD     -2.55400      0.400000           0   0.00000       0.00000    
      3113 IM1H     156      IM1H     H5       HDR5D    0.192000       1.00800           0   0.00000       0.00000    
      3114 IM1H     156      IM1H     C4       CD2R5E    2.72410       11.6110           0  -1.25300       1.20000    
      3115 IM1H     156      IM1H     DC4      DRUD     -2.74710      0.400000           0   0.00000       0.00000    
      3116 IM1H     156      IM1H     H6       HDR5E    0.203000       1.00800           0   0.00000       0.00000    
      3117 IM1H     156      IM1H     N2       ND2R5C    2.04220       13.6070           0 -0.803000       1.00000    
      3118 IM1H     156      IM1H     DN2      DRUD     -2.19920      0.400000           0   0.00000       0.00000    
      3119 IM1H     156      IM1H     H7       HDP1A    0.363000       1.00800           0   0.00000       0.00000    
      3120 IM1H     156      IM1H     LPN21    LPD       0.00000       0.00000          -1   0.00000       0.00000    
      3121 IM1H     157      IM1H     C1       CD33F     2.48500       11.6110           0  -1.18100       1.10000    
      3122 IM1H     157      IM1H     DC1      DRUD     -2.66700      0.400000           0   0.00000       0.00000    
      3123 IM1H     157      IM1H     H1       HDA3A    0.135000       1.00800           0   0.00000       0.00000    
      3124 IM1H     157      IM1H     H2       HDA3A    0.135000       1.00800           0   0.00000       0.00000    
      3125 IM1H     157      IM1H     H3       HDA3A    0.135000       1.00800           0   0.00000       0.00000    
      3126 IM1H     157      IM1H     N1       ND2R5C    2.35720       13.6070           0 -0.803000       1.00000    
      3127 IM1H     157      IM1H     DN1      DRUD     -2.19920      0.400000           0   0.00000       0.00000    
      3128 IM1H     157      IM1H     C2       CD2R5D    2.44700       11.6110           0  -1.08300       1.10000    
      3129 IM1H     157      IM1H     DC2      DRUD     -2.55400      0.400000           0   0.00000       0.00000    
      3130 IM1H     157      IM1H     H4       HDR5D    0.195000       1.00800           0   0.00000       0.00000    
      3131 IM1H     157      IM1H     C3       CD2R5D    2.50700       11.6110           0  -1.08300       1.10000    
      3132 IM1H     157      IM1H     DC3      DRUD     -2.55400      0.400000           0   0.00000       0.00000    
      3133 IM1H     157      IM1H     H5       HDR5D    0.192000       1.00800           0   0.00000       0.00000    
      3134 IM1H     157      IM1H     C4       CD2R5E    2.72410       11.6110           0  -1.25300       1.20000    
      3135 IM1H     157      IM1H     DC4      DRUD     -2.74710      0.400000           0   0.00000       0.00000    
      3136 IM1H     157      IM1H     H6       HDR5E    0.203000       1.00800           0   0.00000       0.00000    
      3137 IM1H     157      IM1H     N2       ND2R5C    2.04220       13.6070           0 -0.803000       1.00000    
      3138 IM1H     157      IM1H     DN2      DRUD     -2.19920      0.400000           0   0.00000       0.00000    
      3139 IM1H     157      IM1H     H7       HDP1A    0.363000       1.00800           0   0.00000       0.00000    
      3140 IM1H     157      IM1H     LPN21    LPD       0.00000       0.00000          -1   0.00000       0.00000    
      3141 IM1H     158      IM1H     C1       CD33F     2.48500       11.6110           0  -1.18100       1.10000    
      3142 IM1H     158      IM1H     DC1      DRUD     -2.66700      0.400000           0   0.00000       0.00000    
      3143 IM1H     158      IM1H     H1       HDA3A    0.135000       1.00800           0   0.00000       0.00000    
      3144 IM1H     158      IM1H     H2       HDA3A    0.135000       1.00800           0   0.00000       0.00000    
      3145 IM1H     158      IM1H     H3       HDA3A    0.135000       1.00800           0   0.00000       0.00000    
      3146 IM1H     158      IM1H     N1       ND2R5C    2.35720       13.6070           0 -0.803000       1.00000    
      3147 IM1H     158      IM1H     DN1      DRUD     -2.19920      0.400000           0   0.00000       0.00000    
      3148 IM1H     158      IM1H     C2       CD2R5D    2.44700       11.6110           0  -1.08300       1.10000    
      3149 IM1H     158      IM1H     DC2      DRUD     -2.55400      0.400000           0   0.00000       0.00000    
      3150 IM1H     158      IM1H     H4       HDR5D    0.195000       1.00800           0   0.00000       0.00000    
      3151 IM1H     158      IM1H     C3       CD2R5D    2.50700       11.6110           0  -1.08300       1.10000    
      3152 IM1H     158      IM1H     DC3      DRUD     -2.55400      0.400000           0   0.00000       0.00000    
      3153 IM1H     158      IM1H     H5       HDR5D    0.192000       1.00800           0   0.00000       0.00000    
      3154 IM1H     158      IM1H     C4       CD2R5E    2.72410       11.6110           0  -1.25300       1.20000    
      3155 IM1H     158      IM1H     DC4      DRUD     -2.74710      0.400000           0   0.00000       0.00000    
      3156 IM1H     158      IM1H     H6       HDR5E    0.203000       1.00800           0   0.00000       0.00000    
      3157 IM1H     158      IM1H     N2       ND2R5C    2.04220       13.6070           0 -0.803000       1.00000    
      3158 IM1H     158      IM1H     DN2      DRUD     -2.19920      0.400000           0   0.00000       0.00000    
      3159 IM1H     158      IM1H     H7       HDP1A    0.363000       1.00800           0   0.00000       0.00000    
      3160 IM1H     158      IM1H     LPN21    LPD       0.00000       0.00000          -1   0.00000       0.00000    
      3161 IM1H     159      IM1H     C1       CD33F     2.48500       11.6110           0  -1.18100       1.10000    
      3162 IM1H     159      IM1H     DC1      DRUD     -2.66700      0.400000           0   0.00000       0.00000    
      3163 IM1H     159      IM1H     H1       HDA3A    0.135000       1.00800           0   0.00000       0.00000    
      3164 IM1H     159      IM1H     H2       HDA3A    0.135000       1.00800           0   0.00000       0.00000    
      3165 IM1H     159      IM1H     H3       HDA3A    0.135000       1.00800           0   0.00000       0.00000    
      3166 IM1H     159      IM1H     N1       ND2R5C    2.35720       13.6070           0 -0.803000       1.00000    
      3167 IM1H     159      IM1H     DN1      DRUD     -2.19920      0.400000           0   0.00000       0.00000    
      3168 IM1H     159      IM1H     C2       CD2R5D    2.44700       11.6110           0  -1.08300       1.10000    
      3169 IM1H     159      IM1H     DC2      DRUD     -2.55400      0.400000           0   0.00000       0.00000    
      3170 IM1H     159      IM1H     H4       HDR5D    0.195000       1.00800           0   0.00000       0.00000    
      3171 IM1H     159      IM1H     C3       CD2R5D    2.50700       11.6110           0  -1.08300       1.10000    
      3172 IM1H     159      IM1H     DC3      DRUD     -2.55400      0.400000           0   0.00000       0.00000    
      3173 IM1H     159      IM1H     H5       HDR5D    0.192000       1.00800           0   0.00000       0.00000    
      3174 IM1H     159      IM1H     C4       CD2R5E    2.72410       11.6110           0  -1.25300       1.20000    
      3175 IM1H     159      IM1H     DC4      DRUD     -2.74710      0.400000           0   0.00000       0.00000    
      3176 IM1H     159      IM1H     H6       HDR5E    0.203000       1.00800           0   0.00000       0.00000    
      3177 IM1H     159      IM1H     N2       ND2R5C    2.04220       13.6070           0 -0.803000       1.00000    
      3178 IM1H     159      IM1H     DN2      DRUD     -2.19920      0.400000           0   0.00000       0.00000    
      3179 IM1H     159      IM1H     H7       HDP1A    0.363000       1.00800           0   0.00000       0.00000    
      3180 IM1H     159      IM1H     LPN21    LPD       0.00000       0.00000          -1   0.00000       0.00000    
      3181 IM1H     160      IM1H     C1       CD33F     2.48500       11.6110           0  -1.18100       1.10000    
      3182 IM1H     160      IM1H     DC1      DRUD     -2.66700      0.400000           0   0.00000       0.00000    
      3183 IM1H     160      IM1H     H1       HDA3A    0.135000       1.00800           0   0.00000       0.00000    
      3184 IM1H     160      IM1H     H2       HDA3A    0.135000       1.00800           0   0.00000       0.00000    
      3185 IM1H     160      IM1H     H3       HDA3A    0.135000       1.00800           0   0.00000       0.00000    
      3186 IM1H     160      IM1H     N1       ND2R5C    2.35720       13.6070           0 -0.803000       1.00000    
      3187 IM1H     160      IM1H     DN1      DRUD     -2.19920      0.400000           0   0.00000       0.00000    
      3188 IM1H     160      IM1H     C2       CD2R5D    2.44700       11.6110           0  -1.08300       1.10000    
      3189 IM1H     160      IM1H     DC2      DRUD     -2.55400      0.400000           0   0.00000       0.00000    
      3190 IM1H     160      IM1H     H4       HDR5D    0.195000       1.00800           0   0.00000       0.00000    
      3191 IM1H     160      IM1H     C3       CD2R5D    2.50700       11.6110           0  -1.08300       1.10000    
      3192 IM1H     160      IM1H     DC3      DRUD     -2.55400      0.400000           0   0.00000       0.00000    
      3193 IM1H     160      IM1H     H5       HDR5D    0.192000       1.00800           0   0.00000       0.00000    
      3194 IM1H     160      IM1H     C4       CD2R5E    2.72410       11.6110           0  -1.25300       1.20000    
      3195 IM1H     160      IM1H     DC4      DRUD     -2.74710      0.400000           0   0.00000       0.00000    
      3196 IM1H     160      IM1H     H6       HDR5E    0.203000       1.00800           0   0.00000       0.00000    
      3197 IM1H     160      IM1H     N2       ND2R5C    2.04220       13.6070           0 -0.803000       1.00000    
      3198 IM1H     160      IM1H     DN2      DRUD     -2.19920      0.400000           0   0.00000       0.00000    
      3199 IM1H     160      IM1H     H7       HDP1A    0.363000       1.00800           0   0.00000       0.00000    
      3200 IM1H     160      IM1H     LPN21    LPD       0.00000       0.00000          -1   0.00000       0.00000    
      3201 IM1H     161      IM1H     C1       CD33F     2.48500       11.6110           0  -1.18100       1.10000    
      3202 IM1H     161      IM1H     DC1      DRUD     -2.66700      0.400000           0   0.00000       0.00000    
      3203 IM1H     161      IM1H     H1       HDA3A    0.135000       1.00800           0   0.00000       0.00000    
      3204 IM1H     161      IM1H     H2       HDA3A    0.135000       1.00800           0   0.00000       0.00000    
      3205 IM1H     161      IM1H     H3       HDA3A    0.135000       1.00800           0   0.00000       0.00000    
      3206 IM1H     161      IM1H     N1       ND2R5C    2.35720       13.6070           0 -0.803000       1.00000    
      3207 IM1H     161      IM1H     DN1      DRUD     -2.19920      0.400000           0   0.00000       0.00000    
      3208 IM1H     161      IM1H     C2       CD2R5D    2.44700       11.6110           0  -1.08300       1.10000    
      3209 IM1H     161      IM1H     DC2      DRUD     -2.55400      0.400000           0   0.00000       0.00000    
      3210 IM1H     161      IM1H     H4       HDR5D    0.195000       1.00800           0   0.00000       0.00000    
      3211 IM1H     161      IM1H     C3       CD2R5D    2.50700       11.6110           0  -1.08300       1.10000    
      3212 IM1H     161      IM1H     DC3      DRUD     -2.55400      0.400000           0   0.00000       0.00000    
      3213 IM1H     161      IM1H     H5       HDR5D    0.192000       1.00800           0   0.00000       0.00000    
      3214 IM1H     161      IM1H     C4       CD2R5E    2.72410       11.6110           0  -1.25300       1.20000    
      3215 IM1H     161      IM1H     DC4      DRUD     -2.74710      0.400000           0   0.00000       0.00000    
      3216 IM1H     161      IM1H     H6       HDR5E    0.203000       1.00800           0   0.00000       0.00000    
      3217 IM1H     161      IM1H     N2       ND2R5C    2.04220       13.6070           0 -0.803000       1.00000    
      3218 IM1H     161      IM1H     DN2      DRUD     -2.19920      0.400000           0   0.00000       0.00000    
      3219 IM1H     161      IM1H     H7       HDP1A    0.363000       1.00800           0   0.00000       0.00000    
      3220 IM1H     161      IM1H     LPN21    LPD       0.00000       0.00000          -1   0.00000       0.00000    
      3221 IM1H     162      IM1H     C1       CD33F     2.48500       11.6110           0  -1.18100       1.10000    
      3222 IM1H     162      IM1H     DC1      DRUD     -2.66700      0.400000           0   0.00000       0.00000    
      3223 IM1H     162      IM1H     H1       HDA3A    0.135000       1.00800           0   0.00000       0.00000    
      3224 IM1H     162      IM1H     H2       HDA3A    0.135000       1.00800           0   0.00000       0.00000    
      3225 IM1H     162      IM1H     H3       HDA3A    0.135000       1.00800           0   0.00000       0.00000    
      3226 IM1H     162      IM1H     N1       ND2R5C    2.35720       13.6070           0 -0.803000       1.00000    
      3227 IM1H     162      IM1H     DN1      DRUD     -2.19920      0.400000           0   0.00000       0.00000    
      3228 IM1H     162      IM1H     C2       CD2R5D    2.44700       11.6110           0  -1.08300       1.10000    
      3229 IM1H     162      IM1H     DC2      DRUD     -2.55400      0.400000           0   0.00000       0.00000    
      3230 IM1H     162      IM1H     H4       HDR5D    0.195000       1.00800           0   0.00000       0.00000    
      3231 IM1H     162      IM1H     C3       CD2R5D    2.50700       11.6110           0  -1.08300       1.10000    
      3232 IM1H     162      IM1H     DC3      DRUD     -2.55400      0.400000           0   0.00000       0.00000    
      3233 IM1H     162      IM1H     H5       HDR5D    0.192000       1.00800           0   0.00000       0.00000    
      3234 IM1H     162      IM1H     C4       CD2R5E    2.72410       11.6110           0  -1.25300       1.20000    
      3235 IM1H     162      IM1H     DC4      DRUD     -2.74710      0.400000           0   0.00000       0.00000    
      3236 IM1H     162      IM1H     H6       HDR5E    0.203000       1.00800           0   0.00000       0.00000    
      3237 IM1H     162      IM1H     N2       ND2R5C    2.04220       13.6070           0 -0.803000       1.00000    
      3238 IM1H     162      IM1H     DN2      DRUD     -2.19920      0.400000           0   0.00000       0.00000    
      3239 IM1H     162      IM1H     H7       HDP1A    0.363000       1.00800           0   0.00000       0.00000    
      3240 IM1H     162      IM1H     LPN21    LPD       0.00000       0.00000          -1   0.00000       0.00000    
      3241 IM1H     163      IM1H     C1       CD33F     2.48500       11.6110           0  -1.18100       1.10000    
      3242 IM1H     163      IM1H     DC1      DRUD     -2.66700      0.400000           0   0.00000       0.00000    
      3243 IM1H     163      IM1H     H1       HDA3A    0.135000       1.00800           0   0.00000       0.00000    
      3244 IM1H     163      IM1H     H2       HDA3A    0.135000       1.00800           0   0.00000       0.00000    
      3245 IM1H     163      IM1H     H3       HDA3A    0.135000       1.00800           0   0.00000       0.00000    
      3246 IM1H     163      IM1H     N1       ND2R5C    2.35720       13.6070           0 -0.803000       1.00000    
      3247 IM1H     163      IM1H     DN1      DRUD     -2.19920      0.400000           0   0.00000       0.00000    
      3248 IM1H     163      IM1H     C2       CD2R5D    2.44700       11.6110           0  -1.08300       1.10000    
      3249 IM1H     163      IM1H     DC2      DRUD     -2.55400      0.400000           0   0.00000       0.00000    
      3250 IM1H     163      IM1H     H4       HDR5D    0.195000       1.00800           0   0.00000       0.00000    
      3251 IM1H     163      IM1H     C3       CD2R5D    2.50700       11.6110           0  -1.08300       1.10000    
      3252 IM1H     163      IM1H     DC3      DRUD     -2.55400      0.400000           0   0.00000       0.00000    
      3253 IM1H     163      IM1H     H5       HDR5D    0.192000       1.00800           0   0.00000       0.00000    
      3254 IM1H     163      IM1H     C4       CD2R5E    2.72410       11.6110           0  -1.25300       1.20000    
      3255 IM1H     163      IM1H     DC4      DRUD     -2.74710      0.400000           0   0.00000       0.00000    
      3256 IM1H     163      IM1H     H6       HDR5E    0.203000       1.00800           0   0.00000       0.00000    
      3257 IM1H     163      IM1H     N2       ND2R5C    2.04220       13.6070           0 -0.803000       1.00000    
      3258 IM1H     163      IM1H     DN2      DRUD     -2.19920      0.400000           0   0.00000       0.00000    
      3259 IM1H     163      IM1H     H7       HDP1A    0.363000       1.00800           0   0.00000       0.00000    
      3260 IM1H     163      IM1H     LPN21    LPD       0.00000       0.00000          -1   0.00000       0.00000    
      3261 IM1H     164      IM1H     C1       CD33F     2.48500       11.6110           0  -1.18100       1.10000    
      3262 IM1H     164      IM1H     DC1      DRUD     -2.66700      0.400000           0   0.00000       0.00000    
      3263 IM1H     164      IM1H     H1       HDA3A    0.135000       1.00800           0   0.00000       0.00000    
      3264 IM1H     164      IM1H     H2       HDA3A    0.135000       1.00800           0   0.00000       0.00000    
      3265 IM1H     164      IM1H     H3       HDA3A    0.135000       1.00800           0   0.00000       0.00000    
      3266 IM1H     164      IM1H     N1       ND2R5C    2.35720       13.6070           0 -0.803000       1.00000    
      3267 IM1H     164      IM1H     DN1      DRUD     -2.19920      0.400000           0   0.00000       0.00000    
      3268 IM1H     164      IM1H     C2       CD2R5D    2.44700       11.6110           0  -1.08300       1.10000    
      3269 IM1H     164      IM1H     DC2      DRUD     -2.55400      0.400000           0   0.00000       0.00000    
      3270 IM1H     164      IM1H     H4       HDR5D    0.195000       1.00800           0   0.00000       0.00000    
      3271 IM1H     164      IM1H     C3       CD2R5D    2.50700       11.6110           0  -1.08300       1.10000    
      3272 IM1H     164      IM1H     DC3      DRUD     -2.55400      0.400000           0   0.00000       0.00000    
      3273 IM1H     164      IM1H     H5       HDR5D    0.192000       1.00800           0   0.00000       0.00000    
      3274 IM1H     164      IM1H     C4       CD2R5E    2.72410       11.6110           0  -1.25300       1.20000    
      3275 IM1H     164      IM1H     DC4      DRUD     -2.74710      0.400000           0   0.00000       0.00000    
      3276 IM1H     164      IM1H     H6       HDR5E    0.203000       1.00800           0   0.00000       0.00000    
      3277 IM1H     164      IM1H     N2       ND2R5C    2.04220       13.6070           0 -0.803000       1.00000    
      3278 IM1H     164      IM1H     DN2      DRUD     -2.19920      0.400000           0   0.00000       0.00000    
      3279 IM1H     164      IM1H     H7       HDP1A    0.363000       1.00800           0   0.00000       0.00000    
      3280 IM1H     164      IM1H     LPN21    LPD       0.00000       0.00000          -1   0.00000       0.00000    
      3281 IM1H     165      IM1H     C1       CD33F     2.48500       11.6110           0  -1.18100       1.10000    
      3282 IM1H     165      IM1H     DC1      DRUD     -2.66700      0.400000           0   0.00000       0.00000    
      3283 IM1H     165      IM1H     H1       HDA3A    0.135000       1.00800           0   0.00000       0.00000    
      3284 IM1H     165      IM1H     H2       HDA3A    0.135000       1.00800           0   0.00000       0.00000    
      3285 IM1H     165      IM1H     H3       HDA3A    0.135000       1.00800           0   0.00000       0.00000    
      3286 IM1H     165      IM1H     N1       ND2R5C    2.35720       13.6070           0 -0.803000       1.00000    
      3287 IM1H     165      IM1H     DN1      DRUD     -2.19920      0.400000           0   0.00000       0.00000    
      3288 IM1H     165      IM1H     C2       CD2R5D    2.44700       11.6110           0  -1.08300       1.10000    
      3289 IM1H     165      IM1H     DC2      DRUD     -2.55400      0.400000           0   0.00000       0.00000    
      3290 IM1H     165      IM1H     H4       HDR5D    0.195000       1.00800           0   0.00000       0.00000    
      3291 IM1H     165      IM1H     C3       CD2R5D    2.50700       11.6110           0  -1.08300       1.10000    
      3292 IM1H     165      IM1H     DC3      DRUD     -2.55400      0.400000           0   0.00000       0.00000    
      3293 IM1H     165      IM1H     H5       HDR5D    0.192000       1.00800           0   0.00000       0.00000    
      3294 IM1H     165      IM1H     C4       CD2R5E    2.72410       11.6110           0  -1.25300       1.20000    
      3295 IM1H     165      IM1H     DC4      DRUD     -2.74710      0.400000           0   0.00000       0.00000    
      3296 IM1H     165      IM1H     H6       HDR5E    0.203000       1.00800           0   0.00000       0.00000    
      3297 IM1H     165      IM1H     N2       ND2R5C    2.04220       13.6070           0 -0.803000       1.00000    
      3298 IM1H     165      IM1H     DN2      DRUD     -2.19920      0.400000           0   0.00000       0.00000    
      3299 IM1H     165      IM1H     H7       HDP1A    0.363000       1.00800           0   0.00000       0.00000    
      3300 IM1H     165      IM1H     LPN21    LPD       0.00000       0.00000          -1   0.00000       0.00000    
      3301 IM1H     166      IM1H     C1       CD33F     2.48500       11.6110           0  -1.18100       1.10000    
      3302 IM1H     166      IM1H     DC1      DRUD     -2.66700      0.400000           0   0.00000       0.00000    
      3303 IM1H     166      IM1H     H1       HDA3A    0.135000       1.00800           0   0.00000       0.00000    
      3304 IM1H     166      IM1H     H2       HDA3A    0.135000       1.00800           0   0.00000       0.00000    
      3305 IM1H     166      IM1H     H3       HDA3A    0.135000       1.00800           0   0.00000       0.00000    
      3306 IM1H     166      IM1H     N1       ND2R5C    2.35720       13.6070           0 -0.803000       1.00000    
      3307 IM1H     166      IM1H     DN1      DRUD     -2.19920      0.400000           0   0.00000       0.00000    
      3308 IM1H     166      IM1H     C2       CD2R5D    2.44700       11.6110           0  -1.08300       1.10000    
      3309 IM1H     166      IM1H     DC2      DRUD     -2.55400      0.400000           0   0.00000       0.00000    
      3310 IM1H     166      IM1H     H4       HDR5D    0.195000       1.00800           0   0.00000       0.00000    
      3311 IM1H     166      IM1H     C3       CD2R5D    2.50700       11.6110           0  -1.08300       1.10000    
      3312 IM1H     166      IM1H     DC3      DRUD     -2.55400      0.400000           0   0.00000       0.00000    
      3313 IM1H     166      IM1H     H5       HDR5D    0.192000       1.00800           0   0.00000       0.00000    
      3314 IM1H     166      IM1H     C4       CD2R5E    2.72410       11.6110           0  -1.25300       1.20000    
      3315 IM1H     166      IM1H     DC4      DRUD     -2.74710      0.400000           0   0.00000       0.00000    
      3316 IM1H     166      IM1H     H6       HDR5E    0.203000       1.00800           0   0.00000       0.00000    
      3317 IM1H     166      IM1H     N2       ND2R5C    2.04220       13.6070           0 -0.803000       1.00000    
      3318 IM1H     166      IM1H     DN2      DRUD     -2.19920      0.400000           0   0.00000       0.00000    
      3319 IM1H     166      IM1H     H7       HDP1A    0.363000       1.00800           0   0.00000       0.00000    
      3320 IM1H     166      IM1H     LPN21    LPD       0.00000       0.00000          -1   0.00000       0.00000    
      3321 IM1H     167      IM1H     C1       CD33F     2.48500       11.6110           0  -1.18100       1.10000    
      3322 IM1H     167      IM1H     DC1      DRUD     -2.66700      0.400000           0   0.00000       0.00000    
      3323 IM1H     167      IM1H     H1       HDA3A    0.135000       1.00800           0   0.00000       0.00000    
      3324 IM1H     167      IM1H     H2       HDA3A    0.135000       1.00800           0   0.00000       0.00000    
      3325 IM1H     167      IM1H     H3       HDA3A    0.135000       1.00800           0   0.00000       0.00000    
      3326 IM1H     167      IM1H     N1       ND2R5C    2.35720       13.6070           0 -0.803000       1.00000    
      3327 IM1H     167      IM1H     DN1      DRUD     -2.19920      0.400000           0   0.00000       0.00000    
      3328 IM1H     167      IM1H     C2       CD2R5D    2.44700       11.6110           0  -1.08300       1.10000    
      3329 IM1H     167      IM1H     DC2      DRUD     -2.55400      0.400000           0   0.00000       0.00000    
      3330 IM1H     167      IM1H     H4       HDR5D    0.195000       1.00800           0   0.00000       0.00000    
      3331 IM1H     167      IM1H     C3       CD2R5D    2.50700       11.6110           0  -1.08300       1.10000    
      3332 IM1H     167      IM1H     DC3      DRUD     -2.55400      0.400000           0   0.00000       0.00000    
      3333 IM1H     167      IM1H     H5       HDR5D    0.192000       1.00800           0   0.00000       0.00000    
      3334 IM1H     167      IM1H     C4       CD2R5E    2.72410       11.6110           0  -1.25300       1.20000    
      3335 IM1H     167      IM1H     DC4      DRUD     -2.74710      0.400000           0   0.00000       0.00000    
      3336 IM1H     167      IM1H     H6       HDR5E    0.203000       1.00800           0   0.00000       0.00000    
      3337 IM1H     167      IM1H     N2       ND2R5C    2.04220       13.6070           0 -0.803000       1.00000    
      3338 IM1H     167      IM1H     DN2      DRUD     -2.19920      0.400000           0   0.00000       0.00000    
      3339 IM1H     167      IM1H     H7       HDP1A    0.363000       1.00800           0   0.00000       0.00000    
      3340 IM1H     167      IM1H     LPN21    LPD       0.00000       0.00000          -1   0.00000       0.00000    
      3341 IM1H     168      IM1H     C1       CD33F     2.48500       11.6110           0  -1.18100       1.10000    
      3342 IM1H     168      IM1H     DC1      DRUD     -2.66700      0.400000           0   0.00000       0.00000    
      3343 IM1H     168      IM1H     H1       HDA3A    0.135000       1.00800           0   0.00000       0.00000    
      3344 IM1H     168      IM1H     H2       HDA3A    0.135000       1.00800           0   0.00000       0.00000    
      3345 IM1H     168      IM1H     H3       HDA3A    0.135000       1.00800           0   0.00000       0.00000    
      3346 IM1H     168      IM1H     N1       ND2R5C    2.35720       13.6070           0 -0.803000       1.00000    
      3347 IM1H     168      IM1H     DN1      DRUD     -2.19920      0.400000           0   0.00000       0.00000    
      3348 IM1H     168      IM1H     C2       CD2R5D    2.44700       11.6110           0  -1.08300       1.10000    
      3349 IM1H     168      IM1H     DC2      DRUD     -2.55400      0.400000           0   0.00000       0.00000    
      3350 IM1H     168      IM1H     H4       HDR5D    0.195000       1.00800           0   0.00000       0.00000    
      3351 IM1H     168      IM1H     C3       CD2R5D    2.50700       11.6110           0  -1.08300       1.10000    
      3352 IM1H     168      IM1H     DC3      DRUD     -2.55400      0.400000           0   0.00000       0.00000    
      3353 IM1H     168      IM1H     H5       HDR5D    0.192000       1.00800           0   0.00000       0.00000    
      3354 IM1H     168      IM1H     C4       CD2R5E    2.72410       11.6110           0  -1.25300       1.20000    
      3355 IM1H     168      IM1H     DC4      DRUD     -2.74710      0.400000           0   0.00000       0.00000    
      3356 IM1H     168      IM1H     H6       HDR5E    0.203000       1.00800           0   0.00000       0.00000    
      3357 IM1H     168      IM1H     N2       ND2R5C    2.04220       13.6070           0 -0.803000       1.00000    
      3358 IM1H     168      IM1H     DN2      DRUD     -2.19920      0.400000           0   0.00000       0.00000    
      3359 IM1H     168      IM1H     H7       HDP1A    0.363000       1.00800           0   0.00000       0.00000    
      3360 IM1H     168      IM1H     LPN21    LPD       0.00000       0.00000          -1   0.00000       0.00000    
      3361 IM1H     169      IM1H     C1       CD33F     2.48500       11.6110           0  -1.18100       1.10000    
      3362 IM1H     169      IM1H     DC1      DRUD     -2.66700      0.400000           0   0.00000       0.00000    
      3363 IM1H     169      IM1H     H1       HDA3A    0.135000       1.00800           0   0.00000       0.00000    
      3364 IM1H     169      IM1H     H2       HDA3A    0.135000       1.00800           0   0.00000       0.00000    
      3365 IM1H     169      IM1H     H3       HDA3A    0.135000       1.00800           0   0.00000       0.00000    
      3366 IM1H     169      IM1H     N1       ND2R5C    2.35720       13.6070           0 -0.803000       1.00000    
      3367 IM1H     169      IM1H     DN1      DRUD     -2.19920      0.400000           0   0.00000       0.00000    
      3368 IM1H     169      IM1H     C2       CD2R5D    2.44700       11.6110           0  -1.08300       1.10000    
      3369 IM1H     169      IM1H     DC2      DRUD     -2.55400      0.400000           0   0.00000       0.00000    
      3370 IM1H     169      IM1H     H4       HDR5D    0.195000       1.00800           0   0.00000       0.00000    
      3371 IM1H     169      IM1H     C3       CD2R5D    2.50700       11.6110           0  -1.08300       1.10000    
      3372 IM1H     169      IM1H     DC3      DRUD     -2.55400      0.400000           0   0.00000       0.00000    
      3373 IM1H     169      IM1H     H5       HDR5D    0.192000       1.00800           0   0.00000       0.00000    
      3374 IM1H     169      IM1H     C4       CD2R5E    2.72410       11.6110           0  -1.25300       1.20000    
      3375 IM1H     169      IM1H     DC4      DRUD     -2.74710      0.400000           0   0.00000       0.00000    
      3376 IM1H     169      IM1H     H6       HDR5E    0.203000       1.00800           0   0.00000       0.00000    
      3377 IM1H     169      IM1H     N2       ND2R5C    2.04220       13.6070           0 -0.803000       1.00000    
      3378 IM1H     169      IM1H     DN2      DRUD     -2.19920      0.400000           0   0.00000       0.00000    
      3379 IM1H     169      IM1H     H7       HDP1A    0.363000       1.00800           0   0.00000       0.00000    
      3380 IM1H     169      IM1H     LPN21    LPD       0.00000       0.00000          -1   0.00000       0.00000    
      3381 IM1H     170      IM1H     C1       CD33F     2.48500       11.6110           0  -1.18100       1.10000    
      3382 IM1H     170      IM1H     DC1      DRUD     -2.66700      0.400000           0   0.00000       0.00000    
      3383 IM1H     170      IM1H     H1       HDA3A    0.135000       1.00800           0   0.00000       0.00000    
      3384 IM1H     170      IM1H     H2       HDA3A    0.135000       1.00800           0   0.00000       0.00000    
      3385 IM1H     170      IM1H     H3       HDA3A    0.135000       1.00800           0   0.00000       0.00000    
      3386 IM1H     170      IM1H     N1       ND2R5C    2.35720       13.6070           0 -0.803000       1.00000    
      3387 IM1H     170      IM1H     DN1      DRUD     -2.19920      0.400000           0   0.00000       0.00000    
      3388 IM1H     170      IM1H     C2       CD2R5D    2.44700       11.6110           0  -1.08300       1.10000    
      3389 IM1H     170      IM1H     DC2      DRUD     -2.55400      0.400000           0   0.00000       0.00000    
      3390 IM1H     170      IM1H     H4       HDR5D    0.195000       1.00800           0   0.00000       0.00000    
      3391 IM1H     170      IM1H     C3       CD2R5D    2.50700       11.6110           0  -1.08300       1.10000    
      3392 IM1H     170      IM1H     DC3      DRUD     -2.55400      0.400000           0   0.00000       0.00000    
      3393 IM1H     170      IM1H     H5       HDR5D    0.192000       1.00800           0   0.00000       0.00000    
      3394 IM1H     170      IM1H     C4       CD2R5E    2.72410       11.6110           0  -1.25300       1.20000    
      3395 IM1H     170      IM1H     DC4      DRUD     -2.74710      0.400000           0   0.00000       0.00000    
      3396 IM1H     170      IM1H     H6       HDR5E    0.203000       1.00800           0   0.00000       0.00000    
      3397 IM1H     170      IM1H     N2       ND2R5C    2.04220       13.6070           0 -0.803000       1.00000    
      3398 IM1H     170      IM1H     DN2      DRUD     -2.19920      0.400000           0   0.00000       0.00000    
      3399 IM1H     170      IM1H     H7       HDP1A    0.363000       1.00800           0   0.00000       0.00000    
      3400 IM1H     170      IM1H     LPN21    LPD       0.00000       0.00000          -1   0.00000       0.00000    
      3401 IM1H     171      IM1H     C1       CD33F     2.48500       11.6110           0  -1.18100       1.10000    
      3402 IM1H     171      IM1H     DC1      DRUD     -2.66700      0.400000           0   0.00000       0.00000    
      3403 IM1H     171      IM1H     H1       HDA3A    0.135000       1.00800           0   0.00000       0.00000    
      3404 IM1H     171      IM1H     H2       HDA3A    0.135000       1.00800           0   0.00000       0.00000    
      3405 IM1H     171      IM1H     H3       HDA3A    0.135000       1.00800           0   0.00000       0.00000    
      3406 IM1H     171      IM1H     N1       ND2R5C    2.35720       13.6070           0 -0.803000       1.00000    
      3407 IM1H     171      IM1H     DN1      DRUD     -2.19920      0.400000           0   0.00000       0.00000    
      3408 IM1H     171      IM1H     C2       CD2R5D    2.44700       11.6110           0  -1.08300       1.10000    
      3409 IM1H     171      IM1H     DC2      DRUD     -2.55400      0.400000           0   0.00000       0.00000    
      3410 IM1H     171      IM1H     H4       HDR5D    0.195000       1.00800           0   0.00000       0.00000    
      3411 IM1H     171      IM1H     C3       CD2R5D    2.50700       11.6110           0  -1.08300       1.10000    
      3412 IM1H     171      IM1H     DC3      DRUD     -2.55400      0.400000           0   0.00000       0.00000    
      3413 IM1H     171      IM1H     H5       HDR5D    0.192000       1.00800           0   0.00000       0.00000    
      3414 IM1H     171      IM1H     C4       CD2R5E    2.72410       11.6110           0  -1.25300       1.20000    
      3415 IM1H     171      IM1H     DC4      DRUD     -2.74710      0.400000           0   0.00000       0.00000    
      3416 IM1H     171      IM1H     H6       HDR5E    0.203000       1.00800           0   0.00000       0.00000    
      3417 IM1H     171      IM1H     N2       ND2R5C    2.04220       13.6070           0 -0.803000       1.00000    
      3418 IM1H     171      IM1H     DN2      DRUD     -2.19920      0.400000           0   0.00000       0.00000    
      3419 IM1H     171      IM1H     H7       HDP1A    0.363000       1.00800           0   0.00000       0.00000    
      3420 IM1H     171      IM1H     LPN21    LPD       0.00000       0.00000          -1   0.00000       0.00000    
      3421 IM1H     172      IM1H     C1       CD33F     2.48500       11.6110           0  -1.18100       1.10000    
      3422 IM1H     172      IM1H     DC1      DRUD     -2.66700      0.400000           0   0.00000       0.00000    
      3423 IM1H     172      IM1H     H1       HDA3A    0.135000       1.00800           0   0.00000       0.00000    
      3424 IM1H     172      IM1H     H2       HDA3A    0.135000       1.00800           0   0.00000       0.00000    
      3425 IM1H     172      IM1H     H3       HDA3A    0.135000       1.00800           0   0.00000       0.00000    
      3426 IM1H     172      IM1H     N1       ND2R5C    2.35720       13.6070           0 -0.803000       1.00000    
      3427 IM1H     172      IM1H     DN1      DRUD     -2.19920      0.400000           0   0.00000       0.00000    
      3428 IM1H     172      IM1H     C2       CD2R5D    2.44700       11.6110           0  -1.08300       1.10000    
      3429 IM1H     172      IM1H     DC2      DRUD     -2.55400      0.400000           0   0.00000       0.00000    
      3430 IM1H     172      IM1H     H4       HDR5D    0.195000       1.00800           0   0.00000       0.00000    
      3431 IM1H     172      IM1H     C3       CD2R5D    2.50700       11.6110           0  -1.08300       1.10000    
      3432 IM1H     172      IM1H     DC3      DRUD     -2.55400      0.400000           0   0.00000       0.00000    
      3433 IM1H     172      IM1H     H5       HDR5D    0.192000       1.00800           0   0.00000       0.00000    
      3434 IM1H     172      IM1H     C4       CD2R5E    2.72410       11.6110           0  -1.25300       1.20000    
      3435 IM1H     172      IM1H     DC4      DRUD     -2.74710      0.400000           0   0.00000       0.00000    
      3436 IM1H     172      IM1H     H6       HDR5E    0.203000       1.00800           0   0.00000       0.00000    
      3437 IM1H     172      IM1H     N2       ND2R5C    2.04220       13.6070           0 -0.803000       1.00000    
      3438 IM1H     172      IM1H     DN2      DRUD     -2.19920      0.400000           0   0.00000       0.00000    
      3439 IM1H     172      IM1H     H7       HDP1A    0.363000       1.00800           0   0.00000       0.00000    
      3440 IM1H     172      IM1H     LPN21    LPD       0.00000       0.00000          -1   0.00000       0.00000    
      3441 IM1H     173      IM1H     C1       CD33F     2.48500       11.6110           0  -1.18100       1.10000    
      3442 IM1H     173      IM1H     DC1      DRUD     -2.66700      0.400000           0   0.00000       0.00000    
      3443 IM1H     173      IM1H     H1       HDA3A    0.135000       1.00800           0   0.00000       0.00000    
      3444 IM1H     173      IM1H     H2       HDA3A    0.135000       1.00800           0   0.00000       0.00000    
      3445 IM1H     173      IM1H     H3       HDA3A    0.135000       1.00800           0   0.00000       0.00000    
      3446 IM1H     173      IM1H     N1       ND2R5C    2.35720       13.6070           0 -0.803000       1.00000    
      3447 IM1H     173      IM1H     DN1      DRUD     -2.19920      0.400000           0   0.00000       0.00000    
      3448 IM1H     173      IM1H     C2       CD2R5D    2.44700       11.6110           0  -1.08300       1.10000    
      3449 IM1H     173      IM1H     DC2      DRUD     -2.55400      0.400000           0   0.00000       0.00000    
      3450 IM1H     173      IM1H     H4       HDR5D    0.195000       1.00800           0   0.00000       0.00000    
      3451 IM1H     173      IM1H     C3       CD2R5D    2.50700       11.6110           0  -1.08300       1.10000    
      3452 IM1H     173      IM1H     DC3      DRUD     -2.55400      0.400000           0   0.00000       0.00000    
      3453 IM1H     173      IM1H     H5       HDR5D    0.192000       1.00800           0   0.00000       0.00000    
      3454 IM1H     173      IM1H     C4       CD2R5E    2.72410       11.6110           0  -1.25300       1.20000    
      3455 IM1H     173      IM1H     DC4      DRUD     -2.74710      0.400000           0   0.00000       0.00000    
      3456 IM1H     173      IM1H     H6       HDR5E    0.203000       1.00800           0   0.00000       0.00000    
      3457 IM1H     173      IM1H     N2       ND2R5C    2.04220       13.6070           0 -0.803000       1.00000    
      3458 IM1H     173      IM1H     DN2      DRUD     -2.19920      0.400000           0   0.00000       0.00000    
      3459 IM1H     173      IM1H     H7       HDP1A    0.363000       1.00800           0   0.00000       0.00000    
      3460 IM1H     173      IM1H     LPN21    LPD       0.00000       0.00000          -1   0.00000       0.00000    
      3461 IM1H     174      IM1H     C1       CD33F     2.48500       11.6110           0  -1.18100       1.10000    
      3462 IM1H     174      IM1H     DC1      DRUD     -2.66700      0.400000           0   0.00000       0.00000    
      3463 IM1H     174      IM1H     H1       HDA3A    0.135000       1.00800           0   0.00000       0.00000    
      3464 IM1H     174      IM1H     H2       HDA3A    0.135000       1.00800           0   0.00000       0.00000    
      3465 IM1H     174      IM1H     H3       HDA3A    0.135000       1.00800           0   0.00000       0.00000    
      3466 IM1H     174      IM1H     N1       ND2R5C    2.35720       13.6070           0 -0.803000       1.00000    
      3467 IM1H     174      IM1H     DN1      DRUD     -2.19920      0.400000           0   0.00000       0.00000    
      3468 IM1H     174      IM1H     C2       CD2R5D    2.44700       11.6110           0  -1.08300       1.10000    
      3469 IM1H     174      IM1H     DC2      DRUD     -2.55400      0.400000           0   0.00000       0.00000    
      3470 IM1H     174      IM1H     H4       HDR5D    0.195000       1.00800           0   0.00000       0.00000    
      3471 IM1H     174      IM1H     C3       CD2R5D    2.50700       11.6110           0  -1.08300       1.10000    
      3472 IM1H     174      IM1H     DC3      DRUD     -2.55400      0.400000           0   0.00000       0.00000    
      3473 IM1H     174      IM1H     H5       HDR5D    0.192000       1.00800           0   0.00000       0.00000    
      3474 IM1H     174      IM1H     C4       CD2R5E    2.72410       11.6110           0  -1.25300       1.20000    
      3475 IM1H     174      IM1H     DC4      DRUD     -2.74710      0.400000           0   0.00000       0.00000    
      3476 IM1H     174      IM1H     H6       HDR5E    0.203000       1.00800           0   0.00000       0.00000    
      3477 IM1H     174      IM1H     N2       ND2R5C    2.04220       13.6070           0 -0.803000       1.00000    
      3478 IM1H     174      IM1H     DN2      DRUD     -2.19920      0.400000           0   0.00000       0.00000    
      3479 IM1H     174      IM1H     H7       HDP1A    0.363000       1.00800           0   0.00000       0.00000    
      3480 IM1H     174      IM1H     LPN21    LPD       0.00000       0.00000          -1   0.00000       0.00000    
      3481 IM1H     175      IM1H     C1       CD33F     2.48500       11.6110           0  -1.18100       1.10000    
      3482 IM1H     175      IM1H     DC1      DRUD     -2.66700      0.400000           0   0.00000       0.00000    
      3483 IM1H     175      IM1H     H1       HDA3A    0.135000       1.00800           0   0.00000       0.00000    
      3484 IM1H     175      IM1H     H2       HDA3A    0.135000       1.00800           0   0.00000       0.00000    
      3485 IM1H     175      IM1H     H3       HDA3A    0.135000       1.00800           0   0.00000       0.00000    
      3486 IM1H     175      IM1H     N1       ND2R5C    2.35720       13.6070           0 -0.803000       1.00000    
      3487 IM1H     175      IM1H     DN1      DRUD     -2.19920      0.400000           0   0.00000       0.00000    
      3488 IM1H     175      IM1H     C2       CD2R5D    2.44700       11.6110           0  -1.08300       1.10000    
      3489 IM1H     175      IM1H     DC2      DRUD     -2.55400      0.400000           0   0.00000       0.00000    
      3490 IM1H     175      IM1H     H4       HDR5D    0.195000       1.00800           0   0.00000       0.00000    
      3491 IM1H     175      IM1H     C3       CD2R5D    2.50700       11.6110           0  -1.08300       1.10000    
      3492 IM1H     175      IM1H     DC3      DRUD     -2.55400      0.400000           0   0.00000       0.00000    
      3493 IM1H     175      IM1H     H5       HDR5D    0.192000       1.00800           0   0.00000       0.00000    
      3494 IM1H     175      IM1H     C4       CD2R5E    2.72410       11.6110           0  -1.25300       1.20000    
      3495 IM1H     175      IM1H     DC4      DRUD     -2.74710      0.400000           0   0.00000       0.00000    
      3496 IM1H     175      IM1H     H6       HDR5E    0.203000       1.00800           0   0.00000       0.00000    
      3497 IM1H     175      IM1H     N2       ND2R5C    2.04220       13.6070           0 -0.803000       1.00000    
      3498 IM1H     175      IM1H     DN2      DRUD     -2.19920      0.400000           0   0.00000       0.00000    
      3499 IM1H     175      IM1H     H7       HDP1A    0.363000       1.00800           0   0.00000       0.00000    
      3500 IM1H     175      IM1H     LPN21    LPD       0.00000       0.00000          -1   0.00000       0.00000    
      3501 IM1H     176      IM1H     C1       CD33F     2.48500       11.6110           0  -1.18100       1.10000    
      3502 IM1H     176      IM1H     DC1      DRUD     -2.66700      0.400000           0   0.00000       0.00000    
      3503 IM1H     176      IM1H     H1       HDA3A    0.135000       1.00800           0   0.00000       0.00000    
      3504 IM1H     176      IM1H     H2       HDA3A    0.135000       1.00800           0   0.00000       0.00000    
      3505 IM1H     176      IM1H     H3       HDA3A    0.135000       1.00800           0   0.00000       0.00000    
      3506 IM1H     176      IM1H     N1       ND2R5C    2.35720       13.6070           0 -0.803000       1.00000    
      3507 IM1H     176      IM1H     DN1      DRUD     -2.19920      0.400000           0   0.00000       0.00000    
      3508 IM1H     176      IM1H     C2       CD2R5D    2.44700       11.6110           0  -1.08300       1.10000    
      3509 IM1H     176      IM1H     DC2      DRUD     -2.55400      0.400000           0   0.00000       0.00000    
      3510 IM1H     176      IM1H     H4       HDR5D    0.195000       1.00800           0   0.00000       0.00000    
      3511 IM1H     176      IM1H     C3       CD2R5D    2.50700       11.6110           0  -1.08300       1.10000    
      3512 IM1H     176      IM1H     DC3      DRUD     -2.55400      0.400000           0   0.00000       0.00000    
      3513 IM1H     176      IM1H     H5       HDR5D    0.192000       1.00800           0   0.00000       0.00000    
      3514 IM1H     176      IM1H     C4       CD2R5E    2.72410       11.6110           0  -1.25300       1.20000    
      3515 IM1H     176      IM1H     DC4      DRUD     -2.74710      0.400000           0   0.00000       0.00000    
      3516 IM1H     176      IM1H     H6       HDR5E    0.203000       1.00800           0   0.00000       0.00000    
      3517 IM1H     176      IM1H     N2       ND2R5C    2.04220       13.6070           0 -0.803000       1.00000    
      3518 IM1H     176      IM1H     DN2      DRUD     -2.19920      0.400000           0   0.00000       0.00000    
      3519 IM1H     176      IM1H     H7       HDP1A    0.363000       1.00800           0   0.00000       0.00000    
      3520 IM1H     176      IM1H     LPN21    LPD       0.00000       0.00000          -1   0.00000       0.00000    
      3521 IM1H     177      IM1H     C1       CD33F     2.48500       11.6110           0  -1.18100       1.10000    
      3522 IM1H     177      IM1H     DC1      DRUD     -2.66700      0.400000           0   0.00000       0.00000    
      3523 IM1H     177      IM1H     H1       HDA3A    0.135000       1.00800           0   0.00000       0.00000    
      3524 IM1H     177      IM1H     H2       HDA3A    0.135000       1.00800           0   0.00000       0.00000    
      3525 IM1H     177      IM1H     H3       HDA3A    0.135000       1.00800           0   0.00000       0.00000    
      3526 IM1H     177      IM1H     N1       ND2R5C    2.35720       13.6070           0 -0.803000       1.00000    
      3527 IM1H     177      IM1H     DN1      DRUD     -2.19920      0.400000           0   0.00000       0.00000    
      3528 IM1H     177      IM1H     C2       CD2R5D    2.44700       11.6110           0  -1.08300       1.10000    
      3529 IM1H     177      IM1H     DC2      DRUD     -2.55400      0.400000           0   0.00000       0.00000    
      3530 IM1H     177      IM1H     H4       HDR5D    0.195000       1.00800           0   0.00000       0.00000    
      3531 IM1H     177      IM1H     C3       CD2R5D    2.50700       11.6110           0  -1.08300       1.10000    
      3532 IM1H     177      IM1H     DC3      DRUD     -2.55400      0.400000           0   0.00000       0.00000    
      3533 IM1H     177      IM1H     H5       HDR5D    0.192000       1.00800           0   0.00000       0.00000    
      3534 IM1H     177      IM1H     C4       CD2R5E    2.72410       11.6110           0  -1.25300       1.20000    
      3535 IM1H     177      IM1H     DC4      DRUD     -2.74710      0.400000           0   0.00000       0.00000    
      3536 IM1H     177      IM1H     H6       HDR5E    0.203000       1.00800           0   0.00000       0.00000    
      3537 IM1H     177      IM1H     N2       ND2R5C    2.04220       13.6070           0 -0.803000       1.00000    
      3538 IM1H     177      IM1H     DN2      DRUD     -2.19920      0.400000           0   0.00000       0.00000    
      3539 IM1H     177      IM1H     H7       HDP1A    0.363000       1.00800           0   0.00000       0.00000    
      3540 IM1H     177      IM1H     LPN21    LPD       0.00000       0.00000          -1   0.00000       0.00000    
      3541 IM1H     178      IM1H     C1       CD33F     2.48500       11.6110           0  -1.18100       1.10000    
      3542 IM1H     178      IM1H     DC1      DRUD     -2.66700      0.400000           0   0.00000       0.00000    
      3543 IM1H     178      IM1H     H1       HDA3A    0.135000       1.00800           0   0.00000       0.00000    
      3544 IM1H     178      IM1H     H2       HDA3A    0.135000       1.00800           0   0.00000       0.00000    
      3545 IM1H     178      IM1H     H3       HDA3A    0.135000       1.00800           0   0.00000       0.00000    
      3546 IM1H     178      IM1H     N1       ND2R5C    2.35720       13.6070           0 -0.803000       1.00000    
      3547 IM1H     178      IM1H     DN1      DRUD     -2.19920      0.400000           0   0.00000       0.00000    
      3548 IM1H     178      IM1H     C2       CD2R5D    2.44700       11.6110           0  -1.08300       1.10000    
      3549 IM1H     178      IM1H     DC2      DRUD     -2.55400      0.400000           0   0.00000       0.00000    
      3550 IM1H     178      IM1H     H4       HDR5D    0.195000       1.00800           0   0.00000       0.00000    
      3551 IM1H     178      IM1H     C3       CD2R5D    2.50700       11.6110           0  -1.08300       1.10000    
      3552 IM1H     178      IM1H     DC3      DRUD     -2.55400      0.400000           0   0.00000       0.00000    
      3553 IM1H     178      IM1H     H5       HDR5D    0.192000       1.00800           0   0.00000       0.00000    
      3554 IM1H     178      IM1H     C4       CD2R5E    2.72410       11.6110           0  -1.25300       1.20000    
      3555 IM1H     178      IM1H     DC4      DRUD     -2.74710      0.400000           0   0.00000       0.00000    
      3556 IM1H     178      IM1H     H6       HDR5E    0.203000       1.00800           0   0.00000       0.00000    
      3557 IM1H     178      IM1H     N2       ND2R5C    2.04220       13.6070           0 -0.803000       1.00000    
      3558 IM1H     178      IM1H     DN2      DRUD     -2.19920      0.400000           0   0.00000       0.00000    
      3559 IM1H     178      IM1H     H7       HDP1A    0.363000       1.00800           0   0.00000       0.00000    
      3560 IM1H     178      IM1H     LPN21    LPD       0.00000       0.00000          -1   0.00000       0.00000    
      3561 IM1H     179      IM1H     C1       CD33F     2.48500       11.6110           0  -1.18100       1.10000    
      3562 IM1H     179      IM1H     DC1      DRUD     -2.66700      0.400000           0   0.00000       0.00000    
      3563 IM1H     179      IM1H     H1       HDA3A    0.135000       1.00800           0   0.00000       0.00000    
      3564 IM1H     179      IM1H     H2       HDA3A    0.135000       1.00800           0   0.00000       0.00000    
      3565 IM1H     179      IM1H     H3       HDA3A    0.135000       1.00800           0   0.00000       0.00000    
      3566 IM1H     179      IM1H     N1       ND2R5C    2.35720       13.6070           0 -0.803000       1.00000    
      3567 IM1H     179      IM1H     DN1      DRUD     -2.19920      0.400000           0   0.00000       0.00000    
      3568 IM1H     179      IM1H     C2       CD2R5D    2.44700       11.6110           0  -1.08300       1.10000    
      3569 IM1H     179      IM1H     DC2      DRUD     -2.55400      0.400000           0   0.00000       0.00000    
      3570 IM1H     179      IM1H     H4       HDR5D    0.195000       1.00800           0   0.00000       0.00000    
      3571 IM1H     179      IM1H     C3       CD2R5D    2.50700       11.6110           0  -1.08300       1.10000    
      3572 IM1H     179      IM1H     DC3      DRUD     -2.55400      0.400000           0   0.00000       0.00000    
      3573 IM1H     179      IM1H     H5       HDR5D    0.192000       1.00800           0   0.00000       0.00000    
      3574 IM1H     179      IM1H     C4       CD2R5E    2.72410       11.6110           0  -1.25300       1.20000    
      3575 IM1H     179      IM1H     DC4      DRUD     -2.74710      0.400000           0   0.00000       0.00000    
      3576 IM1H     179      IM1H     H6       HDR5E    0.203000       1.00800           0   0.00000       0.00000    
      3577 IM1H     179      IM1H     N2       ND2R5C    2.04220       13.6070           0 -0.803000       1.00000    
      3578 IM1H     179      IM1H     DN2      DRUD     -2.19920      0.400000           0   0.00000       0.00000    
      3579 IM1H     179      IM1H     H7       HDP1A    0.363000       1.00800           0   0.00000       0.00000    
      3580 IM1H     179      IM1H     LPN21    LPD       0.00000       0.00000          -1   0.00000       0.00000    
      3581 IM1H     180      IM1H     C1       CD33F     2.48500       11.6110           0  -1.18100       1.10000    
      3582 IM1H     180      IM1H     DC1      DRUD     -2.66700      0.400000           0   0.00000       0.00000    
      3583 IM1H     180      IM1H     H1       HDA3A    0.135000       1.00800           0   0.00000       0.00000    
      3584 IM1H     180      IM1H     H2       HDA3A    0.135000       1.00800           0   0.00000       0.00000    
      3585 IM1H     180      IM1H     H3       HDA3A    0.135000       1.00800           0   0.00000       0.00000    
      3586 IM1H     180      IM1H     N1       ND2R5C    2.35720       13.6070           0 -0.803000       1.00000    
      3587 IM1H     180      IM1H     DN1      DRUD     -2.19920      0.400000           0   0.00000       0.00000    
      3588 IM1H     180      IM1H     C2       CD2R5D    2.44700       11.6110           0  -1.08300       1.10000    
      3589 IM1H     180      IM1H     DC2      DRUD     -2.55400      0.400000           0   0.00000       0.00000    
      3590 IM1H     180      IM1H     H4       HDR5D    0.195000       1.00800           0   0.00000       0.00000    
      3591 IM1H     180      IM1H     C3       CD2R5D    2.50700       11.6110           0  -1.08300       1.10000    
      3592 IM1H     180      IM1H     DC3      DRUD     -2.55400      0.400000           0   0.00000       0.00000    
      3593 IM1H     180      IM1H     H5       HDR5D    0.192000       1.00800           0   0.00000       0.00000    
      3594 IM1H     180      IM1H     C4       CD2R5E    2.72410       11.6110           0  -1.25300       1.20000    
      3595 IM1H     180      IM1H     DC4      DRUD     -2.74710      0.400000           0   0.00000       0.00000    
      3596 IM1H     180      IM1H     H6       HDR5E    0.203000       1.00800           0   0.00000       0.00000    
      3597 IM1H     180      IM1H     N2       ND2R5C    2.04220       13.6070           0 -0.803000       1.00000    
      3598 IM1H     180      IM1H     DN2      DRUD     -2.19920      0.400000           0   0.00000       0.00000    
      3599 IM1H     180      IM1H     H7       HDP1A    0.363000       1.00800           0   0.00000       0.00000    
      3600 IM1H     180      IM1H     LPN21    LPD       0.00000       0.00000          -1   0.00000       0.00000    
      3601 IM1H     181      IM1H     C1       CD33F     2.48500       11.6110           0  -1.18100       1.10000    
      3602 IM1H     181      IM1H     DC1      DRUD     -2.66700      0.400000           0   0.00000       0.00000    
      3603 IM1H     181      IM1H     H1       HDA3A    0.135000       1.00800           0   0.00000       0.00000    
      3604 IM1H     181      IM1H     H2       HDA3A    0.135000       1.00800           0   0.00000       0.00000    
      3605 IM1H     181      IM1H     H3       HDA3A    0.135000       1.00800           0   0.00000       0.00000    
      3606 IM1H     181      IM1H     N1       ND2R5C    2.35720       13.6070           0 -0.803000       1.00000    
      3607 IM1H     181      IM1H     DN1      DRUD     -2.19920      0.400000           0   0.00000       0.00000    
      3608 IM1H     181      IM1H     C2       CD2R5D    2.44700       11.6110           0  -1.08300       1.10000    
      3609 IM1H     181      IM1H     DC2      DRUD     -2.55400      0.400000           0   0.00000       0.00000    
      3610 IM1H     181      IM1H     H4       HDR5D    0.195000       1.00800           0   0.00000       0.00000    
      3611 IM1H     181      IM1H     C3       CD2R5D    2.50700       11.6110           0  -1.08300       1.10000    
      3612 IM1H     181      IM1H     DC3      DRUD     -2.55400      0.400000           0   0.00000       0.00000    
      3613 IM1H     181      IM1H     H5       HDR5D    0.192000       1.00800           0   0.00000       0.00000    
      3614 IM1H     181      IM1H     C4       CD2R5E    2.72410       11.6110           0  -1.25300       1.20000    
      3615 IM1H     181      IM1H     DC4      DRUD     -2.74710      0.400000           0   0.00000       0.00000    
      3616 IM1H     181      IM1H     H6       HDR5E    0.203000       1.00800           0   0.00000       0.00000    
      3617 IM1H     181      IM1H     N2       ND2R5C    2.04220       13.6070           0 -0.803000       1.00000    
      3618 IM1H     181      IM1H     DN2      DRUD     -2.19920      0.400000           0   0.00000       0.00000    
      3619 IM1H     181      IM1H     H7       HDP1A    0.363000       1.00800           0   0.00000       0.00000    
      3620 IM1H     181      IM1H     LPN21    LPD       0.00000       0.00000          -1   0.00000       0.00000    
      3621 IM1H     182      IM1H     C1       CD33F     2.48500       11.6110           0  -1.18100       1.10000    
      3622 IM1H     182      IM1H     DC1      DRUD     -2.66700      0.400000           0   0.00000       0.00000    
      3623 IM1H     182      IM1H     H1       HDA3A    0.135000       1.00800           0   0.00000       0.00000    
      3624 IM1H     182      IM1H     H2       HDA3A    0.135000       1.00800           0   0.00000       0.00000    
      3625 IM1H     182      IM1H     H3       HDA3A    0.135000       1.00800           0   0.00000       0.00000    
      3626 IM1H     182      IM1H     N1       ND2R5C    2.35720       13.6070           0 -0.803000       1.00000    
      3627 IM1H     182      IM1H     DN1      DRUD     -2.19920      0.400000           0   0.00000       0.00000    
      3628 IM1H     182      IM1H     C2       CD2R5D    2.44700       11.6110           0  -1.08300       1.10000    
      3629 IM1H     182      IM1H     DC2      DRUD     -2.55400      0.400000           0   0.00000       0.00000    
      3630 IM1H     182      IM1H     H4       HDR5D    0.195000       1.00800           0   0.00000       0.00000    
      3631 IM1H     182      IM1H     C3       CD2R5D    2.50700       11.6110           0  -1.08300       1.10000    
      3632 IM1H     182      IM1H     DC3      DRUD     -2.55400      0.400000           0   0.00000       0.00000    
      3633 IM1H     182      IM1H     H5       HDR5D    0.192000       1.00800           0   0.00000       0.00000    
      3634 IM1H     182      IM1H     C4       CD2R5E    2.72410       11.6110           0  -1.25300       1.20000    
      3635 IM1H     182      IM1H     DC4      DRUD     -2.74710      0.400000           0   0.00000       0.00000    
      3636 IM1H     182      IM1H     H6       HDR5E    0.203000       1.00800           0   0.00000       0.00000    
      3637 IM1H     182      IM1H     N2       ND2R5C    2.04220       13.6070           0 -0.803000       1.00000    
      3638 IM1H     182      IM1H     DN2      DRUD     -2.19920      0.400000           0   0.00000       0.00000    
      3639 IM1H     182      IM1H     H7       HDP1A    0.363000       1.00800           0   0.00000       0.00000    
      3640 IM1H     182      IM1H     LPN21    LPD       0.00000       0.00000          -1   0.00000       0.00000    
      3641 IM1H     183      IM1H     C1       CD33F     2.48500       11.6110           0  -1.18100       1.10000    
      3642 IM1H     183      IM1H     DC1      DRUD     -2.66700      0.400000           0   0.00000       0.00000    
      3643 IM1H     183      IM1H     H1       HDA3A    0.135000       1.00800           0   0.00000       0.00000    
      3644 IM1H     183      IM1H     H2       HDA3A    0.135000       1.00800           0   0.00000       0.00000    
      3645 IM1H     183      IM1H     H3       HDA3A    0.135000       1.00800           0   0.00000       0.00000    
      3646 IM1H     183      IM1H     N1       ND2R5C    2.35720       13.6070           0 -0.803000       1.00000    
      3647 IM1H     183      IM1H     DN1      DRUD     -2.19920      0.400000           0   0.00000       0.00000    
      3648 IM1H     183      IM1H     C2       CD2R5D    2.44700       11.6110           0  -1.08300       1.10000    
      3649 IM1H     183      IM1H     DC2      DRUD     -2.55400      0.400000           0   0.00000       0.00000    
      3650 IM1H     183      IM1H     H4       HDR5D    0.195000       1.00800           0   0.00000       0.00000    
      3651 IM1H     183      IM1H     C3       CD2R5D    2.50700       11.6110           0  -1.08300       1.10000    
      3652 IM1H     183      IM1H     DC3      DRUD     -2.55400      0.400000           0   0.00000       0.00000    
      3653 IM1H     183      IM1H     H5       HDR5D    0.192000       1.00800           0   0.00000       0.00000    
      3654 IM1H     183      IM1H     C4       CD2R5E    2.72410       11.6110           0  -1.25300       1.20000    
      3655 IM1H     183      IM1H     DC4      DRUD     -2.74710      0.400000           0   0.00000       0.00000    
      3656 IM1H     183      IM1H     H6       HDR5E    0.203000       1.00800           0   0.00000       0.00000    
      3657 IM1H     183      IM1H     N2       ND2R5C    2.04220       13.6070           0 -0.803000       1.00000    
      3658 IM1H     183      IM1H     DN2      DRUD     -2.19920      0.400000           0   0.00000       0.00000    
      3659 IM1H     183      IM1H     H7       HDP1A    0.363000       1.00800           0   0.00000       0.00000    
      3660 IM1H     183      IM1H     LPN21    LPD       0.00000       0.00000          -1   0.00000       0.00000    
      3661 IM1H     184      IM1H     C1       CD33F     2.48500       11.6110           0  -1.18100       1.10000    
      3662 IM1H     184      IM1H     DC1      DRUD     -2.66700      0.400000           0   0.00000       0.00000    
      3663 IM1H     184      IM1H     H1       HDA3A    0.135000       1.00800           0   0.00000       0.00000    
      3664 IM1H     184      IM1H     H2       HDA3A    0.135000       1.00800           0   0.00000       0.00000    
      3665 IM1H     184      IM1H     H3       HDA3A    0.135000       1.00800           0   0.00000       0.00000    
      3666 IM1H     184      IM1H     N1       ND2R5C    2.35720       13.6070           0 -0.803000       1.00000    
      3667 IM1H     184      IM1H     DN1      DRUD     -2.19920      0.400000           0   0.00000       0.00000    
      3668 IM1H     184      IM1H     C2       CD2R5D    2.44700       11.6110           0  -1.08300       1.10000    
      3669 IM1H     184      IM1H     DC2      DRUD     -2.55400      0.400000           0   0.00000       0.00000    
      3670 IM1H     184      IM1H     H4       HDR5D    0.195000       1.00800           0   0.00000       0.00000    
      3671 IM1H     184      IM1H     C3       CD2R5D    2.50700       11.6110           0  -1.08300       1.10000    
      3672 IM1H     184      IM1H     DC3      DRUD     -2.55400      0.400000           0   0.00000       0.00000    
      3673 IM1H     184      IM1H     H5       HDR5D    0.192000       1.00800           0   0.00000       0.00000    
      3674 IM1H     184      IM1H     C4       CD2R5E    2.72410       11.6110           0  -1.25300       1.20000    
      3675 IM1H     184      IM1H     DC4      DRUD     -2.74710      0.400000           0   0.00000       0.00000    
      3676 IM1H     184      IM1H     H6       HDR5E    0.203000       1.00800           0   0.00000       0.00000    
      3677 IM1H     184      IM1H     N2       ND2R5C    2.04220       13.6070           0 -0.803000       1.00000    
      3678 IM1H     184      IM1H     DN2      DRUD     -2.19920      0.400000           0   0.00000       0.00000    
      3679 IM1H     184      IM1H     H7       HDP1A    0.363000       1.00800           0   0.00000       0.00000    
      3680 IM1H     184      IM1H     LPN21    LPD       0.00000       0.00000          -1   0.00000       0.00000    
      3681 IM1H     185      IM1H     C1       CD33F     2.48500       11.6110           0  -1.18100       1.10000    
      3682 IM1H     185      IM1H     DC1      DRUD     -2.66700      0.400000           0   0.00000       0.00000    
      3683 IM1H     185      IM1H     H1       HDA3A    0.135000       1.00800           0   0.00000       0.00000    
      3684 IM1H     185      IM1H     H2       HDA3A    0.135000       1.00800           0   0.00000       0.00000    
      3685 IM1H     185      IM1H     H3       HDA3A    0.135000       1.00800           0   0.00000       0.00000    
      3686 IM1H     185      IM1H     N1       ND2R5C    2.35720       13.6070           0 -0.803000       1.00000    
      3687 IM1H     185      IM1H     DN1      DRUD     -2.19920      0.400000           0   0.00000       0.00000    
      3688 IM1H     185      IM1H     C2       CD2R5D    2.44700       11.6110           0  -1.08300       1.10000    
      3689 IM1H     185      IM1H     DC2      DRUD     -2.55400      0.400000           0   0.00000       0.00000    
      3690 IM1H     185      IM1H     H4       HDR5D    0.195000       1.00800           0   0.00000       0.00000    
      3691 IM1H     185      IM1H     C3       CD2R5D    2.50700       11.6110           0  -1.08300       1.10000    
      3692 IM1H     185      IM1H     DC3      DRUD     -2.55400      0.400000           0   0.00000       0.00000    
      3693 IM1H     185      IM1H     H5       HDR5D    0.192000       1.00800           0   0.00000       0.00000    
      3694 IM1H     185      IM1H     C4       CD2R5E    2.72410       11.6110           0  -1.25300       1.20000    
      3695 IM1H     185      IM1H     DC4      DRUD     -2.74710      0.400000           0   0.00000       0.00000    
      3696 IM1H     185      IM1H     H6       HDR5E    0.203000       1.00800           0   0.00000       0.00000    
      3697 IM1H     185      IM1H     N2       ND2R5C    2.04220       13.6070           0 -0.803000       1.00000    
      3698 IM1H     185      IM1H     DN2      DRUD     -2.19920      0.400000           0   0.00000       0.00000    
      3699 IM1H     185      IM1H     H7       HDP1A    0.363000       1.00800           0   0.00000       0.00000    
      3700 IM1H     185      IM1H     LPN21    LPD       0.00000       0.00000          -1   0.00000       0.00000    
      3701 IM1H     186      IM1H     C1       CD33F     2.48500       11.6110           0  -1.18100       1.10000    
      3702 IM1H     186      IM1H     DC1      DRUD     -2.66700      0.400000           0   0.00000       0.00000    
      3703 IM1H     186      IM1H     H1       HDA3A    0.135000       1.00800           0   0.00000       0.00000    
      3704 IM1H     186      IM1H     H2       HDA3A    0.135000       1.00800           0   0.00000       0.00000    
      3705 IM1H     186      IM1H     H3       HDA3A    0.135000       1.00800           0   0.00000       0.00000    
      3706 IM1H     186      IM1H     N1       ND2R5C    2.35720       13.6070           0 -0.803000       1.00000    
      3707 IM1H     186      IM1H     DN1      DRUD     -2.19920      0.400000           0   0.00000       0.00000    
      3708 IM1H     186      IM1H     C2       CD2R5D    2.44700       11.6110           0  -1.08300       1.10000    
      3709 IM1H     186      IM1H     DC2      DRUD     -2.55400      0.400000           0   0.00000       0.00000    
      3710 IM1H     186      IM1H     H4       HDR5D    0.195000       1.00800           0   0.00000       0.00000    
      3711 IM1H     186      IM1H     C3       CD2R5D    2.50700       11.6110           0  -1.08300       1.10000    
      3712 IM1H     186      IM1H     DC3      DRUD     -2.55400      0.400000           0   0.00000       0.00000    
      3713 IM1H     186      IM1H     H5       HDR5D    0.192000       1.00800           0   0.00000       0.00000    
      3714 IM1H     186      IM1H     C4       CD2R5E    2.72410       11.6110           0  -1.25300       1.20000    
      3715 IM1H     186      IM1H     DC4      DRUD     -2.74710      0.400000           0   0.00000       0.00000    
      3716 IM1H     186      IM1H     H6       HDR5E    0.203000       1.00800           0   0.00000       0.00000    
      3717 IM1H     186      IM1H     N2       ND2R5C    2.04220       13.6070           0 -0.803000       1.00000    
      3718 IM1H     186      IM1H     DN2      DRUD     -2.19920      0.400000           0   0.00000       0.00000    
      3719 IM1H     186      IM1H     H7       HDP1A    0.363000       1.00800           0   0.00000       0.00000    
      3720 IM1H     186      IM1H     LPN21    LPD       0.00000       0.00000          -1   0.00000       0.00000    
      3721 IM1H     187      IM1H     C1       CD33F     2.48500       11.6110           0  -1.18100       1.10000    
      3722 IM1H     187      IM1H     DC1      DRUD     -2.66700      0.400000           0   0.00000       0.00000    
      3723 IM1H     187      IM1H     H1       HDA3A    0.135000       1.00800           0   0.00000       0.00000    
      3724 IM1H     187      IM1H     H2       HDA3A    0.135000       1.00800           0   0.00000       0.00000    
      3725 IM1H     187      IM1H     H3       HDA3A    0.135000       1.00800           0   0.00000       0.00000    
      3726 IM1H     187      IM1H     N1       ND2R5C    2.35720       13.6070           0 -0.803000       1.00000    
      3727 IM1H     187      IM1H     DN1      DRUD     -2.19920      0.400000           0   0.00000       0.00000    
      3728 IM1H     187      IM1H     C2       CD2R5D    2.44700       11.6110           0  -1.08300       1.10000    
      3729 IM1H     187      IM1H     DC2      DRUD     -2.55400      0.400000           0   0.00000       0.00000    
      3730 IM1H     187      IM1H     H4       HDR5D    0.195000       1.00800           0   0.00000       0.00000    
      3731 IM1H     187      IM1H     C3       CD2R5D    2.50700       11.6110           0  -1.08300       1.10000    
      3732 IM1H     187      IM1H     DC3      DRUD     -2.55400      0.400000           0   0.00000       0.00000    
      3733 IM1H     187      IM1H     H5       HDR5D    0.192000       1.00800           0   0.00000       0.00000    
      3734 IM1H     187      IM1H     C4       CD2R5E    2.72410       11.6110           0  -1.25300       1.20000    
      3735 IM1H     187      IM1H     DC4      DRUD     -2.74710      0.400000           0   0.00000       0.00000    
      3736 IM1H     187      IM1H     H6       HDR5E    0.203000       1.00800           0   0.00000       0.00000    
      3737 IM1H     187      IM1H     N2       ND2R5C    2.04220       13.6070           0 -0.803000       1.00000    
      3738 IM1H     187      IM1H     DN2      DRUD     -2.19920      0.400000           0   0.00000       0.00000    
      3739 IM1H     187      IM1H     H7       HDP1A    0.363000       1.00800           0   0.00000       0.00000    
      3740 IM1H     187      IM1H     LPN21    LPD       0.00000       0.00000          -1   0.00000       0.00000    
      3741 IM1H     188      IM1H     C1       CD33F     2.48500       11.6110           0  -1.18100       1.10000    
      3742 IM1H     188      IM1H     DC1      DRUD     -2.66700      0.400000           0   0.00000       0.00000    
      3743 IM1H     188      IM1H     H1       HDA3A    0.135000       1.00800           0   0.00000       0.00000    
      3744 IM1H     188      IM1H     H2       HDA3A    0.135000       1.00800           0   0.00000       0.00000    
      3745 IM1H     188      IM1H     H3       HDA3A    0.135000       1.00800           0   0.00000       0.00000    
      3746 IM1H     188      IM1H     N1       ND2R5C    2.35720       13.6070           0 -0.803000       1.00000    
      3747 IM1H     188      IM1H     DN1      DRUD     -2.19920      0.400000           0   0.00000       0.00000    
      3748 IM1H     188      IM1H     C2       CD2R5D    2.44700       11.6110           0  -1.08300       1.10000    
      3749 IM1H     188      IM1H     DC2      DRUD     -2.55400      0.400000           0   0.00000       0.00000    
      3750 IM1H     188      IM1H     H4       HDR5D    0.195000       1.00800           0   0.00000       0.00000    
      3751 IM1H     188      IM1H     C3       CD2R5D    2.50700       11.6110           0  -1.08300       1.10000    
      3752 IM1H     188      IM1H     DC3      DRUD     -2.55400      0.400000           0   0.00000       0.00000    
      3753 IM1H     188      IM1H     H5       HDR5D    0.192000       1.00800           0   0.00000       0.00000    
      3754 IM1H     188      IM1H     C4       CD2R5E    2.72410       11.6110           0  -1.25300       1.20000    
      3755 IM1H     188      IM1H     DC4      DRUD     -2.74710      0.400000           0   0.00000       0.00000    
      3756 IM1H     188      IM1H     H6       HDR5E    0.203000       1.00800           0   0.00000       0.00000    
      3757 IM1H     188      IM1H     N2       ND2R5C    2.04220       13.6070           0 -0.803000       1.00000    
      3758 IM1H     188      IM1H     DN2      DRUD     -2.19920      0.400000           0   0.00000       0.00000    
      3759 IM1H     188      IM1H     H7       HDP1A    0.363000       1.00800           0   0.00000       0.00000    
      3760 IM1H     188      IM1H     LPN21    LPD       0.00000       0.00000          -1   0.00000       0.00000    
      3761 IM1H     189      IM1H     C1       CD33F     2.48500       11.6110           0  -1.18100       1.10000    
      3762 IM1H     189      IM1H     DC1      DRUD     -2.66700      0.400000           0   0.00000       0.00000    
      3763 IM1H     189      IM1H     H1       HDA3A    0.135000       1.00800           0   0.00000       0.00000    
      3764 IM1H     189      IM1H     H2       HDA3A    0.135000       1.00800           0   0.00000       0.00000    
      3765 IM1H     189      IM1H     H3       HDA3A    0.135000       1.00800           0   0.00000       0.00000    
      3766 IM1H     189      IM1H     N1       ND2R5C    2.35720       13.6070           0 -0.803000       1.00000    
      3767 IM1H     189      IM1H     DN1      DRUD     -2.19920      0.400000           0   0.00000       0.00000    
      3768 IM1H     189      IM1H     C2       CD2R5D    2.44700       11.6110           0  -1.08300       1.10000    
      3769 IM1H     189      IM1H     DC2      DRUD     -2.55400      0.400000           0   0.00000       0.00000    
      3770 IM1H     189      IM1H     H4       HDR5D    0.195000       1.00800           0   0.00000       0.00000    
      3771 IM1H     189      IM1H     C3       CD2R5D    2.50700       11.6110           0  -1.08300       1.10000    
      3772 IM1H     189      IM1H     DC3      DRUD     -2.55400      0.400000           0   0.00000       0.00000    
      3773 IM1H     189      IM1H     H5       HDR5D    0.192000       1.00800           0   0.00000       0.00000    
      3774 IM1H     189      IM1H     C4       CD2R5E    2.72410       11.6110           0  -1.25300       1.20000    
      3775 IM1H     189      IM1H     DC4      DRUD     -2.74710      0.400000           0   0.00000       0.00000    
      3776 IM1H     189      IM1H     H6       HDR5E    0.203000       1.00800           0   0.00000       0.00000    
      3777 IM1H     189      IM1H     N2       ND2R5C    2.04220       13.6070           0 -0.803000       1.00000    
      3778 IM1H     189      IM1H     DN2      DRUD     -2.19920      0.400000           0   0.00000       0.00000    
      3779 IM1H     189      IM1H     H7       HDP1A    0.363000       1.00800           0   0.00000       0.00000    
      3780 IM1H     189      IM1H     LPN21    LPD       0.00000       0.00000          -1   0.00000       0.00000    
      3781 IM1H     190      IM1H     C1       CD33F     2.48500       11.6110           0  -1.18100       1.10000    
      3782 IM1H     190      IM1H     DC1      DRUD     -2.66700      0.400000           0   0.00000       0.00000    
      3783 IM1H     190      IM1H     H1       HDA3A    0.135000       1.00800           0   0.00000       0.00000    
      3784 IM1H     190      IM1H     H2       HDA3A    0.135000       1.00800           0   0.00000       0.00000    
      3785 IM1H     190      IM1H     H3       HDA3A    0.135000       1.00800           0   0.00000       0.00000    
      3786 IM1H     190      IM1H     N1       ND2R5C    2.35720       13.6070           0 -0.803000       1.00000    
      3787 IM1H     190      IM1H     DN1      DRUD     -2.19920      0.400000           0   0.00000       0.00000    
      3788 IM1H     190      IM1H     C2       CD2R5D    2.44700       11.6110           0  -1.08300       1.10000    
      3789 IM1H     190      IM1H     DC2      DRUD     -2.55400      0.400000           0   0.00000       0.00000    
      3790 IM1H     190      IM1H     H4       HDR5D    0.195000       1.00800           0   0.00000       0.00000    
      3791 IM1H     190      IM1H     C3       CD2R5D    2.50700       11.6110           0  -1.08300       1.10000    
      3792 IM1H     190      IM1H     DC3      DRUD     -2.55400      0.400000           0   0.00000       0.00000    
      3793 IM1H     190      IM1H     H5       HDR5D    0.192000       1.00800           0   0.00000       0.00000    
      3794 IM1H     190      IM1H     C4       CD2R5E    2.72410       11.6110           0  -1.25300       1.20000    
      3795 IM1H     190      IM1H     DC4      DRUD     -2.74710      0.400000           0   0.00000       0.00000    
      3796 IM1H     190      IM1H     H6       HDR5E    0.203000       1.00800           0   0.00000       0.00000    
      3797 IM1H     190      IM1H     N2       ND2R5C    2.04220       13.6070           0 -0.803000       1.00000    
      3798 IM1H     190      IM1H     DN2      DRUD     -2.19920      0.400000           0   0.00000       0.00000    
      3799 IM1H     190      IM1H     H7       HDP1A    0.363000       1.00800           0   0.00000       0.00000    
      3800 IM1H     190      IM1H     LPN21    LPD       0.00000       0.00000          -1   0.00000       0.00000    
      3801 IM1H     191      IM1H     C1       CD33F     2.48500       11.6110           0  -1.18100       1.10000    
      3802 IM1H     191      IM1H     DC1      DRUD     -2.66700      0.400000           0   0.00000       0.00000    
      3803 IM1H     191      IM1H     H1       HDA3A    0.135000       1.00800           0   0.00000       0.00000    
      3804 IM1H     191      IM1H     H2       HDA3A    0.135000       1.00800           0   0.00000       0.00000    
      3805 IM1H     191      IM1H     H3       HDA3A    0.135000       1.00800           0   0.00000       0.00000    
      3806 IM1H     191      IM1H     N1       ND2R5C    2.35720       13.6070           0 -0.803000       1.00000    
      3807 IM1H     191      IM1H     DN1      DRUD     -2.19920      0.400000           0   0.00000       0.00000    
      3808 IM1H     191      IM1H     C2       CD2R5D    2.44700       11.6110           0  -1.08300       1.10000    
      3809 IM1H     191      IM1H     DC2      DRUD     -2.55400      0.400000           0   0.00000       0.00000    
      3810 IM1H     191      IM1H     H4       HDR5D    0.195000       1.00800           0   0.00000       0.00000    
      3811 IM1H     191      IM1H     C3       CD2R5D    2.50700       11.6110           0  -1.08300       1.10000    
      3812 IM1H     191      IM1H     DC3      DRUD     -2.55400      0.400000           0   0.00000       0.00000    
      3813 IM1H     191      IM1H     H5       HDR5D    0.192000       1.00800           0   0.00000       0.00000    
      3814 IM1H     191      IM1H     C4       CD2R5E    2.72410       11.6110           0  -1.25300       1.20000    
      3815 IM1H     191      IM1H     DC4      DRUD     -2.74710      0.400000           0   0.00000       0.00000    
      3816 IM1H     191      IM1H     H6       HDR5E    0.203000       1.00800           0   0.00000       0.00000    
      3817 IM1H     191      IM1H     N2       ND2R5C    2.04220       13.6070           0 -0.803000       1.00000    
      3818 IM1H     191      IM1H     DN2      DRUD     -2.19920      0.400000           0   0.00000       0.00000    
      3819 IM1H     191      IM1H     H7       HDP1A    0.363000       1.00800           0   0.00000       0.00000    
      3820 IM1H     191      IM1H     LPN21    LPD       0.00000       0.00000          -1   0.00000       0.00000    
      3821 IM1H     192      IM1H     C1       CD33F     2.48500       11.6110           0  -1.18100       1.10000    
      3822 IM1H     192      IM1H     DC1      DRUD     -2.66700      0.400000           0   0.00000       0.00000    
      3823 IM1H     192      IM1H     H1       HDA3A    0.135000       1.00800           0   0.00000       0.00000    
      3824 IM1H     192      IM1H     H2       HDA3A    0.135000       1.00800           0   0.00000       0.00000    
      3825 IM1H     192      IM1H     H3       HDA3A    0.135000       1.00800           0   0.00000       0.00000    
      3826 IM1H     192      IM1H     N1       ND2R5C    2.35720       13.6070           0 -0.803000       1.00000    
      3827 IM1H     192      IM1H     DN1      DRUD     -2.19920      0.400000           0   0.00000       0.00000    
      3828 IM1H     192      IM1H     C2       CD2R5D    2.44700       11.6110           0  -1.08300       1.10000    
      3829 IM1H     192      IM1H     DC2      DRUD     -2.55400      0.400000           0   0.00000       0.00000    
      3830 IM1H     192      IM1H     H4       HDR5D    0.195000       1.00800           0   0.00000       0.00000    
      3831 IM1H     192      IM1H     C3       CD2R5D    2.50700       11.6110           0  -1.08300       1.10000    
      3832 IM1H     192      IM1H     DC3      DRUD     -2.55400      0.400000           0   0.00000       0.00000    
      3833 IM1H     192      IM1H     H5       HDR5D    0.192000       1.00800           0   0.00000       0.00000    
      3834 IM1H     192      IM1H     C4       CD2R5E    2.72410       11.6110           0  -1.25300       1.20000    
      3835 IM1H     192      IM1H     DC4      DRUD     -2.74710      0.400000           0   0.00000       0.00000    
      3836 IM1H     192      IM1H     H6       HDR5E    0.203000       1.00800           0   0.00000       0.00000    
      3837 IM1H     192      IM1H     N2       ND2R5C    2.04220       13.6070           0 -0.803000       1.00000    
      3838 IM1H     192      IM1H     DN2      DRUD     -2.19920      0.400000           0   0.00000       0.00000    
      3839 IM1H     192      IM1H     H7       HDP1A    0.363000       1.00800           0   0.00000       0.00000    
      3840 IM1H     192      IM1H     LPN21    LPD       0.00000       0.00000          -1   0.00000       0.00000    
      3841 IM1H     193      IM1H     C1       CD33F     2.48500       11.6110           0  -1.18100       1.10000    
      3842 IM1H     193      IM1H     DC1      DRUD     -2.66700      0.400000           0   0.00000       0.00000    
      3843 IM1H     193      IM1H     H1       HDA3A    0.135000       1.00800           0   0.00000       0.00000    
      3844 IM1H     193      IM1H     H2       HDA3A    0.135000       1.00800           0   0.00000       0.00000    
      3845 IM1H     193      IM1H     H3       HDA3A    0.135000       1.00800           0   0.00000       0.00000    
      3846 IM1H     193      IM1H     N1       ND2R5C    2.35720       13.6070           0 -0.803000       1.00000    
      3847 IM1H     193      IM1H     DN1      DRUD     -2.19920      0.400000           0   0.00000       0.00000    
      3848 IM1H     193      IM1H     C2       CD2R5D    2.44700       11.6110           0  -1.08300       1.10000    
      3849 IM1H     193      IM1H     DC2      DRUD     -2.55400      0.400000           0   0.00000       0.00000    
      3850 IM1H     193      IM1H     H4       HDR5D    0.195000       1.00800           0   0.00000       0.00000    
      3851 IM1H     193      IM1H     C3       CD2R5D    2.50700       11.6110           0  -1.08300       1.10000    
      3852 IM1H     193      IM1H     DC3      DRUD     -2.55400      0.400000           0   0.00000       0.00000    
      3853 IM1H     193      IM1H     H5       HDR5D    0.192000       1.00800           0   0.00000       0.00000    
      3854 IM1H     193      IM1H     C4       CD2R5E    2.72410       11.6110           0  -1.25300       1.20000    
      3855 IM1H     193      IM1H     DC4      DRUD     -2.74710      0.400000           0   0.00000       0.00000    
      3856 IM1H     193      IM1H     H6       HDR5E    0.203000       1.00800           0   0.00000       0.00000    
      3857 IM1H     193      IM1H     N2       ND2R5C    2.04220       13.6070           0 -0.803000       1.00000    
      3858 IM1H     193      IM1H     DN2      DRUD     -2.19920      0.400000           0   0.00000       0.00000    
      3859 IM1H     193      IM1H     H7       HDP1A    0.363000       1.00800           0   0.00000       0.00000    
      3860 IM1H     193      IM1H     LPN21    LPD       0.00000       0.00000          -1   0.00000       0.00000    
      3861 IM1H     194      IM1H     C1       CD33F     2.48500       11.6110           0  -1.18100       1.10000    
      3862 IM1H     194      IM1H     DC1      DRUD     -2.66700      0.400000           0   0.00000       0.00000    
      3863 IM1H     194      IM1H     H1       HDA3A    0.135000       1.00800           0   0.00000       0.00000    
      3864 IM1H     194      IM1H     H2       HDA3A    0.135000       1.00800           0   0.00000       0.00000    
      3865 IM1H     194      IM1H     H3       HDA3A    0.135000       1.00800           0   0.00000       0.00000    
      3866 IM1H     194      IM1H     N1       ND2R5C    2.35720       13.6070           0 -0.803000       1.00000    
      3867 IM1H     194      IM1H     DN1      DRUD     -2.19920      0.400000           0   0.00000       0.00000    
      3868 IM1H     194      IM1H     C2       CD2R5D    2.44700       11.6110           0  -1.08300       1.10000    
      3869 IM1H     194      IM1H     DC2      DRUD     -2.55400      0.400000           0   0.00000       0.00000    
      3870 IM1H     194      IM1H     H4       HDR5D    0.195000       1.00800           0   0.00000       0.00000    
      3871 IM1H     194      IM1H     C3       CD2R5D    2.50700       11.6110           0  -1.08300       1.10000    
      3872 IM1H     194      IM1H     DC3      DRUD     -2.55400      0.400000           0   0.00000       0.00000    
      3873 IM1H     194      IM1H     H5       HDR5D    0.192000       1.00800           0   0.00000       0.00000    
      3874 IM1H     194      IM1H     C4       CD2R5E    2.72410       11.6110           0  -1.25300       1.20000    
      3875 IM1H     194      IM1H     DC4      DRUD     -2.74710      0.400000           0   0.00000       0.00000    
      3876 IM1H     194      IM1H     H6       HDR5E    0.203000       1.00800           0   0.00000       0.00000    
      3877 IM1H     194      IM1H     N2       ND2R5C    2.04220       13.6070           0 -0.803000       1.00000    
      3878 IM1H     194      IM1H     DN2      DRUD     -2.19920      0.400000           0   0.00000       0.00000    
      3879 IM1H     194      IM1H     H7       HDP1A    0.363000       1.00800           0   0.00000       0.00000    
      3880 IM1H     194      IM1H     LPN21    LPD       0.00000       0.00000          -1   0.00000       0.00000    
      3881 IM1H     195      IM1H     C1       CD33F     2.48500       11.6110           0  -1.18100       1.10000    
      3882 IM1H     195      IM1H     DC1      DRUD     -2.66700      0.400000           0   0.00000       0.00000    
      3883 IM1H     195      IM1H     H1       HDA3A    0.135000       1.00800           0   0.00000       0.00000    
      3884 IM1H     195      IM1H     H2       HDA3A    0.135000       1.00800           0   0.00000       0.00000    
      3885 IM1H     195      IM1H     H3       HDA3A    0.135000       1.00800           0   0.00000       0.00000    
      3886 IM1H     195      IM1H     N1       ND2R5C    2.35720       13.6070           0 -0.803000       1.00000    
      3887 IM1H     195      IM1H     DN1      DRUD     -2.19920      0.400000           0   0.00000       0.00000    
      3888 IM1H     195      IM1H     C2       CD2R5D    2.44700       11.6110           0  -1.08300       1.10000    
      3889 IM1H     195      IM1H     DC2      DRUD     -2.55400      0.400000           0   0.00000       0.00000    
      3890 IM1H     195      IM1H     H4       HDR5D    0.195000       1.00800           0   0.00000       0.00000    
      3891 IM1H     195      IM1H     C3       CD2R5D    2.50700       11.6110           0  -1.08300       1.10000    
      3892 IM1H     195      IM1H     DC3      DRUD     -2.55400      0.400000           0   0.00000       0.00000    
      3893 IM1H     195      IM1H     H5       HDR5D    0.192000       1.00800           0   0.00000       0.00000    
      3894 IM1H     195      IM1H     C4       CD2R5E    2.72410       11.6110           0  -1.25300       1.20000    
      3895 IM1H     195      IM1H     DC4      DRUD     -2.74710      0.400000           0   0.00000       0.00000    
      3896 IM1H     195      IM1H     H6       HDR5E    0.203000       1.00800           0   0.00000       0.00000    
      3897 IM1H     195      IM1H     N2       ND2R5C    2.04220       13.6070           0 -0.803000       1.00000    
      3898 IM1H     195      IM1H     DN2      DRUD     -2.19920      0.400000           0   0.00000       0.00000    
      3899 IM1H     195      IM1H     H7       HDP1A    0.363000       1.00800           0   0.00000       0.00000    
      3900 IM1H     195      IM1H     LPN21    LPD       0.00000       0.00000          -1   0.00000       0.00000    
      3901 IM1H     196      IM1H     C1       CD33F     2.48500       11.6110           0  -1.18100       1.10000    
      3902 IM1H     196      IM1H     DC1      DRUD     -2.66700      0.400000           0   0.00000       0.00000    
      3903 IM1H     196      IM1H     H1       HDA3A    0.135000       1.00800           0   0.00000       0.00000    
      3904 IM1H     196      IM1H     H2       HDA3A    0.135000       1.00800           0   0.00000       0.00000    
      3905 IM1H     196      IM1H     H3       HDA3A    0.135000       1.00800           0   0.00000       0.00000    
      3906 IM1H     196      IM1H     N1       ND2R5C    2.35720       13.6070           0 -0.803000       1.00000    
      3907 IM1H     196      IM1H     DN1      DRUD     -2.19920      0.400000           0   0.00000       0.00000    
      3908 IM1H     196      IM1H     C2       CD2R5D    2.44700       11.6110           0  -1.08300       1.10000    
      3909 IM1H     196      IM1H     DC2      DRUD     -2.55400      0.400000           0   0.00000       0.00000    
      3910 IM1H     196      IM1H     H4       HDR5D    0.195000       1.00800           0   0.00000       0.00000    
      3911 IM1H     196      IM1H     C3       CD2R5D    2.50700       11.6110           0  -1.08300       1.10000    
      3912 IM1H     196      IM1H     DC3      DRUD     -2.55400      0.400000           0   0.00000       0.00000    
      3913 IM1H     196      IM1H     H5       HDR5D    0.192000       1.00800           0   0.00000       0.00000    
      3914 IM1H     196      IM1H     C4       CD2R5E    2.72410       11.6110           0  -1.25300       1.20000    
      3915 IM1H     196      IM1H     DC4      DRUD     -2.74710      0.400000           0   0.00000       0.00000    
      3916 IM1H     196      IM1H     H6       HDR5E    0.203000       1.00800           0   0.00000       0.00000    
      3917 IM1H     196      IM1H     N2       ND2R5C    2.04220       13.6070           0 -0.803000       1.00000    
      3918 IM1H     196      IM1H     DN2      DRUD     -2.19920      0.400000           0   0.00000       0.00000    
      3919 IM1H     196      IM1H     H7       HDP1A    0.363000       1.00800           0   0.00000       0.00000    
      3920 IM1H     196      IM1H     LPN21    LPD       0.00000       0.00000          -1   0.00000       0.00000    
      3921 IM1H     197      IM1H     C1       CD33F     2.48500       11.6110           0  -1.18100       1.10000    
      3922 IM1H     197      IM1H     DC1      DRUD     -2.66700      0.400000           0   0.00000       0.00000    
      3923 IM1H     197      IM1H     H1       HDA3A    0.135000       1.00800           0   0.00000       0.00000    
      3924 IM1H     197      IM1H     H2       HDA3A    0.135000       1.00800           0   0.00000       0.00000    
      3925 IM1H     197      IM1H     H3       HDA3A    0.135000       1.00800           0   0.00000       0.00000    
      3926 IM1H     197      IM1H     N1       ND2R5C    2.35720       13.6070           0 -0.803000       1.00000    
      3927 IM1H     197      IM1H     DN1      DRUD     -2.19920      0.400000           0   0.00000       0.00000    
      3928 IM1H     197      IM1H     C2       CD2R5D    2.44700       11.6110           0  -1.08300       1.10000    
      3929 IM1H     197      IM1H     DC2      DRUD     -2.55400      0.400000           0   0.00000       0.00000    
      3930 IM1H     197      IM1H     H4       HDR5D    0.195000       1.00800           0   0.00000       0.00000    
      3931 IM1H     197      IM1H     C3       CD2R5D    2.50700       11.6110           0  -1.08300       1.10000    
      3932 IM1H     197      IM1H     DC3      DRUD     -2.55400      0.400000           0   0.00000       0.00000    
      3933 IM1H     197      IM1H     H5       HDR5D    0.192000       1.00800           0   0.00000       0.00000    
      3934 IM1H     197      IM1H     C4       CD2R5E    2.72410       11.6110           0  -1.25300       1.20000    
      3935 IM1H     197      IM1H     DC4      DRUD     -2.74710      0.400000           0   0.00000       0.00000    
      3936 IM1H     197      IM1H     H6       HDR5E    0.203000       1.00800           0   0.00000       0.00000    
      3937 IM1H     197      IM1H     N2       ND2R5C    2.04220       13.6070           0 -0.803000       1.00000    
      3938 IM1H     197      IM1H     DN2      DRUD     -2.19920      0.400000           0   0.00000       0.00000    
      3939 IM1H     197      IM1H     H7       HDP1A    0.363000       1.00800           0   0.00000       0.00000    
      3940 IM1H     197      IM1H     LPN21    LPD       0.00000       0.00000          -1   0.00000       0.00000    
      3941 IM1H     198      IM1H     C1       CD33F     2.48500       11.6110           0  -1.18100       1.10000    
      3942 IM1H     198      IM1H     DC1      DRUD     -2.66700      0.400000           0   0.00000       0.00000    
      3943 IM1H     198      IM1H     H1       HDA3A    0.135000       1.00800           0   0.00000       0.00000    
      3944 IM1H     198      IM1H     H2       HDA3A    0.135000       1.00800           0   0.00000       0.00000    
      3945 IM1H     198      IM1H     H3       HDA3A    0.135000       1.00800           0   0.00000       0.00000    
      3946 IM1H     198      IM1H     N1       ND2R5C    2.35720       13.6070           0 -0.803000       1.00000    
      3947 IM1H     198      IM1H     DN1      DRUD     -2.19920      0.400000           0   0.00000       0.00000    
      3948 IM1H     198      IM1H     C2       CD2R5D    2.44700       11.6110           0  -1.08300       1.10000    
      3949 IM1H     198      IM1H     DC2      DRUD     -2.55400      0.400000           0   0.00000       0.00000    
      3950 IM1H     198      IM1H     H4       HDR5D    0.195000       1.00800           0   0.00000       0.00000    
      3951 IM1H     198      IM1H     C3       CD2R5D    2.50700       11.6110           0  -1.08300       1.10000    
      3952 IM1H     198      IM1H     DC3      DRUD     -2.55400      0.400000           0   0.00000       0.00000    
      3953 IM1H     198      IM1H     H5       HDR5D    0.192000       1.00800           0   0.00000       0.00000    
      3954 IM1H     198      IM1H     C4       CD2R5E    2.72410       11.6110           0  -1.25300       1.20000    
      3955 IM1H     198      IM1H     DC4      DRUD     -2.74710      0.400000           0   0.00000       0.00000    
      3956 IM1H     198      IM1H     H6       HDR5E    0.203000       1.00800           0   0.00000       0.00000    
      3957 IM1H     198      IM1H     N2       ND2R5C    2.04220       13.6070           0 -0.803000       1.00000    
      3958 IM1H     198      IM1H     DN2      DRUD     -2.19920      0.400000           0   0.00000       0.00000    
      3959 IM1H     198      IM1H     H7       HDP1A    0.363000       1.00800           0   0.00000       0.00000    
      3960 IM1H     198      IM1H     LPN21    LPD       0.00000       0.00000          -1   0.00000       0.00000    
      3961 IM1H     199      IM1H     C1       CD33F     2.48500       11.6110           0  -1.18100       1.10000    
      3962 IM1H     199      IM1H     DC1      DRUD     -2.66700      0.400000           0   0.00000       0.00000    
      3963 IM1H     199      IM1H     H1       HDA3A    0.135000       1.00800           0   0.00000       0.00000    
      3964 IM1H     199      IM1H     H2       HDA3A    0.135000       1.00800           0   0.00000       0.00000    
      3965 IM1H     199      IM1H     H3       HDA3A    0.135000       1.00800           0   0.00000       0.00000    
      3966 IM1H     199      IM1H     N1       ND2R5C    2.35720       13.6070           0 -0.803000       1.00000    
      3967 IM1H     199      IM1H     DN1      DRUD     -2.19920      0.400000           0   0.00000       0.00000    
      3968 IM1H     199      IM1H     C2       CD2R5D    2.44700       11.6110           0  -1.08300       1.10000    
      3969 IM1H     199      IM1H     DC2      DRUD     -2.55400      0.400000           0   0.00000       0.00000    
      3970 IM1H     199      IM1H     H4       HDR5D    0.195000       1.00800           0   0.00000       0.00000    
      3971 IM1H     199      IM1H     C3       CD2R5D    2.50700       11.6110           0  -1.08300       1.10000    
      3972 IM1H     199      IM1H     DC3      DRUD     -2.55400      0.400000           0   0.00000       0.00000    
      3973 IM1H     199      IM1H     H5       HDR5D    0.192000       1.00800           0   0.00000       0.00000    
      3974 IM1H     199      IM1H     C4       CD2R5E    2.72410       11.6110           0  -1.25300       1.20000    
      3975 IM1H     199      IM1H     DC4      DRUD     -2.74710      0.400000           0   0.00000       0.00000    
      3976 IM1H     199      IM1H     H6       HDR5E    0.203000       1.00800           0   0.00000       0.00000    
      3977 IM1H     199      IM1H     N2       ND2R5C    2.04220       13.6070           0 -0.803000       1.00000    
      3978 IM1H     199      IM1H     DN2      DRUD     -2.19920      0.400000           0   0.00000       0.00000    
      3979 IM1H     199      IM1H     H7       HDP1A    0.363000       1.00800           0   0.00000       0.00000    
      3980 IM1H     199      IM1H     LPN21    LPD       0.00000       0.00000          -1   0.00000       0.00000    
      3981 IM1H     200      IM1H     C1       CD33F     2.48500       11.6110           0  -1.18100       1.10000    
      3982 IM1H     200      IM1H     DC1      DRUD     -2.66700      0.400000           0   0.00000       0.00000    
      3983 IM1H     200      IM1H     H1       HDA3A    0.135000       1.00800           0   0.00000       0.00000    
      3984 IM1H     200      IM1H     H2       HDA3A    0.135000       1.00800           0   0.00000       0.00000    
      3985 IM1H     200      IM1H     H3       HDA3A    0.135000       1.00800           0   0.00000       0.00000    
      3986 IM1H     200      IM1H     N1       ND2R5C    2.35720       13.6070           0 -0.803000       1.00000    
      3987 IM1H     200      IM1H     DN1      DRUD     -2.19920      0.400000           0   0.00000       0.00000    
      3988 IM1H     200      IM1H     C2       CD2R5D    2.44700       11.6110           0  -1.08300       1.10000    
      3989 IM1H     200      IM1H     DC2      DRUD     -2.55400      0.400000           0   0.00000       0.00000    
      3990 IM1H     200      IM1H     H4       HDR5D    0.195000       1.00800           0   0.00000       0.00000    
      3991 IM1H     200      IM1H     C3       CD2R5D    2.50700       11.6110           0  -1.08300       1.10000    
      3992 IM1H     200      IM1H     DC3      DRUD     -2.55400      0.400000           0   0.00000       0.00000    
      3993 IM1H     200      IM1H     H5       HDR5D    0.192000       1.00800           0   0.00000       0.00000    
      3994 IM1H     200      IM1H     C4       CD2R5E    2.72410       11.6110           0  -1.25300       1.20000    
      3995 IM1H     200      IM1H     DC4      DRUD     -2.74710      0.400000           0   0.00000       0.00000    
      3996 IM1H     200      IM1H     H6       HDR5E    0.203000       1.00800           0   0.00000       0.00000    
      3997 IM1H     200      IM1H     N2       ND2R5C    2.04220       13.6070           0 -0.803000       1.00000    
      3998 IM1H     200      IM1H     DN2      DRUD     -2.19920      0.400000           0   0.00000       0.00000    
      3999 IM1H     200      IM1H     H7       HDP1A    0.363000       1.00800           0   0.00000       0.00000    
      4000 IM1H     200      IM1H     LPN21    LPD       0.00000       0.00000          -1   0.00000       0.00000    
      4001 IM1H     201      IM1H     C1       CD33F     2.48500       11.6110           0  -1.18100       1.10000    
      4002 IM1H     201      IM1H     DC1      DRUD     -2.66700      0.400000           0   0.00000       0.00000    
      4003 IM1H     201      IM1H     H1       HDA3A    0.135000       1.00800           0   0.00000       0.00000    
      4004 IM1H     201      IM1H     H2       HDA3A    0.135000       1.00800           0   0.00000       0.00000    
      4005 IM1H     201      IM1H     H3       HDA3A    0.135000       1.00800           0   0.00000       0.00000    
      4006 IM1H     201      IM1H     N1       ND2R5C    2.35720       13.6070           0 -0.803000       1.00000    
      4007 IM1H     201      IM1H     DN1      DRUD     -2.19920      0.400000           0   0.00000       0.00000    
      4008 IM1H     201      IM1H     C2       CD2R5D    2.44700       11.6110           0  -1.08300       1.10000    
      4009 IM1H     201      IM1H     DC2      DRUD     -2.55400      0.400000           0   0.00000       0.00000    
      4010 IM1H     201      IM1H     H4       HDR5D    0.195000       1.00800           0   0.00000       0.00000    
      4011 IM1H     201      IM1H     C3       CD2R5D    2.50700       11.6110           0  -1.08300       1.10000    
      4012 IM1H     201      IM1H     DC3      DRUD     -2.55400      0.400000           0   0.00000       0.00000    
      4013 IM1H     201      IM1H     H5       HDR5D    0.192000       1.00800           0   0.00000       0.00000    
      4014 IM1H     201      IM1H     C4       CD2R5E    2.72410       11.6110           0  -1.25300       1.20000    
      4015 IM1H     201      IM1H     DC4      DRUD     -2.74710      0.400000           0   0.00000       0.00000    
      4016 IM1H     201      IM1H     H6       HDR5E    0.203000       1.00800           0   0.00000       0.00000    
      4017 IM1H     201      IM1H     N2       ND2R5C    2.04220       13.6070           0 -0.803000       1.00000    
      4018 IM1H     201      IM1H     DN2      DRUD     -2.19920      0.400000           0   0.00000       0.00000    
      4019 IM1H     201      IM1H     H7       HDP1A    0.363000       1.00800           0   0.00000       0.00000    
      4020 IM1H     201      IM1H     LPN21    LPD       0.00000       0.00000          -1   0.00000       0.00000    
      4021 IM1H     202      IM1H     C1       CD33F     2.48500       11.6110           0  -1.18100       1.10000    
      4022 IM1H     202      IM1H     DC1      DRUD     -2.66700      0.400000           0   0.00000       0.00000    
      4023 IM1H     202      IM1H     H1       HDA3A    0.135000       1.00800           0   0.00000       0.00000    
      4024 IM1H     202      IM1H     H2       HDA3A    0.135000       1.00800           0   0.00000       0.00000    
      4025 IM1H     202      IM1H     H3       HDA3A    0.135000       1.00800           0   0.00000       0.00000    
      4026 IM1H     202      IM1H     N1       ND2R5C    2.35720       13.6070           0 -0.803000       1.00000    
      4027 IM1H     202      IM1H     DN1      DRUD     -2.19920      0.400000           0   0.00000       0.00000    
      4028 IM1H     202      IM1H     C2       CD2R5D    2.44700       11.6110           0  -1.08300       1.10000    
      4029 IM1H     202      IM1H     DC2      DRUD     -2.55400      0.400000           0   0.00000       0.00000    
      4030 IM1H     202      IM1H     H4       HDR5D    0.195000       1.00800           0   0.00000       0.00000    
      4031 IM1H     202      IM1H     C3       CD2R5D    2.50700       11.6110           0  -1.08300       1.10000    
      4032 IM1H     202      IM1H     DC3      DRUD     -2.55400      0.400000           0   0.00000       0.00000    
      4033 IM1H     202      IM1H     H5       HDR5D    0.192000       1.00800           0   0.00000       0.00000    
      4034 IM1H     202      IM1H     C4       CD2R5E    2.72410       11.6110           0  -1.25300       1.20000    
      4035 IM1H     202      IM1H     DC4      DRUD     -2.74710      0.400000           0   0.00000       0.00000    
      4036 IM1H     202      IM1H     H6       HDR5E    0.203000       1.00800           0   0.00000       0.00000    
      4037 IM1H     202      IM1H     N2       ND2R5C    2.04220       13.6070           0 -0.803000       1.00000    
      4038 IM1H     202      IM1H     DN2      DRUD     -2.19920      0.400000           0   0.00000       0.00000    
      4039 IM1H     202      IM1H     H7       HDP1A    0.363000       1.00800           0   0.00000       0.00000    
      4040 IM1H     202      IM1H     LPN21    LPD       0.00000       0.00000          -1   0.00000       0.00000    
      4041 IM1H     203      IM1H     C1       CD33F     2.48500       11.6110           0  -1.18100       1.10000    
      4042 IM1H     203      IM1H     DC1      DRUD     -2.66700      0.400000           0   0.00000       0.00000    
      4043 IM1H     203      IM1H     H1       HDA3A    0.135000       1.00800           0   0.00000       0.00000    
      4044 IM1H     203      IM1H     H2       HDA3A    0.135000       1.00800           0   0.00000       0.00000    
      4045 IM1H     203      IM1H     H3       HDA3A    0.135000       1.00800           0   0.00000       0.00000    
      4046 IM1H     203      IM1H     N1       ND2R5C    2.35720       13.6070           0 -0.803000       1.00000    
      4047 IM1H     203      IM1H     DN1      DRUD     -2.19920      0.400000           0   0.00000       0.00000    
      4048 IM1H     203      IM1H     C2       CD2R5D    2.44700       11.6110           0  -1.08300       1.10000    
      4049 IM1H     203      IM1H     DC2      DRUD     -2.55400      0.400000           0   0.00000       0.00000    
      4050 IM1H     203      IM1H     H4       HDR5D    0.195000       1.00800           0   0.00000       0.00000    
      4051 IM1H     203      IM1H     C3       CD2R5D    2.50700       11.6110           0  -1.08300       1.10000    
      4052 IM1H     203      IM1H     DC3      DRUD     -2.55400      0.400000           0   0.00000       0.00000    
      4053 IM1H     203      IM1H     H5       HDR5D    0.192000       1.00800           0   0.00000       0.00000    
      4054 IM1H     203      IM1H     C4       CD2R5E    2.72410       11.6110           0  -1.25300       1.20000    
      4055 IM1H     203      IM1H     DC4      DRUD     -2.74710      0.400000           0   0.00000       0.00000    
      4056 IM1H     203      IM1H     H6       HDR5E    0.203000       1.00800           0   0.00000       0.00000    
      4057 IM1H     203      IM1H     N2       ND2R5C    2.04220       13.6070           0 -0.803000       1.00000    
      4058 IM1H     203      IM1H     DN2      DRUD     -2.19920      0.400000           0   0.00000       0.00000    
      4059 IM1H     203      IM1H     H7       HDP1A    0.363000       1.00800           0   0.00000       0.00000    
      4060 IM1H     203      IM1H     LPN21    LPD       0.00000       0.00000          -1   0.00000       0.00000    
      4061 IM1H     204      IM1H     C1       CD33F     2.48500       11.6110           0  -1.18100       1.10000    
      4062 IM1H     204      IM1H     DC1      DRUD     -2.66700      0.400000           0   0.00000       0.00000    
      4063 IM1H     204      IM1H     H1       HDA3A    0.135000       1.00800           0   0.00000       0.00000    
      4064 IM1H     204      IM1H     H2       HDA3A    0.135000       1.00800           0   0.00000       0.00000    
      4065 IM1H     204      IM1H     H3       HDA3A    0.135000       1.00800           0   0.00000       0.00000    
      4066 IM1H     204      IM1H     N1       ND2R5C    2.35720       13.6070           0 -0.803000       1.00000    
      4067 IM1H     204      IM1H     DN1      DRUD     -2.19920      0.400000           0   0.00000       0.00000    
      4068 IM1H     204      IM1H     C2       CD2R5D    2.44700       11.6110           0  -1.08300       1.10000    
      4069 IM1H     204      IM1H     DC2      DRUD     -2.55400      0.400000           0   0.00000       0.00000    
      4070 IM1H     204      IM1H     H4       HDR5D    0.195000       1.00800           0   0.00000       0.00000    
      4071 IM1H     204      IM1H     C3       CD2R5D    2.50700       11.6110           0  -1.08300       1.10000    
      4072 IM1H     204      IM1H     DC3      DRUD     -2.55400      0.400000           0   0.00000       0.00000    
      4073 IM1H     204      IM1H     H5       HDR5D    0.192000       1.00800           0   0.00000       0.00000    
      4074 IM1H     204      IM1H     C4       CD2R5E    2.72410       11.6110           0  -1.25300       1.20000    
      4075 IM1H     204      IM1H     DC4      DRUD     -2.74710      0.400000           0   0.00000       0.00000    
      4076 IM1H     204      IM1H     H6       HDR5E    0.203000       1.00800           0   0.00000       0.00000    
      4077 IM1H     204      IM1H     N2       ND2R5C    2.04220       13.6070           0 -0.803000       1.00000    
      4078 IM1H     204      IM1H     DN2      DRUD     -2.19920      0.400000           0   0.00000       0.00000    
      4079 IM1H     204      IM1H     H7       HDP1A    0.363000       1.00800           0   0.00000       0.00000    
      4080 IM1H     204      IM1H     LPN21    LPD       0.00000       0.00000          -1   0.00000       0.00000    
      4081 IM1H     205      IM1H     C1       CD33F     2.48500       11.6110           0  -1.18100       1.10000    
      4082 IM1H     205      IM1H     DC1      DRUD     -2.66700      0.400000           0   0.00000       0.00000    
      4083 IM1H     205      IM1H     H1       HDA3A    0.135000       1.00800           0   0.00000       0.00000    
      4084 IM1H     205      IM1H     H2       HDA3A    0.135000       1.00800           0   0.00000       0.00000    
      4085 IM1H     205      IM1H     H3       HDA3A    0.135000       1.00800           0   0.00000       0.00000    
      4086 IM1H     205      IM1H     N1       ND2R5C    2.35720       13.6070           0 -0.803000       1.00000    
      4087 IM1H     205      IM1H     DN1      DRUD     -2.19920      0.400000           0   0.00000       0.00000    
      4088 IM1H     205      IM1H     C2       CD2R5D    2.44700       11.6110           0  -1.08300       1.10000    
      4089 IM1H     205      IM1H     DC2      DRUD     -2.55400      0.400000           0   0.00000       0.00000    
      4090 IM1H     205      IM1H     H4       HDR5D    0.195000       1.00800           0   0.00000       0.00000    
      4091 IM1H     205      IM1H     C3       CD2R5D    2.50700       11.6110           0  -1.08300       1.10000    
      4092 IM1H     205      IM1H     DC3      DRUD     -2.55400      0.400000           0   0.00000       0.00000    
      4093 IM1H     205      IM1H     H5       HDR5D    0.192000       1.00800           0   0.00000       0.00000    
      4094 IM1H     205      IM1H     C4       CD2R5E    2.72410       11.6110           0  -1.25300       1.20000    
      4095 IM1H     205      IM1H     DC4      DRUD     -2.74710      0.400000           0   0.00000       0.00000    
      4096 IM1H     205      IM1H     H6       HDR5E    0.203000       1.00800           0   0.00000       0.00000    
      4097 IM1H     205      IM1H     N2       ND2R5C    2.04220       13.6070           0 -0.803000       1.00000    
      4098 IM1H     205      IM1H     DN2      DRUD     -2.19920      0.400000           0   0.00000       0.00000    
      4099 IM1H     205      IM1H     H7       HDP1A    0.363000       1.00800           0   0.00000       0.00000    
      4100 IM1H     205      IM1H     LPN21    LPD       0.00000       0.00000          -1   0.00000       0.00000    
      4101 IM1H     206      IM1H     C1       CD33F     2.48500       11.6110           0  -1.18100       1.10000    
      4102 IM1H     206      IM1H     DC1      DRUD     -2.66700      0.400000           0   0.00000       0.00000    
      4103 IM1H     206      IM1H     H1       HDA3A    0.135000       1.00800           0   0.00000       0.00000    
      4104 IM1H     206      IM1H     H2       HDA3A    0.135000       1.00800           0   0.00000       0.00000    
      4105 IM1H     206      IM1H     H3       HDA3A    0.135000       1.00800           0   0.00000       0.00000    
      4106 IM1H     206      IM1H     N1       ND2R5C    2.35720       13.6070           0 -0.803000       1.00000    
      4107 IM1H     206      IM1H     DN1      DRUD     -2.19920      0.400000           0   0.00000       0.00000    
      4108 IM1H     206      IM1H     C2       CD2R5D    2.44700       11.6110           0  -1.08300       1.10000    
      4109 IM1H     206      IM1H     DC2      DRUD     -2.55400      0.400000           0   0.00000       0.00000    
      4110 IM1H     206      IM1H     H4       HDR5D    0.195000       1.00800           0   0.00000       0.00000    
      4111 IM1H     206      IM1H     C3       CD2R5D    2.50700       11.6110           0  -1.08300       1.10000    
      4112 IM1H     206      IM1H     DC3      DRUD     -2.55400      0.400000           0   0.00000       0.00000    
      4113 IM1H     206      IM1H     H5       HDR5D    0.192000       1.00800           0   0.00000       0.00000    
      4114 IM1H     206      IM1H     C4       CD2R5E    2.72410       11.6110           0  -1.25300       1.20000    
      4115 IM1H     206      IM1H     DC4      DRUD     -2.74710      0.400000           0   0.00000       0.00000    
      4116 IM1H     206      IM1H     H6       HDR5E    0.203000       1.00800           0   0.00000       0.00000    
      4117 IM1H     206      IM1H     N2       ND2R5C    2.04220       13.6070           0 -0.803000       1.00000    
      4118 IM1H     206      IM1H     DN2      DRUD     -2.19920      0.400000           0   0.00000       0.00000    
      4119 IM1H     206      IM1H     H7       HDP1A    0.363000       1.00800           0   0.00000       0.00000    
      4120 IM1H     206      IM1H     LPN21    LPD       0.00000       0.00000          -1   0.00000       0.00000    
      4121 IM1H     207      IM1H     C1       CD33F     2.48500       11.6110           0  -1.18100       1.10000    
      4122 IM1H     207      IM1H     DC1      DRUD     -2.66700      0.400000           0   0.00000       0.00000    
      4123 IM1H     207      IM1H     H1       HDA3A    0.135000       1.00800           0   0.00000       0.00000    
      4124 IM1H     207      IM1H     H2       HDA3A    0.135000       1.00800           0   0.00000       0.00000    
      4125 IM1H     207      IM1H     H3       HDA3A    0.135000       1.00800           0   0.00000       0.00000    
      4126 IM1H     207      IM1H     N1       ND2R5C    2.35720       13.6070           0 -0.803000       1.00000    
      4127 IM1H     207      IM1H     DN1      DRUD     -2.19920      0.400000           0   0.00000       0.00000    
      4128 IM1H     207      IM1H     C2       CD2R5D    2.44700       11.6110           0  -1.08300       1.10000    
      4129 IM1H     207      IM1H     DC2      DRUD     -2.55400      0.400000           0   0.00000       0.00000    
      4130 IM1H     207      IM1H     H4       HDR5D    0.195000       1.00800           0   0.00000       0.00000    
      4131 IM1H     207      IM1H     C3       CD2R5D    2.50700       11.6110           0  -1.08300       1.10000    
      4132 IM1H     207      IM1H     DC3      DRUD     -2.55400      0.400000           0   0.00000       0.00000    
      4133 IM1H     207      IM1H     H5       HDR5D    0.192000       1.00800           0   0.00000       0.00000    
      4134 IM1H     207      IM1H     C4       CD2R5E    2.72410       11.6110           0  -1.25300       1.20000    
      4135 IM1H     207      IM1H     DC4      DRUD     -2.74710      0.400000           0   0.00000       0.00000    
      4136 IM1H     207      IM1H     H6       HDR5E    0.203000       1.00800           0   0.00000       0.00000    
      4137 IM1H     207      IM1H     N2       ND2R5C    2.04220       13.6070           0 -0.803000       1.00000    
      4138 IM1H     207      IM1H     DN2      DRUD     -2.19920      0.400000           0   0.00000       0.00000    
      4139 IM1H     207      IM1H     H7       HDP1A    0.363000       1.00800           0   0.00000       0.00000    
      4140 IM1H     207      IM1H     LPN21    LPD       0.00000       0.00000          -1   0.00000       0.00000    
      4141 IM1H     208      IM1H     C1       CD33F     2.48500       11.6110           0  -1.18100       1.10000    
      4142 IM1H     208      IM1H     DC1      DRUD     -2.66700      0.400000           0   0.00000       0.00000    
      4143 IM1H     208      IM1H     H1       HDA3A    0.135000       1.00800           0   0.00000       0.00000    
      4144 IM1H     208      IM1H     H2       HDA3A    0.135000       1.00800           0   0.00000       0.00000    
      4145 IM1H     208      IM1H     H3       HDA3A    0.135000       1.00800           0   0.00000       0.00000    
      4146 IM1H     208      IM1H     N1       ND2R5C    2.35720       13.6070           0 -0.803000       1.00000    
      4147 IM1H     208      IM1H     DN1      DRUD     -2.19920      0.400000           0   0.00000       0.00000    
      4148 IM1H     208      IM1H     C2       CD2R5D    2.44700       11.6110           0  -1.08300       1.10000    
      4149 IM1H     208      IM1H     DC2      DRUD     -2.55400      0.400000           0   0.00000       0.00000    
      4150 IM1H     208      IM1H     H4       HDR5D    0.195000       1.00800           0   0.00000       0.00000    
      4151 IM1H     208      IM1H     C3       CD2R5D    2.50700       11.6110           0  -1.08300       1.10000    
      4152 IM1H     208      IM1H     DC3      DRUD     -2.55400      0.400000           0   0.00000       0.00000    
      4153 IM1H     208      IM1H     H5       HDR5D    0.192000       1.00800           0   0.00000       0.00000    
      4154 IM1H     208      IM1H     C4       CD2R5E    2.72410       11.6110           0  -1.25300       1.20000    
      4155 IM1H     208      IM1H     DC4      DRUD     -2.74710      0.400000           0   0.00000       0.00000    
      4156 IM1H     208      IM1H     H6       HDR5E    0.203000       1.00800           0   0.00000       0.00000    
      4157 IM1H     208      IM1H     N2       ND2R5C    2.04220       13.6070           0 -0.803000       1.00000    
      4158 IM1H     208      IM1H     DN2      DRUD     -2.19920      0.400000           0   0.00000       0.00000    
      4159 IM1H     208      IM1H     H7       HDP1A    0.363000       1.00800           0   0.00000       0.00000    
      4160 IM1H     208      IM1H     LPN21    LPD       0.00000       0.00000          -1   0.00000       0.00000    
      4161 IM1H     209      IM1H     C1       CD33F     2.48500       11.6110           0  -1.18100       1.10000    
      4162 IM1H     209      IM1H     DC1      DRUD     -2.66700      0.400000           0   0.00000       0.00000    
      4163 IM1H     209      IM1H     H1       HDA3A    0.135000       1.00800           0   0.00000       0.00000    
      4164 IM1H     209      IM1H     H2       HDA3A    0.135000       1.00800           0   0.00000       0.00000    
      4165 IM1H     209      IM1H     H3       HDA3A    0.135000       1.00800           0   0.00000       0.00000    
      4166 IM1H     209      IM1H     N1       ND2R5C    2.35720       13.6070           0 -0.803000       1.00000    
      4167 IM1H     209      IM1H     DN1      DRUD     -2.19920      0.400000           0   0.00000       0.00000    
      4168 IM1H     209      IM1H     C2       CD2R5D    2.44700       11.6110           0  -1.08300       1.10000    
      4169 IM1H     209      IM1H     DC2      DRUD     -2.55400      0.400000           0   0.00000       0.00000    
      4170 IM1H     209      IM1H     H4       HDR5D    0.195000       1.00800           0   0.00000       0.00000    
      4171 IM1H     209      IM1H     C3       CD2R5D    2.50700       11.6110           0  -1.08300       1.10000    
      4172 IM1H     209      IM1H     DC3      DRUD     -2.55400      0.400000           0   0.00000       0.00000    
      4173 IM1H     209      IM1H     H5       HDR5D    0.192000       1.00800           0   0.00000       0.00000    
      4174 IM1H     209      IM1H     C4       CD2R5E    2.72410       11.6110           0  -1.25300       1.20000    
      4175 IM1H     209      IM1H     DC4      DRUD     -2.74710      0.400000           0   0.00000       0.00000    
      4176 IM1H     209      IM1H     H6       HDR5E    0.203000       1.00800           0   0.00000       0.00000    
      4177 IM1H     209      IM1H     N2       ND2R5C    2.04220       13.6070           0 -0.803000       1.00000    
      4178 IM1H     209      IM1H     DN2      DRUD     -2.19920      0.400000           0   0.00000       0.00000    
      4179 IM1H     209      IM1H     H7       HDP1A    0.363000       1.00800           0   0.00000       0.00000    
      4180 IM1H     209      IM1H     LPN21    LPD       0.00000       0.00000          -1   0.00000       0.00000    
      4181 IM1H     210      IM1H     C1       CD33F     2.48500       11.6110           0  -1.18100       1.10000    
      4182 IM1H     210      IM1H     DC1      DRUD     -2.66700      0.400000           0   0.00000       0.00000    
      4183 IM1H     210      IM1H     H1       HDA3A    0.135000       1.00800           0   0.00000       0.00000    
      4184 IM1H     210      IM1H     H2       HDA3A    0.135000       1.00800           0   0.00000       0.00000    
      4185 IM1H     210      IM1H     H3       HDA3A    0.135000       1.00800           0   0.00000       0.00000    
      4186 IM1H     210      IM1H     N1       ND2R5C    2.35720       13.6070           0 -0.803000       1.00000    
      4187 IM1H     210      IM1H     DN1      DRUD     -2.19920      0.400000           0   0.00000       0.00000    
      4188 IM1H     210      IM1H     C2       CD2R5D    2.44700       11.6110           0  -1.08300       1.10000    
      4189 IM1H     210      IM1H     DC2      DRUD     -2.55400      0.400000           0   0.00000       0.00000    
      4190 IM1H     210      IM1H     H4       HDR5D    0.195000       1.00800           0   0.00000       0.00000    
      4191 IM1H     210      IM1H     C3       CD2R5D    2.50700       11.6110           0  -1.08300       1.10000    
      4192 IM1H     210      IM1H     DC3      DRUD     -2.55400      0.400000           0   0.00000       0.00000    
      4193 IM1H     210      IM1H     H5       HDR5D    0.192000       1.00800           0   0.00000       0.00000    
      4194 IM1H     210      IM1H     C4       CD2R5E    2.72410       11.6110           0  -1.25300       1.20000    
      4195 IM1H     210      IM1H     DC4      DRUD     -2.74710      0.400000           0   0.00000       0.00000    
      4196 IM1H     210      IM1H     H6       HDR5E    0.203000       1.00800           0   0.00000       0.00000    
      4197 IM1H     210      IM1H     N2       ND2R5C    2.04220       13.6070           0 -0.803000       1.00000    
      4198 IM1H     210      IM1H     DN2      DRUD     -2.19920      0.400000           0   0.00000       0.00000    
      4199 IM1H     210      IM1H     H7       HDP1A    0.363000       1.00800           0   0.00000       0.00000    
      4200 IM1H     210      IM1H     LPN21    LPD       0.00000       0.00000          -1   0.00000       0.00000    
      4201 IM1H     211      IM1H     C1       CD33F     2.48500       11.6110           0  -1.18100       1.10000    
      4202 IM1H     211      IM1H     DC1      DRUD     -2.66700      0.400000           0   0.00000       0.00000    
      4203 IM1H     211      IM1H     H1       HDA3A    0.135000       1.00800           0   0.00000       0.00000    
      4204 IM1H     211      IM1H     H2       HDA3A    0.135000       1.00800           0   0.00000       0.00000    
      4205 IM1H     211      IM1H     H3       HDA3A    0.135000       1.00800           0   0.00000       0.00000    
      4206 IM1H     211      IM1H     N1       ND2R5C    2.35720       13.6070           0 -0.803000       1.00000    
      4207 IM1H     211      IM1H     DN1      DRUD     -2.19920      0.400000           0   0.00000       0.00000    
      4208 IM1H     211      IM1H     C2       CD2R5D    2.44700       11.6110           0  -1.08300       1.10000    
      4209 IM1H     211      IM1H     DC2      DRUD     -2.55400      0.400000           0   0.00000       0.00000    
      4210 IM1H     211      IM1H     H4       HDR5D    0.195000       1.00800           0   0.00000       0.00000    
      4211 IM1H     211      IM1H     C3       CD2R5D    2.50700       11.6110           0  -1.08300       1.10000    
      4212 IM1H     211      IM1H     DC3      DRUD     -2.55400      0.400000           0   0.00000       0.00000    
      4213 IM1H     211      IM1H     H5       HDR5D    0.192000       1.00800           0   0.00000       0.00000    
      4214 IM1H     211      IM1H     C4       CD2R5E    2.72410       11.6110           0  -1.25300       1.20000    
      4215 IM1H     211      IM1H     DC4      DRUD     -2.74710      0.400000           0   0.00000       0.00000    
      4216 IM1H     211      IM1H     H6       HDR5E    0.203000       1.00800           0   0.00000       0.00000    
      4217 IM1H     211      IM1H     N2       ND2R5C    2.04220       13.6070           0 -0.803000       1.00000    
      4218 IM1H     211      IM1H     DN2      DRUD     -2.19920      0.400000           0   0.00000       0.00000    
      4219 IM1H     211      IM1H     H7       HDP1A    0.363000       1.00800           0   0.00000       0.00000    
      4220 IM1H     211      IM1H     LPN21    LPD       0.00000       0.00000          -1   0.00000       0.00000    
      4221 IM1H     212      IM1H     C1       CD33F     2.48500       11.6110           0  -1.18100       1.10000    
      4222 IM1H     212      IM1H     DC1      DRUD     -2.66700      0.400000           0   0.00000       0.00000    
      4223 IM1H     212      IM1H     H1       HDA3A    0.135000       1.00800           0   0.00000       0.00000    
      4224 IM1H     212      IM1H     H2       HDA3A    0.135000       1.00800           0   0.00000       0.00000    
      4225 IM1H     212      IM1H     H3       HDA3A    0.135000       1.00800           0   0.00000       0.00000    
      4226 IM1H     212      IM1H     N1       ND2R5C    2.35720       13.6070           0 -0.803000       1.00000    
      4227 IM1H     212      IM1H     DN1      DRUD     -2.19920      0.400000           0   0.00000       0.00000    
      4228 IM1H     212      IM1H     C2       CD2R5D    2.44700       11.6110           0  -1.08300       1.10000    
      4229 IM1H     212      IM1H     DC2      DRUD     -2.55400      0.400000           0   0.00000       0.00000    
      4230 IM1H     212      IM1H     H4       HDR5D    0.195000       1.00800           0   0.00000       0.00000    
      4231 IM1H     212      IM1H     C3       CD2R5D    2.50700       11.6110           0  -1.08300       1.10000    
      4232 IM1H     212      IM1H     DC3      DRUD     -2.55400      0.400000           0   0.00000       0.00000    
      4233 IM1H     212      IM1H     H5       HDR5D    0.192000       1.00800           0   0.00000       0.00000    
      4234 IM1H     212      IM1H     C4       CD2R5E    2.72410       11.6110           0  -1.25300       1.20000    
      4235 IM1H     212      IM1H     DC4      DRUD     -2.74710      0.400000           0   0.00000       0.00000    
      4236 IM1H     212      IM1H     H6       HDR5E    0.203000       1.00800           0   0.00000       0.00000    
      4237 IM1H     212      IM1H     N2       ND2R5C    2.04220       13.6070           0 -0.803000       1.00000    
      4238 IM1H     212      IM1H     DN2      DRUD     -2.19920      0.400000           0   0.00000       0.00000    
      4239 IM1H     212      IM1H     H7       HDP1A    0.363000       1.00800           0   0.00000       0.00000    
      4240 IM1H     212      IM1H     LPN21    LPD       0.00000       0.00000          -1   0.00000       0.00000    
      4241 IM1H     213      IM1H     C1       CD33F     2.48500       11.6110           0  -1.18100       1.10000    
      4242 IM1H     213      IM1H     DC1      DRUD     -2.66700      0.400000           0   0.00000       0.00000    
      4243 IM1H     213      IM1H     H1       HDA3A    0.135000       1.00800           0   0.00000       0.00000    
      4244 IM1H     213      IM1H     H2       HDA3A    0.135000       1.00800           0   0.00000       0.00000    
      4245 IM1H     213      IM1H     H3       HDA3A    0.135000       1.00800           0   0.00000       0.00000    
      4246 IM1H     213      IM1H     N1       ND2R5C    2.35720       13.6070           0 -0.803000       1.00000    
      4247 IM1H     213      IM1H     DN1      DRUD     -2.19920      0.400000           0   0.00000       0.00000    
      4248 IM1H     213      IM1H     C2       CD2R5D    2.44700       11.6110           0  -1.08300       1.10000    
      4249 IM1H     213      IM1H     DC2      DRUD     -2.55400      0.400000           0   0.00000       0.00000    
      4250 IM1H     213      IM1H     H4       HDR5D    0.195000       1.00800           0   0.00000       0.00000    
      4251 IM1H     213      IM1H     C3       CD2R5D    2.50700       11.6110           0  -1.08300       1.10000    
      4252 IM1H     213      IM1H     DC3      DRUD     -2.55400      0.400000           0   0.00000       0.00000    
      4253 IM1H     213      IM1H     H5       HDR5D    0.192000       1.00800           0   0.00000       0.00000    
      4254 IM1H     213      IM1H     C4       CD2R5E    2.72410       11.6110           0  -1.25300       1.20000    
      4255 IM1H     213      IM1H     DC4      DRUD     -2.74710      0.400000           0   0.00000       0.00000    
      4256 IM1H     213      IM1H     H6       HDR5E    0.203000       1.00800           0   0.00000       0.00000    
      4257 IM1H     213      IM1H     N2       ND2R5C    2.04220       13.6070           0 -0.803000       1.00000    
      4258 IM1H     213      IM1H     DN2      DRUD     -2.19920      0.400000           0   0.00000       0.00000    
      4259 IM1H     213      IM1H     H7       HDP1A    0.363000       1.00800           0   0.00000       0.00000    
      4260 IM1H     213      IM1H     LPN21    LPD       0.00000       0.00000          -1   0.00000       0.00000    
      4261 IM1H     214      IM1H     C1       CD33F     2.48500       11.6110           0  -1.18100       1.10000    
      4262 IM1H     214      IM1H     DC1      DRUD     -2.66700      0.400000           0   0.00000       0.00000    
      4263 IM1H     214      IM1H     H1       HDA3A    0.135000       1.00800           0   0.00000       0.00000    
      4264 IM1H     214      IM1H     H2       HDA3A    0.135000       1.00800           0   0.00000       0.00000    
      4265 IM1H     214      IM1H     H3       HDA3A    0.135000       1.00800           0   0.00000       0.00000    
      4266 IM1H     214      IM1H     N1       ND2R5C    2.35720       13.6070           0 -0.803000       1.00000    
      4267 IM1H     214      IM1H     DN1      DRUD     -2.19920      0.400000           0   0.00000       0.00000    
      4268 IM1H     214      IM1H     C2       CD2R5D    2.44700       11.6110           0  -1.08300       1.10000    
      4269 IM1H     214      IM1H     DC2      DRUD     -2.55400      0.400000           0   0.00000       0.00000    
      4270 IM1H     214      IM1H     H4       HDR5D    0.195000       1.00800           0   0.00000       0.00000    
      4271 IM1H     214      IM1H     C3       CD2R5D    2.50700       11.6110           0  -1.08300       1.10000    
      4272 IM1H     214      IM1H     DC3      DRUD     -2.55400      0.400000           0   0.00000       0.00000    
      4273 IM1H     214      IM1H     H5       HDR5D    0.192000       1.00800           0   0.00000       0.00000    
      4274 IM1H     214      IM1H     C4       CD2R5E    2.72410       11.6110           0  -1.25300       1.20000    
      4275 IM1H     214      IM1H     DC4      DRUD     -2.74710      0.400000           0   0.00000       0.00000    
      4276 IM1H     214      IM1H     H6       HDR5E    0.203000       1.00800           0   0.00000       0.00000    
      4277 IM1H     214      IM1H     N2       ND2R5C    2.04220       13.6070           0 -0.803000       1.00000    
      4278 IM1H     214      IM1H     DN2      DRUD     -2.19920      0.400000           0   0.00000       0.00000    
      4279 IM1H     214      IM1H     H7       HDP1A    0.363000       1.00800           0   0.00000       0.00000    
      4280 IM1H     214      IM1H     LPN21    LPD       0.00000       0.00000          -1   0.00000       0.00000    
      4281 IM1H     215      IM1H     C1       CD33F     2.48500       11.6110           0  -1.18100       1.10000    
      4282 IM1H     215      IM1H     DC1      DRUD     -2.66700      0.400000           0   0.00000       0.00000    
      4283 IM1H     215      IM1H     H1       HDA3A    0.135000       1.00800           0   0.00000       0.00000    
      4284 IM1H     215      IM1H     H2       HDA3A    0.135000       1.00800           0   0.00000       0.00000    
      4285 IM1H     215      IM1H     H3       HDA3A    0.135000       1.00800           0   0.00000       0.00000    
      4286 IM1H     215      IM1H     N1       ND2R5C    2.35720       13.6070           0 -0.803000       1.00000    
      4287 IM1H     215      IM1H     DN1      DRUD     -2.19920      0.400000           0   0.00000       0.00000    
      4288 IM1H     215      IM1H     C2       CD2R5D    2.44700       11.6110           0  -1.08300       1.10000    
      4289 IM1H     215      IM1H     DC2      DRUD     -2.55400      0.400000           0   0.00000       0.00000    
      4290 IM1H     215      IM1H     H4       HDR5D    0.195000       1.00800           0   0.00000       0.00000    
      4291 IM1H     215      IM1H     C3       CD2R5D    2.50700       11.6110           0  -1.08300       1.10000    
      4292 IM1H     215      IM1H     DC3      DRUD     -2.55400      0.400000           0   0.00000       0.00000    
      4293 IM1H     215      IM1H     H5       HDR5D    0.192000       1.00800           0   0.00000       0.00000    
      4294 IM1H     215      IM1H     C4       CD2R5E    2.72410       11.6110           0  -1.25300       1.20000    
      4295 IM1H     215      IM1H     DC4      DRUD     -2.74710      0.400000           0   0.00000       0.00000    
      4296 IM1H     215      IM1H     H6       HDR5E    0.203000       1.00800           0   0.00000       0.00000    
      4297 IM1H     215      IM1H     N2       ND2R5C    2.04220       13.6070           0 -0.803000       1.00000    
      4298 IM1H     215      IM1H     DN2      DRUD     -2.19920      0.400000           0   0.00000       0.00000    
      4299 IM1H     215      IM1H     H7       HDP1A    0.363000       1.00800           0   0.00000       0.00000    
      4300 IM1H     215      IM1H     LPN21    LPD       0.00000       0.00000          -1   0.00000       0.00000    
      4301 IM1H     216      IM1H     C1       CD33F     2.48500       11.6110           0  -1.18100       1.10000    
      4302 IM1H     216      IM1H     DC1      DRUD     -2.66700      0.400000           0   0.00000       0.00000    
      4303 IM1H     216      IM1H     H1       HDA3A    0.135000       1.00800           0   0.00000       0.00000    
      4304 IM1H     216      IM1H     H2       HDA3A    0.135000       1.00800           0   0.00000       0.00000    
      4305 IM1H     216      IM1H     H3       HDA3A    0.135000       1.00800           0   0.00000       0.00000    
      4306 IM1H     216      IM1H     N1       ND2R5C    2.35720       13.6070           0 -0.803000       1.00000    
      4307 IM1H     216      IM1H     DN1      DRUD     -2.19920      0.400000           0   0.00000       0.00000    
      4308 IM1H     216      IM1H     C2       CD2R5D    2.44700       11.6110           0  -1.08300       1.10000    
      4309 IM1H     216      IM1H     DC2      DRUD     -2.55400      0.400000           0   0.00000       0.00000    
      4310 IM1H     216      IM1H     H4       HDR5D    0.195000       1.00800           0   0.00000       0.00000    
      4311 IM1H     216      IM1H     C3       CD2R5D    2.50700       11.6110           0  -1.08300       1.10000    
      4312 IM1H     216      IM1H     DC3      DRUD     -2.55400      0.400000           0   0.00000       0.00000    
      4313 IM1H     216      IM1H     H5       HDR5D    0.192000       1.00800           0   0.00000       0.00000    
      4314 IM1H     216      IM1H     C4       CD2R5E    2.72410       11.6110           0  -1.25300       1.20000    
      4315 IM1H     216      IM1H     DC4      DRUD     -2.74710      0.400000           0   0.00000       0.00000    
      4316 IM1H     216      IM1H     H6       HDR5E    0.203000       1.00800           0   0.00000       0.00000    
      4317 IM1H     216      IM1H     N2       ND2R5C    2.04220       13.6070           0 -0.803000       1.00000    
      4318 IM1H     216      IM1H     DN2      DRUD     -2.19920      0.400000           0   0.00000       0.00000    
      4319 IM1H     216      IM1H     H7       HDP1A    0.363000       1.00800           0   0.00000       0.00000    
      4320 IM1H     216      IM1H     LPN21    LPD       0.00000       0.00000          -1   0.00000       0.00000    
      4321 IM1H     217      IM1H     C1       CD33F     2.48500       11.6110           0  -1.18100       1.10000    
      4322 IM1H     217      IM1H     DC1      DRUD     -2.66700      0.400000           0   0.00000       0.00000    
      4323 IM1H     217      IM1H     H1       HDA3A    0.135000       1.00800           0   0.00000       0.00000    
      4324 IM1H     217      IM1H     H2       HDA3A    0.135000       1.00800           0   0.00000       0.00000    
      4325 IM1H     217      IM1H     H3       HDA3A    0.135000       1.00800           0   0.00000       0.00000    
      4326 IM1H     217      IM1H     N1       ND2R5C    2.35720       13.6070           0 -0.803000       1.00000    
      4327 IM1H     217      IM1H     DN1      DRUD     -2.19920      0.400000           0   0.00000       0.00000    
      4328 IM1H     217      IM1H     C2       CD2R5D    2.44700       11.6110           0  -1.08300       1.10000    
      4329 IM1H     217      IM1H     DC2      DRUD     -2.55400      0.400000           0   0.00000       0.00000    
      4330 IM1H     217      IM1H     H4       HDR5D    0.195000       1.00800           0   0.00000       0.00000    
      4331 IM1H     217      IM1H     C3       CD2R5D    2.50700       11.6110           0  -1.08300       1.10000    
      4332 IM1H     217      IM1H     DC3      DRUD     -2.55400      0.400000           0   0.00000       0.00000    
      4333 IM1H     217      IM1H     H5       HDR5D    0.192000       1.00800           0   0.00000       0.00000    
      4334 IM1H     217      IM1H     C4       CD2R5E    2.72410       11.6110           0  -1.25300       1.20000    
      4335 IM1H     217      IM1H     DC4      DRUD     -2.74710      0.400000           0   0.00000       0.00000    
      4336 IM1H     217      IM1H     H6       HDR5E    0.203000       1.00800           0   0.00000       0.00000    
      4337 IM1H     217      IM1H     N2       ND2R5C    2.04220       13.6070           0 -0.803000       1.00000    
      4338 IM1H     217      IM1H     DN2      DRUD     -2.19920      0.400000           0   0.00000       0.00000    
      4339 IM1H     217      IM1H     H7       HDP1A    0.363000       1.00800           0   0.00000       0.00000    
      4340 IM1H     217      IM1H     LPN21    LPD       0.00000       0.00000          -1   0.00000       0.00000    
      4341 IM1H     218      IM1H     C1       CD33F     2.48500       11.6110           0  -1.18100       1.10000    
      4342 IM1H     218      IM1H     DC1      DRUD     -2.66700      0.400000           0   0.00000       0.00000    
      4343 IM1H     218      IM1H     H1       HDA3A    0.135000       1.00800           0   0.00000       0.00000    
      4344 IM1H     218      IM1H     H2       HDA3A    0.135000       1.00800           0   0.00000       0.00000    
      4345 IM1H     218      IM1H     H3       HDA3A    0.135000       1.00800           0   0.00000       0.00000    
      4346 IM1H     218      IM1H     N1       ND2R5C    2.35720       13.6070           0 -0.803000       1.00000    
      4347 IM1H     218      IM1H     DN1      DRUD     -2.19920      0.400000           0   0.00000       0.00000    
      4348 IM1H     218      IM1H     C2       CD2R5D    2.44700       11.6110           0  -1.08300       1.10000    
      4349 IM1H     218      IM1H     DC2      DRUD     -2.55400      0.400000           0   0.00000       0.00000    
      4350 IM1H     218      IM1H     H4       HDR5D    0.195000       1.00800           0   0.00000       0.00000    
      4351 IM1H     218      IM1H     C3       CD2R5D    2.50700       11.6110           0  -1.08300       1.10000    
      4352 IM1H     218      IM1H     DC3      DRUD     -2.55400      0.400000           0   0.00000       0.00000    
      4353 IM1H     218      IM1H     H5       HDR5D    0.192000       1.00800           0   0.00000       0.00000    
      4354 IM1H     218      IM1H     C4       CD2R5E    2.72410       11.6110           0  -1.25300       1.20000    
      4355 IM1H     218      IM1H     DC4      DRUD     -2.74710      0.400000           0   0.00000       0.00000    
      4356 IM1H     218      IM1H     H6       HDR5E    0.203000       1.00800           0   0.00000       0.00000    
      4357 IM1H     218      IM1H     N2       ND2R5C    2.04220       13.6070           0 -0.803000       1.00000    
      4358 IM1H     218      IM1H     DN2      DRUD     -2.19920      0.400000           0   0.00000       0.00000    
      4359 IM1H     218      IM1H     H7       HDP1A    0.363000       1.00800           0   0.00000       0.00000    
      4360 IM1H     218      IM1H     LPN21    LPD       0.00000       0.00000          -1   0.00000       0.00000    
      4361 IM1H     219      IM1H     C1       CD33F     2.48500       11.6110           0  -1.18100       1.10000    
      4362 IM1H     219      IM1H     DC1      DRUD     -2.66700      0.400000           0   0.00000       0.00000    
      4363 IM1H     219      IM1H     H1       HDA3A    0.135000       1.00800           0   0.00000       0.00000    
      4364 IM1H     219      IM1H     H2       HDA3A    0.135000       1.00800           0   0.00000       0.00000    
      4365 IM1H     219      IM1H     H3       HDA3A    0.135000       1.00800           0   0.00000       0.00000    
      4366 IM1H     219      IM1H     N1       ND2R5C    2.35720       13.6070           0 -0.803000       1.00000    
      4367 IM1H     219      IM1H     DN1      DRUD     -2.19920      0.400000           0   0.00000       0.00000    
      4368 IM1H     219      IM1H     C2       CD2R5D    2.44700       11.6110           0  -1.08300       1.10000    
      4369 IM1H     219      IM1H     DC2      DRUD     -2.55400      0.400000           0   0.00000       0.00000    
      4370 IM1H     219      IM1H     H4       HDR5D    0.195000       1.00800           0   0.00000       0.00000    
      4371 IM1H     219      IM1H     C3       CD2R5D    2.50700       11.6110           0  -1.08300       1.10000    
      4372 IM1H     219      IM1H     DC3      DRUD     -2.55400      0.400000           0   0.00000       0.00000    
      4373 IM1H     219      IM1H     H5       HDR5D    0.192000       1.00800           0   0.00000       0.00000    
      4374 IM1H     219      IM1H     C4       CD2R5E    2.72410       11.6110           0  -1.25300       1.20000    
      4375 IM1H     219      IM1H     DC4      DRUD     -2.74710      0.400000           0   0.00000       0.00000    
      4376 IM1H     219      IM1H     H6       HDR5E    0.203000       1.00800           0   0.00000       0.00000    
      4377 IM1H     219      IM1H     N2       ND2R5C    2.04220       13.6070           0 -0.803000       1.00000    
      4378 IM1H     219      IM1H     DN2      DRUD     -2.19920      0.400000           0   0.00000       0.00000    
      4379 IM1H     219      IM1H     H7       HDP1A    0.363000       1.00800           0   0.00000       0.00000    
      4380 IM1H     219      IM1H     LPN21    LPD       0.00000       0.00000          -1   0.00000       0.00000    
      4381 IM1H     220      IM1H     C1       CD33F     2.48500       11.6110           0  -1.18100       1.10000    
      4382 IM1H     220      IM1H     DC1      DRUD     -2.66700      0.400000           0   0.00000       0.00000    
      4383 IM1H     220      IM1H     H1       HDA3A    0.135000       1.00800           0   0.00000       0.00000    
      4384 IM1H     220      IM1H     H2       HDA3A    0.135000       1.00800           0   0.00000       0.00000    
      4385 IM1H     220      IM1H     H3       HDA3A    0.135000       1.00800           0   0.00000       0.00000    
      4386 IM1H     220      IM1H     N1       ND2R5C    2.35720       13.6070           0 -0.803000       1.00000    
      4387 IM1H     220      IM1H     DN1      DRUD     -2.19920      0.400000           0   0.00000       0.00000    
      4388 IM1H     220      IM1H     C2       CD2R5D    2.44700       11.6110           0  -1.08300       1.10000    
      4389 IM1H     220      IM1H     DC2      DRUD     -2.55400      0.400000           0   0.00000       0.00000    
      4390 IM1H     220      IM1H     H4       HDR5D    0.195000       1.00800           0   0.00000       0.00000    
      4391 IM1H     220      IM1H     C3       CD2R5D    2.50700       11.6110           0  -1.08300       1.10000    
      4392 IM1H     220      IM1H     DC3      DRUD     -2.55400      0.400000           0   0.00000       0.00000    
      4393 IM1H     220      IM1H     H5       HDR5D    0.192000       1.00800           0   0.00000       0.00000    
      4394 IM1H     220      IM1H     C4       CD2R5E    2.72410       11.6110           0  -1.25300       1.20000    
      4395 IM1H     220      IM1H     DC4      DRUD     -2.74710      0.400000           0   0.00000       0.00000    
      4396 IM1H     220      IM1H     H6       HDR5E    0.203000       1.00800           0   0.00000       0.00000    
      4397 IM1H     220      IM1H     N2       ND2R5C    2.04220       13.6070           0 -0.803000       1.00000    
      4398 IM1H     220      IM1H     DN2      DRUD     -2.19920      0.400000           0   0.00000       0.00000    
      4399 IM1H     220      IM1H     H7       HDP1A    0.363000       1.00800           0   0.00000       0.00000    
      4400 IM1H     220      IM1H     LPN21    LPD       0.00000       0.00000          -1   0.00000       0.00000    
      4401 IM1H     221      IM1H     C1       CD33F     2.48500       11.6110           0  -1.18100       1.10000    
      4402 IM1H     221      IM1H     DC1      DRUD     -2.66700      0.400000           0   0.00000       0.00000    
      4403 IM1H     221      IM1H     H1       HDA3A    0.135000       1.00800           0   0.00000       0.00000    
      4404 IM1H     221      IM1H     H2       HDA3A    0.135000       1.00800           0   0.00000       0.00000    
      4405 IM1H     221      IM1H     H3       HDA3A    0.135000       1.00800           0   0.00000       0.00000    
      4406 IM1H     221      IM1H     N1       ND2R5C    2.35720       13.6070           0 -0.803000       1.00000    
      4407 IM1H     221      IM1H     DN1      DRUD     -2.19920      0.400000           0   0.00000       0.00000    
      4408 IM1H     221      IM1H     C2       CD2R5D    2.44700       11.6110           0  -1.08300       1.10000    
      4409 IM1H     221      IM1H     DC2      DRUD     -2.55400      0.400000           0   0.00000       0.00000    
      4410 IM1H     221      IM1H     H4       HDR5D    0.195000       1.00800           0   0.00000       0.00000    
      4411 IM1H     221      IM1H     C3       CD2R5D    2.50700       11.6110           0  -1.08300       1.10000    
      4412 IM1H     221      IM1H     DC3      DRUD     -2.55400      0.400000           0   0.00000       0.00000    
      4413 IM1H     221      IM1H     H5       HDR5D    0.192000       1.00800           0   0.00000       0.00000    
      4414 IM1H     221      IM1H     C4       CD2R5E    2.72410       11.6110           0  -1.25300       1.20000    
      4415 IM1H     221      IM1H     DC4      DRUD     -2.74710      0.400000           0   0.00000       0.00000    
      4416 IM1H     221      IM1H     H6       HDR5E    0.203000       1.00800           0   0.00000       0.00000    
      4417 IM1H     221      IM1H     N2       ND2R5C    2.04220       13.6070           0 -0.803000       1.00000    
      4418 IM1H     221      IM1H     DN2      DRUD     -2.19920      0.400000           0   0.00000       0.00000    
      4419 IM1H     221      IM1H     H7       HDP1A    0.363000       1.00800           0   0.00000       0.00000    
      4420 IM1H     221      IM1H     LPN21    LPD       0.00000       0.00000          -1   0.00000       0.00000    
      4421 IM1H     222      IM1H     C1       CD33F     2.48500       11.6110           0  -1.18100       1.10000    
      4422 IM1H     222      IM1H     DC1      DRUD     -2.66700      0.400000           0   0.00000       0.00000    
      4423 IM1H     222      IM1H     H1       HDA3A    0.135000       1.00800           0   0.00000       0.00000    
      4424 IM1H     222      IM1H     H2       HDA3A    0.135000       1.00800           0   0.00000       0.00000    
      4425 IM1H     222      IM1H     H3       HDA3A    0.135000       1.00800           0   0.00000       0.00000    
      4426 IM1H     222      IM1H     N1       ND2R5C    2.35720       13.6070           0 -0.803000       1.00000    
      4427 IM1H     222      IM1H     DN1      DRUD     -2.19920      0.400000           0   0.00000       0.00000    
      4428 IM1H     222      IM1H     C2       CD2R5D    2.44700       11.6110           0  -1.08300       1.10000    
      4429 IM1H     222      IM1H     DC2      DRUD     -2.55400      0.400000           0   0.00000       0.00000    
      4430 IM1H     222      IM1H     H4       HDR5D    0.195000       1.00800           0   0.00000       0.00000    
      4431 IM1H     222      IM1H     C3       CD2R5D    2.50700       11.6110           0  -1.08300       1.10000    
      4432 IM1H     222      IM1H     DC3      DRUD     -2.55400      0.400000           0   0.00000       0.00000    
      4433 IM1H     222      IM1H     H5       HDR5D    0.192000       1.00800           0   0.00000       0.00000    
      4434 IM1H     222      IM1H     C4       CD2R5E    2.72410       11.6110           0  -1.25300       1.20000    
      4435 IM1H     222      IM1H     DC4      DRUD     -2.74710      0.400000           0   0.00000       0.00000    
      4436 IM1H     222      IM1H     H6       HDR5E    0.203000       1.00800           0   0.00000       0.00000    
      4437 IM1H     222      IM1H     N2       ND2R5C    2.04220       13.6070           0 -0.803000       1.00000    
      4438 IM1H     222      IM1H     DN2      DRUD     -2.19920      0.400000           0   0.00000       0.00000    
      4439 IM1H     222      IM1H     H7       HDP1A    0.363000       1.00800           0   0.00000       0.00000    
      4440 IM1H     222      IM1H     LPN21    LPD       0.00000       0.00000          -1   0.00000       0.00000    
      4441 IM1H     223      IM1H     C1       CD33F     2.48500       11.6110           0  -1.18100       1.10000    
      4442 IM1H     223      IM1H     DC1      DRUD     -2.66700      0.400000           0   0.00000       0.00000    
      4443 IM1H     223      IM1H     H1       HDA3A    0.135000       1.00800           0   0.00000       0.00000    
      4444 IM1H     223      IM1H     H2       HDA3A    0.135000       1.00800           0   0.00000       0.00000    
      4445 IM1H     223      IM1H     H3       HDA3A    0.135000       1.00800           0   0.00000       0.00000    
      4446 IM1H     223      IM1H     N1       ND2R5C    2.35720       13.6070           0 -0.803000       1.00000    
      4447 IM1H     223      IM1H     DN1      DRUD     -2.19920      0.400000           0   0.00000       0.00000    
      4448 IM1H     223      IM1H     C2       CD2R5D    2.44700       11.6110           0  -1.08300       1.10000    
      4449 IM1H     223      IM1H     DC2      DRUD     -2.55400      0.400000           0   0.00000       0.00000    
      4450 IM1H     223      IM1H     H4       HDR5D    0.195000       1.00800           0   0.00000       0.00000    
      4451 IM1H     223      IM1H     C3       CD2R5D    2.50700       11.6110           0  -1.08300       1.10000    
      4452 IM1H     223      IM1H     DC3      DRUD     -2.55400      0.400000           0   0.00000       0.00000    
      4453 IM1H     223      IM1H     H5       HDR5D    0.192000       1.00800           0   0.00000       0.00000    
      4454 IM1H     223      IM1H     C4       CD2R5E    2.72410       11.6110           0  -1.25300       1.20000    
      4455 IM1H     223      IM1H     DC4      DRUD     -2.74710      0.400000           0   0.00000       0.00000    
      4456 IM1H     223      IM1H     H6       HDR5E    0.203000       1.00800           0   0.00000       0.00000    
      4457 IM1H     223      IM1H     N2       ND2R5C    2.04220       13.6070           0 -0.803000       1.00000    
      4458 IM1H     223      IM1H     DN2      DRUD     -2.19920      0.400000           0   0.00000       0.00000    
      4459 IM1H     223      IM1H     H7       HDP1A    0.363000       1.00800           0   0.00000       0.00000    
      4460 IM1H     223      IM1H     LPN21    LPD       0.00000       0.00000          -1   0.00000       0.00000    
      4461 IM1H     224      IM1H     C1       CD33F     2.48500       11.6110           0  -1.18100       1.10000    
      4462 IM1H     224      IM1H     DC1      DRUD     -2.66700      0.400000           0   0.00000       0.00000    
      4463 IM1H     224      IM1H     H1       HDA3A    0.135000       1.00800           0   0.00000       0.00000    
      4464 IM1H     224      IM1H     H2       HDA3A    0.135000       1.00800           0   0.00000       0.00000    
      4465 IM1H     224      IM1H     H3       HDA3A    0.135000       1.00800           0   0.00000       0.00000    
      4466 IM1H     224      IM1H     N1       ND2R5C    2.35720       13.6070           0 -0.803000       1.00000    
      4467 IM1H     224      IM1H     DN1      DRUD     -2.19920      0.400000           0   0.00000       0.00000    
      4468 IM1H     224      IM1H     C2       CD2R5D    2.44700       11.6110           0  -1.08300       1.10000    
      4469 IM1H     224      IM1H     DC2      DRUD     -2.55400      0.400000           0   0.00000       0.00000    
      4470 IM1H     224      IM1H     H4       HDR5D    0.195000       1.00800           0   0.00000       0.00000    
      4471 IM1H     224      IM1H     C3       CD2R5D    2.50700       11.6110           0  -1.08300       1.10000    
      4472 IM1H     224      IM1H     DC3      DRUD     -2.55400      0.400000           0   0.00000       0.00000    
      4473 IM1H     224      IM1H     H5       HDR5D    0.192000       1.00800           0   0.00000       0.00000    
      4474 IM1H     224      IM1H     C4       CD2R5E    2.72410       11.6110           0  -1.25300       1.20000    
      4475 IM1H     224      IM1H     DC4      DRUD     -2.74710      0.400000           0   0.00000       0.00000    
      4476 IM1H     224      IM1H     H6       HDR5E    0.203000       1.00800           0   0.00000       0.00000    
      4477 IM1H     224      IM1H     N2       ND2R5C    2.04220       13.6070           0 -0.803000       1.00000    
      4478 IM1H     224      IM1H     DN2      DRUD     -2.19920      0.400000           0   0.00000       0.00000    
      4479 IM1H     224      IM1H     H7       HDP1A    0.363000       1.00800           0   0.00000       0.00000    
      4480 IM1H     224      IM1H     LPN21    LPD       0.00000       0.00000          -1   0.00000       0.00000    
      4481 IM1H     225      IM1H     C1       CD33F     2.48500       11.6110           0  -1.18100       1.10000    
      4482 IM1H     225      IM1H     DC1      DRUD     -2.66700      0.400000           0   0.00000       0.00000    
      4483 IM1H     225      IM1H     H1       HDA3A    0.135000       1.00800           0   0.00000       0.00000    
      4484 IM1H     225      IM1H     H2       HDA3A    0.135000       1.00800           0   0.00000       0.00000    
      4485 IM1H     225      IM1H     H3       HDA3A    0.135000       1.00800           0   0.00000       0.00000    
      4486 IM1H     225      IM1H     N1       ND2R5C    2.35720       13.6070           0 -0.803000       1.00000    
      4487 IM1H     225      IM1H     DN1      DRUD     -2.19920      0.400000           0   0.00000       0.00000    
      4488 IM1H     225      IM1H     C2       CD2R5D    2.44700       11.6110           0  -1.08300       1.10000    
      4489 IM1H     225      IM1H     DC2      DRUD     -2.55400      0.400000           0   0.00000       0.00000    
      4490 IM1H     225      IM1H     H4       HDR5D    0.195000       1.00800           0   0.00000       0.00000    
      4491 IM1H     225      IM1H     C3       CD2R5D    2.50700       11.6110           0  -1.08300       1.10000    
      4492 IM1H     225      IM1H     DC3      DRUD     -2.55400      0.400000           0   0.00000       0.00000    
      4493 IM1H     225      IM1H     H5       HDR5D    0.192000       1.00800           0   0.00000       0.00000    
      4494 IM1H     225      IM1H     C4       CD2R5E    2.72410       11.6110           0  -1.25300       1.20000    
      4495 IM1H     225      IM1H     DC4      DRUD     -2.74710      0.400000           0   0.00000       0.00000    
      4496 IM1H     225      IM1H     H6       HDR5E    0.203000       1.00800           0   0.00000       0.00000    
      4497 IM1H     225      IM1H     N2       ND2R5C    2.04220       13.6070           0 -0.803000       1.00000    
      4498 IM1H     225      IM1H     DN2      DRUD     -2.19920      0.400000           0   0.00000       0.00000    
      4499 IM1H     225      IM1H     H7       HDP1A    0.363000       1.00800           0   0.00000       0.00000    
      4500 IM1H     225      IM1H     LPN21    LPD       0.00000       0.00000          -1   0.00000       0.00000    
      4501 IM1H     226      IM1H     C1       CD33F     2.48500       11.6110           0  -1.18100       1.10000    
      4502 IM1H     226      IM1H     DC1      DRUD     -2.66700      0.400000           0   0.00000       0.00000    
      4503 IM1H     226      IM1H     H1       HDA3A    0.135000       1.00800           0   0.00000       0.00000    
      4504 IM1H     226      IM1H     H2       HDA3A    0.135000       1.00800           0   0.00000       0.00000    
      4505 IM1H     226      IM1H     H3       HDA3A    0.135000       1.00800           0   0.00000       0.00000    
      4506 IM1H     226      IM1H     N1       ND2R5C    2.35720       13.6070           0 -0.803000       1.00000    
      4507 IM1H     226      IM1H     DN1      DRUD     -2.19920      0.400000           0   0.00000       0.00000    
      4508 IM1H     226      IM1H     C2       CD2R5D    2.44700       11.6110           0  -1.08300       1.10000    
      4509 IM1H     226      IM1H     DC2      DRUD     -2.55400      0.400000           0   0.00000       0.00000    
      4510 IM1H     226      IM1H     H4       HDR5D    0.195000       1.00800           0   0.00000       0.00000    
      4511 IM1H     226      IM1H     C3       CD2R5D    2.50700       11.6110           0  -1.08300       1.10000    
      4512 IM1H     226      IM1H     DC3      DRUD     -2.55400      0.400000           0   0.00000       0.00000    
      4513 IM1H     226      IM1H     H5       HDR5D    0.192000       1.00800           0   0.00000       0.00000    
      4514 IM1H     226      IM1H     C4       CD2R5E    2.72410       11.6110           0  -1.25300       1.20000    
      4515 IM1H     226      IM1H     DC4      DRUD     -2.74710      0.400000           0   0.00000       0.00000    
      4516 IM1H     226      IM1H     H6       HDR5E    0.203000       1.00800           0   0.00000       0.00000    
      4517 IM1H     226      IM1H     N2       ND2R5C    2.04220       13.6070           0 -0.803000       1.00000    
      4518 IM1H     226      IM1H     DN2      DRUD     -2.19920      0.400000           0   0.00000       0.00000    
      4519 IM1H     226      IM1H     H7       HDP1A    0.363000       1.00800           0   0.00000       0.00000    
      4520 IM1H     226      IM1H     LPN21    LPD       0.00000       0.00000          -1   0.00000       0.00000    
      4521 IM1H     227      IM1H     C1       CD33F     2.48500       11.6110           0  -1.18100       1.10000    
      4522 IM1H     227      IM1H     DC1      DRUD     -2.66700      0.400000           0   0.00000       0.00000    
      4523 IM1H     227      IM1H     H1       HDA3A    0.135000       1.00800           0   0.00000       0.00000    
      4524 IM1H     227      IM1H     H2       HDA3A    0.135000       1.00800           0   0.00000       0.00000    
      4525 IM1H     227      IM1H     H3       HDA3A    0.135000       1.00800           0   0.00000       0.00000    
      4526 IM1H     227      IM1H     N1       ND2R5C    2.35720       13.6070           0 -0.803000       1.00000    
      4527 IM1H     227      IM1H     DN1      DRUD     -2.19920      0.400000           0   0.00000       0.00000    
      4528 IM1H     227      IM1H     C2       CD2R5D    2.44700       11.6110           0  -1.08300       1.10000    
      4529 IM1H     227      IM1H     DC2      DRUD     -2.55400      0.400000           0   0.00000       0.00000    
      4530 IM1H     227      IM1H     H4       HDR5D    0.195000       1.00800           0   0.00000       0.00000    
      4531 IM1H     227      IM1H     C3       CD2R5D    2.50700       11.6110           0  -1.08300       1.10000    
      4532 IM1H     227      IM1H     DC3      DRUD     -2.55400      0.400000           0   0.00000       0.00000    
      4533 IM1H     227      IM1H     H5       HDR5D    0.192000       1.00800           0   0.00000       0.00000    
      4534 IM1H     227      IM1H     C4       CD2R5E    2.72410       11.6110           0  -1.25300       1.20000    
      4535 IM1H     227      IM1H     DC4      DRUD     -2.74710      0.400000           0   0.00000       0.00000    
      4536 IM1H     227      IM1H     H6       HDR5E    0.203000       1.00800           0   0.00000       0.00000    
      4537 IM1H     227      IM1H     N2       ND2R5C    2.04220       13.6070           0 -0.803000       1.00000    
      4538 IM1H     227      IM1H     DN2      DRUD     -2.19920      0.400000           0   0.00000       0.00000    
      4539 IM1H     227      IM1H     H7       HDP1A    0.363000       1.00800           0   0.00000       0.00000    
      4540 IM1H     227      IM1H     LPN21    LPD       0.00000       0.00000          -1   0.00000       0.00000    
      4541 IM1H     228      IM1H     C1       CD33F     2.48500       11.6110           0  -1.18100       1.10000    
      4542 IM1H     228      IM1H     DC1      DRUD     -2.66700      0.400000           0   0.00000       0.00000    
      4543 IM1H     228      IM1H     H1       HDA3A    0.135000       1.00800           0   0.00000       0.00000    
      4544 IM1H     228      IM1H     H2       HDA3A    0.135000       1.00800           0   0.00000       0.00000    
      4545 IM1H     228      IM1H     H3       HDA3A    0.135000       1.00800           0   0.00000       0.00000    
      4546 IM1H     228      IM1H     N1       ND2R5C    2.35720       13.6070           0 -0.803000       1.00000    
      4547 IM1H     228      IM1H     DN1      DRUD     -2.19920      0.400000           0   0.00000       0.00000    
      4548 IM1H     228      IM1H     C2       CD2R5D    2.44700       11.6110           0  -1.08300       1.10000    
      4549 IM1H     228      IM1H     DC2      DRUD     -2.55400      0.400000           0   0.00000       0.00000    
      4550 IM1H     228      IM1H     H4       HDR5D    0.195000       1.00800           0   0.00000       0.00000    
      4551 IM1H     228      IM1H     C3       CD2R5D    2.50700       11.6110           0  -1.08300       1.10000    
      4552 IM1H     228      IM1H     DC3      DRUD     -2.55400      0.400000           0   0.00000       0.00000    
      4553 IM1H     228      IM1H     H5       HDR5D    0.192000       1.00800           0   0.00000       0.00000    
      4554 IM1H     228      IM1H     C4       CD2R5E    2.72410       11.6110           0  -1.25300       1.20000    
      4555 IM1H     228      IM1H     DC4      DRUD     -2.74710      0.400000           0   0.00000       0.00000    
      4556 IM1H     228      IM1H     H6       HDR5E    0.203000       1.00800           0   0.00000       0.00000    
      4557 IM1H     228      IM1H     N2       ND2R5C    2.04220       13.6070           0 -0.803000       1.00000    
      4558 IM1H     228      IM1H     DN2      DRUD     -2.19920      0.400000           0   0.00000       0.00000    
      4559 IM1H     228      IM1H     H7       HDP1A    0.363000       1.00800           0   0.00000       0.00000    
      4560 IM1H     228      IM1H     LPN21    LPD       0.00000       0.00000          -1   0.00000       0.00000    
      4561 IM1H     229      IM1H     C1       CD33F     2.48500       11.6110           0  -1.18100       1.10000    
      4562 IM1H     229      IM1H     DC1      DRUD     -2.66700      0.400000           0   0.00000       0.00000    
      4563 IM1H     229      IM1H     H1       HDA3A    0.135000       1.00800           0   0.00000       0.00000    
      4564 IM1H     229      IM1H     H2       HDA3A    0.135000       1.00800           0   0.00000       0.00000    
      4565 IM1H     229      IM1H     H3       HDA3A    0.135000       1.00800           0   0.00000       0.00000    
      4566 IM1H     229      IM1H     N1       ND2R5C    2.35720       13.6070           0 -0.803000       1.00000    
      4567 IM1H     229      IM1H     DN1      DRUD     -2.19920      0.400000           0   0.00000       0.00000    
      4568 IM1H     229      IM1H     C2       CD2R5D    2.44700       11.6110           0  -1.08300       1.10000    
      4569 IM1H     229      IM1H     DC2      DRUD     -2.55400      0.400000           0   0.00000       0.00000    
      4570 IM1H     229      IM1H     H4       HDR5D    0.195000       1.00800           0   0.00000       0.00000    
      4571 IM1H     229      IM1H     C3       CD2R5D    2.50700       11.6110           0  -1.08300       1.10000    
      4572 IM1H     229      IM1H     DC3      DRUD     -2.55400      0.400000           0   0.00000       0.00000    
      4573 IM1H     229      IM1H     H5       HDR5D    0.192000       1.00800           0   0.00000       0.00000    
      4574 IM1H     229      IM1H     C4       CD2R5E    2.72410       11.6110           0  -1.25300       1.20000    
      4575 IM1H     229      IM1H     DC4      DRUD     -2.74710      0.400000           0   0.00000       0.00000    
      4576 IM1H     229      IM1H     H6       HDR5E    0.203000       1.00800           0   0.00000       0.00000    
      4577 IM1H     229      IM1H     N2       ND2R5C    2.04220       13.6070           0 -0.803000       1.00000    
      4578 IM1H     229      IM1H     DN2      DRUD     -2.19920      0.400000           0   0.00000       0.00000    
      4579 IM1H     229      IM1H     H7       HDP1A    0.363000       1.00800           0   0.00000       0.00000    
      4580 IM1H     229      IM1H     LPN21    LPD       0.00000       0.00000          -1   0.00000       0.00000    
      4581 IM1H     230      IM1H     C1       CD33F     2.48500       11.6110           0  -1.18100       1.10000    
      4582 IM1H     230      IM1H     DC1      DRUD     -2.66700      0.400000           0   0.00000       0.00000    
      4583 IM1H     230      IM1H     H1       HDA3A    0.135000       1.00800           0   0.00000       0.00000    
      4584 IM1H     230      IM1H     H2       HDA3A    0.135000       1.00800           0   0.00000       0.00000    
      4585 IM1H     230      IM1H     H3       HDA3A    0.135000       1.00800           0   0.00000       0.00000    
      4586 IM1H     230      IM1H     N1       ND2R5C    2.35720       13.6070           0 -0.803000       1.00000    
      4587 IM1H     230      IM1H     DN1      DRUD     -2.19920      0.400000           0   0.00000       0.00000    
      4588 IM1H     230      IM1H     C2       CD2R5D    2.44700       11.6110           0  -1.08300       1.10000    
      4589 IM1H     230      IM1H     DC2      DRUD     -2.55400      0.400000           0   0.00000       0.00000    
      4590 IM1H     230      IM1H     H4       HDR5D    0.195000       1.00800           0   0.00000       0.00000    
      4591 IM1H     230      IM1H     C3       CD2R5D    2.50700       11.6110           0  -1.08300       1.10000    
      4592 IM1H     230      IM1H     DC3      DRUD     -2.55400      0.400000           0   0.00000       0.00000    
      4593 IM1H     230      IM1H     H5       HDR5D    0.192000       1.00800           0   0.00000       0.00000    
      4594 IM1H     230      IM1H     C4       CD2R5E    2.72410       11.6110           0  -1.25300       1.20000    
      4595 IM1H     230      IM1H     DC4      DRUD     -2.74710      0.400000           0   0.00000       0.00000    
      4596 IM1H     230      IM1H     H6       HDR5E    0.203000       1.00800           0   0.00000       0.00000    
      4597 IM1H     230      IM1H     N2       ND2R5C    2.04220       13.6070           0 -0.803000       1.00000    
      4598 IM1H     230      IM1H     DN2      DRUD     -2.19920      0.400000           0   0.00000       0.00000    
      4599 IM1H     230      IM1H     H7       HDP1A    0.363000       1.00800           0   0.00000       0.00000    
      4600 IM1H     230      IM1H     LPN21    LPD       0.00000       0.00000          -1   0.00000       0.00000    
      4601 IM1H     231      IM1H     C1       CD33F     2.48500       11.6110           0  -1.18100       1.10000    
      4602 IM1H     231      IM1H     DC1      DRUD     -2.66700      0.400000           0   0.00000       0.00000    
      4603 IM1H     231      IM1H     H1       HDA3A    0.135000       1.00800           0   0.00000       0.00000    
      4604 IM1H     231      IM1H     H2       HDA3A    0.135000       1.00800           0   0.00000       0.00000    
      4605 IM1H     231      IM1H     H3       HDA3A    0.135000       1.00800           0   0.00000       0.00000    
      4606 IM1H     231      IM1H     N1       ND2R5C    2.35720       13.6070           0 -0.803000       1.00000    
      4607 IM1H     231      IM1H     DN1      DRUD     -2.19920      0.400000           0   0.00000       0.00000    
      4608 IM1H     231      IM1H     C2       CD2R5D    2.44700       11.6110           0  -1.08300       1.10000    
      4609 IM1H     231      IM1H     DC2      DRUD     -2.55400      0.400000           0   0.00000       0.00000    
      4610 IM1H     231      IM1H     H4       HDR5D    0.195000       1.00800           0   0.00000       0.00000    
      4611 IM1H     231      IM1H     C3       CD2R5D    2.50700       11.6110           0  -1.08300       1.10000    
      4612 IM1H     231      IM1H     DC3      DRUD     -2.55400      0.400000           0   0.00000       0.00000    
      4613 IM1H     231      IM1H     H5       HDR5D    0.192000       1.00800           0   0.00000       0.00000    
      4614 IM1H     231      IM1H     C4       CD2R5E    2.72410       11.6110           0  -1.25300       1.20000    
      4615 IM1H     231      IM1H     DC4      DRUD     -2.74710      0.400000           0   0.00000       0.00000    
      4616 IM1H     231      IM1H     H6       HDR5E    0.203000       1.00800           0   0.00000       0.00000    
      4617 IM1H     231      IM1H     N2       ND2R5C    2.04220       13.6070           0 -0.803000       1.00000    
      4618 IM1H     231      IM1H     DN2      DRUD     -2.19920      0.400000           0   0.00000       0.00000    
      4619 IM1H     231      IM1H     H7       HDP1A    0.363000       1.00800           0   0.00000       0.00000    
      4620 IM1H     231      IM1H     LPN21    LPD       0.00000       0.00000          -1   0.00000       0.00000    
      4621 IM1H     232      IM1H     C1       CD33F     2.48500       11.6110           0  -1.18100       1.10000    
      4622 IM1H     232      IM1H     DC1      DRUD     -2.66700      0.400000           0   0.00000       0.00000    
      4623 IM1H     232      IM1H     H1       HDA3A    0.135000       1.00800           0   0.00000       0.00000    
      4624 IM1H     232      IM1H     H2       HDA3A    0.135000       1.00800           0   0.00000       0.00000    
      4625 IM1H     232      IM1H     H3       HDA3A    0.135000       1.00800           0   0.00000       0.00000    
      4626 IM1H     232      IM1H     N1       ND2R5C    2.35720       13.6070           0 -0.803000       1.00000    
      4627 IM1H     232      IM1H     DN1      DRUD     -2.19920      0.400000           0   0.00000       0.00000    
      4628 IM1H     232      IM1H     C2       CD2R5D    2.44700       11.6110           0  -1.08300       1.10000    
      4629 IM1H     232      IM1H     DC2      DRUD     -2.55400      0.400000           0   0.00000       0.00000    
      4630 IM1H     232      IM1H     H4       HDR5D    0.195000       1.00800           0   0.00000       0.00000    
      4631 IM1H     232      IM1H     C3       CD2R5D    2.50700       11.6110           0  -1.08300       1.10000    
      4632 IM1H     232      IM1H     DC3      DRUD     -2.55400      0.400000           0   0.00000       0.00000    
      4633 IM1H     232      IM1H     H5       HDR5D    0.192000       1.00800           0   0.00000       0.00000    
      4634 IM1H     232      IM1H     C4       CD2R5E    2.72410       11.6110           0  -1.25300       1.20000    
      4635 IM1H     232      IM1H     DC4      DRUD     -2.74710      0.400000           0   0.00000       0.00000    
      4636 IM1H     232      IM1H     H6       HDR5E    0.203000       1.00800           0   0.00000       0.00000    
      4637 IM1H     232      IM1H     N2       ND2R5C    2.04220       13.6070           0 -0.803000       1.00000    
      4638 IM1H     232      IM1H     DN2      DRUD     -2.19920      0.400000           0   0.00000       0.00000    
      4639 IM1H     232      IM1H     H7       HDP1A    0.363000       1.00800           0   0.00000       0.00000    
      4640 IM1H     232      IM1H     LPN21    LPD       0.00000       0.00000          -1   0.00000       0.00000    
      4641 IM1H     233      IM1H     C1       CD33F     2.48500       11.6110           0  -1.18100       1.10000    
      4642 IM1H     233      IM1H     DC1      DRUD     -2.66700      0.400000           0   0.00000       0.00000    
      4643 IM1H     233      IM1H     H1       HDA3A    0.135000       1.00800           0   0.00000       0.00000    
      4644 IM1H     233      IM1H     H2       HDA3A    0.135000       1.00800           0   0.00000       0.00000    
      4645 IM1H     233      IM1H     H3       HDA3A    0.135000       1.00800           0   0.00000       0.00000    
      4646 IM1H     233      IM1H     N1       ND2R5C    2.35720       13.6070           0 -0.803000       1.00000    
      4647 IM1H     233      IM1H     DN1      DRUD     -2.19920      0.400000           0   0.00000       0.00000    
      4648 IM1H     233      IM1H     C2       CD2R5D    2.44700       11.6110           0  -1.08300       1.10000    
      4649 IM1H     233      IM1H     DC2      DRUD     -2.55400      0.400000           0   0.00000       0.00000    
      4650 IM1H     233      IM1H     H4       HDR5D    0.195000       1.00800           0   0.00000       0.00000    
      4651 IM1H     233      IM1H     C3       CD2R5D    2.50700       11.6110           0  -1.08300       1.10000    
      4652 IM1H     233      IM1H     DC3      DRUD     -2.55400      0.400000           0   0.00000       0.00000    
      4653 IM1H     233      IM1H     H5       HDR5D    0.192000       1.00800           0   0.00000       0.00000    
      4654 IM1H     233      IM1H     C4       CD2R5E    2.72410       11.6110           0  -1.25300       1.20000    
      4655 IM1H     233      IM1H     DC4      DRUD     -2.74710      0.400000           0   0.00000       0.00000    
      4656 IM1H     233      IM1H     H6       HDR5E    0.203000       1.00800           0   0.00000       0.00000    
      4657 IM1H     233      IM1H     N2       ND2R5C    2.04220       13.6070           0 -0.803000       1.00000    
      4658 IM1H     233      IM1H     DN2      DRUD     -2.19920      0.400000           0   0.00000       0.00000    
      4659 IM1H     233      IM1H     H7       HDP1A    0.363000       1.00800           0   0.00000       0.00000    
      4660 IM1H     233      IM1H     LPN21    LPD       0.00000       0.00000          -1   0.00000       0.00000    
      4661 IM1H     234      IM1H     C1       CD33F     2.48500       11.6110           0  -1.18100       1.10000    
      4662 IM1H     234      IM1H     DC1      DRUD     -2.66700      0.400000           0   0.00000       0.00000    
      4663 IM1H     234      IM1H     H1       HDA3A    0.135000       1.00800           0   0.00000       0.00000    
      4664 IM1H     234      IM1H     H2       HDA3A    0.135000       1.00800           0   0.00000       0.00000    
      4665 IM1H     234      IM1H     H3       HDA3A    0.135000       1.00800           0   0.00000       0.00000    
      4666 IM1H     234      IM1H     N1       ND2R5C    2.35720       13.6070           0 -0.803000       1.00000    
      4667 IM1H     234      IM1H     DN1      DRUD     -2.19920      0.400000           0   0.00000       0.00000    
      4668 IM1H     234      IM1H     C2       CD2R5D    2.44700       11.6110           0  -1.08300       1.10000    
      4669 IM1H     234      IM1H     DC2      DRUD     -2.55400      0.400000           0   0.00000       0.00000    
      4670 IM1H     234      IM1H     H4       HDR5D    0.195000       1.00800           0   0.00000       0.00000    
      4671 IM1H     234      IM1H     C3       CD2R5D    2.50700       11.6110           0  -1.08300       1.10000    
      4672 IM1H     234      IM1H     DC3      DRUD     -2.55400      0.400000           0   0.00000       0.00000    
      4673 IM1H     234      IM1H     H5       HDR5D    0.192000       1.00800           0   0.00000       0.00000    
      4674 IM1H     234      IM1H     C4       CD2R5E    2.72410       11.6110           0  -1.25300       1.20000    
      4675 IM1H     234      IM1H     DC4      DRUD     -2.74710      0.400000           0   0.00000       0.00000    
      4676 IM1H     234      IM1H     H6       HDR5E    0.203000       1.00800           0   0.00000       0.00000    
      4677 IM1H     234      IM1H     N2       ND2R5C    2.04220       13.6070           0 -0.803000       1.00000    
      4678 IM1H     234      IM1H     DN2      DRUD     -2.19920      0.400000           0   0.00000       0.00000    
      4679 IM1H     234      IM1H     H7       HDP1A    0.363000       1.00800           0   0.00000       0.00000    
      4680 IM1H     234      IM1H     LPN21    LPD       0.00000       0.00000          -1   0.00000       0.00000    
      4681 IM1H     235      IM1H     C1       CD33F     2.48500       11.6110           0  -1.18100       1.10000    
      4682 IM1H     235      IM1H     DC1      DRUD     -2.66700      0.400000           0   0.00000       0.00000    
      4683 IM1H     235      IM1H     H1       HDA3A    0.135000       1.00800           0   0.00000       0.00000    
      4684 IM1H     235      IM1H     H2       HDA3A    0.135000       1.00800           0   0.00000       0.00000    
      4685 IM1H     235      IM1H     H3       HDA3A    0.135000       1.00800           0   0.00000       0.00000    
      4686 IM1H     235      IM1H     N1       ND2R5C    2.35720       13.6070           0 -0.803000       1.00000    
      4687 IM1H     235      IM1H     DN1      DRUD     -2.19920      0.400000           0   0.00000       0.00000    
      4688 IM1H     235      IM1H     C2       CD2R5D    2.44700       11.6110           0  -1.08300       1.10000    
      4689 IM1H     235      IM1H     DC2      DRUD     -2.55400      0.400000           0   0.00000       0.00000    
      4690 IM1H     235      IM1H     H4       HDR5D    0.195000       1.00800           0   0.00000       0.00000    
      4691 IM1H     235      IM1H     C3       CD2R5D    2.50700       11.6110           0  -1.08300       1.10000    
      4692 IM1H     235      IM1H     DC3      DRUD     -2.55400      0.400000           0   0.00000       0.00000    
      4693 IM1H     235      IM1H     H5       HDR5D    0.192000       1.00800           0   0.00000       0.00000    
      4694 IM1H     235      IM1H     C4       CD2R5E    2.72410       11.6110           0  -1.25300       1.20000    
      4695 IM1H     235      IM1H     DC4      DRUD     -2.74710      0.400000           0   0.00000       0.00000    
      4696 IM1H     235      IM1H     H6       HDR5E    0.203000       1.00800           0   0.00000       0.00000    
      4697 IM1H     235      IM1H     N2       ND2R5C    2.04220       13.6070           0 -0.803000       1.00000    
      4698 IM1H     235      IM1H     DN2      DRUD     -2.19920      0.400000           0   0.00000       0.00000    
      4699 IM1H     235      IM1H     H7       HDP1A    0.363000       1.00800           0   0.00000       0.00000    
      4700 IM1H     235      IM1H     LPN21    LPD       0.00000       0.00000          -1   0.00000       0.00000    
      4701 IM1H     236      IM1H     C1       CD33F     2.48500       11.6110           0  -1.18100       1.10000    
      4702 IM1H     236      IM1H     DC1      DRUD     -2.66700      0.400000           0   0.00000       0.00000    
      4703 IM1H     236      IM1H     H1       HDA3A    0.135000       1.00800           0   0.00000       0.00000    
      4704 IM1H     236      IM1H     H2       HDA3A    0.135000       1.00800           0   0.00000       0.00000    
      4705 IM1H     236      IM1H     H3       HDA3A    0.135000       1.00800           0   0.00000       0.00000    
      4706 IM1H     236      IM1H     N1       ND2R5C    2.35720       13.6070           0 -0.803000       1.00000    
      4707 IM1H     236      IM1H     DN1      DRUD     -2.19920      0.400000           0   0.00000       0.00000    
      4708 IM1H     236      IM1H     C2       CD2R5D    2.44700       11.6110           0  -1.08300       1.10000    
      4709 IM1H     236      IM1H     DC2      DRUD     -2.55400      0.400000           0   0.00000       0.00000    
      4710 IM1H     236      IM1H     H4       HDR5D    0.195000       1.00800           0   0.00000       0.00000    
      4711 IM1H     236      IM1H     C3       CD2R5D    2.50700       11.6110           0  -1.08300       1.10000    
      4712 IM1H     236      IM1H     DC3      DRUD     -2.55400      0.400000           0   0.00000       0.00000    
      4713 IM1H     236      IM1H     H5       HDR5D    0.192000       1.00800           0   0.00000       0.00000    
      4714 IM1H     236      IM1H     C4       CD2R5E    2.72410       11.6110           0  -1.25300       1.20000    
      4715 IM1H     236      IM1H     DC4      DRUD     -2.74710      0.400000           0   0.00000       0.00000    
      4716 IM1H     236      IM1H     H6       HDR5E    0.203000       1.00800           0   0.00000       0.00000    
      4717 IM1H     236      IM1H     N2       ND2R5C    2.04220       13.6070           0 -0.803000       1.00000    
      4718 IM1H     236      IM1H     DN2      DRUD     -2.19920      0.400000           0   0.00000       0.00000    
      4719 IM1H     236      IM1H     H7       HDP1A    0.363000       1.00800           0   0.00000       0.00000    
      4720 IM1H     236      IM1H     LPN21    LPD       0.00000       0.00000          -1   0.00000       0.00000    
      4721 IM1H     237      IM1H     C1       CD33F     2.48500       11.6110           0  -1.18100       1.10000    
      4722 IM1H     237      IM1H     DC1      DRUD     -2.66700      0.400000           0   0.00000       0.00000    
      4723 IM1H     237      IM1H     H1       HDA3A    0.135000       1.00800           0   0.00000       0.00000    
      4724 IM1H     237      IM1H     H2       HDA3A    0.135000       1.00800           0   0.00000       0.00000    
      4725 IM1H     237      IM1H     H3       HDA3A    0.135000       1.00800           0   0.00000       0.00000    
      4726 IM1H     237      IM1H     N1       ND2R5C    2.35720       13.6070           0 -0.803000       1.00000    
      4727 IM1H     237      IM1H     DN1      DRUD     -2.19920      0.400000           0   0.00000       0.00000    
      4728 IM1H     237      IM1H     C2       CD2R5D    2.44700       11.6110           0  -1.08300       1.10000    
      4729 IM1H     237      IM1H     DC2      DRUD     -2.55400      0.400000           0   0.00000       0.00000    
      4730 IM1H     237      IM1H     H4       HDR5D    0.195000       1.00800           0   0.00000       0.00000    
      4731 IM1H     237      IM1H     C3       CD2R5D    2.50700       11.6110           0  -1.08300       1.10000    
      4732 IM1H     237      IM1H     DC3      DRUD     -2.55400      0.400000           0   0.00000       0.00000    
      4733 IM1H     237      IM1H     H5       HDR5D    0.192000       1.00800           0   0.00000       0.00000    
      4734 IM1H     237      IM1H     C4       CD2R5E    2.72410       11.6110           0  -1.25300       1.20000    
      4735 IM1H     237      IM1H     DC4      DRUD     -2.74710      0.400000           0   0.00000       0.00000    
      4736 IM1H     237      IM1H     H6       HDR5E    0.203000       1.00800           0   0.00000       0.00000    
      4737 IM1H     237      IM1H     N2       ND2R5C    2.04220       13.6070           0 -0.803000       1.00000    
      4738 IM1H     237      IM1H     DN2      DRUD     -2.19920      0.400000           0   0.00000       0.00000    
      4739 IM1H     237      IM1H     H7       HDP1A    0.363000       1.00800           0   0.00000       0.00000    
      4740 IM1H     237      IM1H     LPN21    LPD       0.00000       0.00000          -1   0.00000       0.00000    
      4741 IM1H     238      IM1H     C1       CD33F     2.48500       11.6110           0  -1.18100       1.10000    
      4742 IM1H     238      IM1H     DC1      DRUD     -2.66700      0.400000           0   0.00000       0.00000    
      4743 IM1H     238      IM1H     H1       HDA3A    0.135000       1.00800           0   0.00000       0.00000    
      4744 IM1H     238      IM1H     H2       HDA3A    0.135000       1.00800           0   0.00000       0.00000    
      4745 IM1H     238      IM1H     H3       HDA3A    0.135000       1.00800           0   0.00000       0.00000    
      4746 IM1H     238      IM1H     N1       ND2R5C    2.35720       13.6070           0 -0.803000       1.00000    
      4747 IM1H     238      IM1H     DN1      DRUD     -2.19920      0.400000           0   0.00000       0.00000    
      4748 IM1H     238      IM1H     C2       CD2R5D    2.44700       11.6110           0  -1.08300       1.10000    
      4749 IM1H     238      IM1H     DC2      DRUD     -2.55400      0.400000           0   0.00000       0.00000    
      4750 IM1H     238      IM1H     H4       HDR5D    0.195000       1.00800           0   0.00000       0.00000    
      4751 IM1H     238      IM1H     C3       CD2R5D    2.50700       11.6110           0  -1.08300       1.10000    
      4752 IM1H     238      IM1H     DC3      DRUD     -2.55400      0.400000           0   0.00000       0.00000    
      4753 IM1H     238      IM1H     H5       HDR5D    0.192000       1.00800           0   0.00000       0.00000    
      4754 IM1H     238      IM1H     C4       CD2R5E    2.72410       11.6110           0  -1.25300       1.20000    
      4755 IM1H     238      IM1H     DC4      DRUD     -2.74710      0.400000           0   0.00000       0.00000    
      4756 IM1H     238      IM1H     H6       HDR5E    0.203000       1.00800           0   0.00000       0.00000    
      4757 IM1H     238      IM1H     N2       ND2R5C    2.04220       13.6070           0 -0.803000       1.00000    
      4758 IM1H     238      IM1H     DN2      DRUD     -2.19920      0.400000           0   0.00000       0.00000    
      4759 IM1H     238      IM1H     H7       HDP1A    0.363000       1.00800           0   0.00000       0.00000    
      4760 IM1H     238      IM1H     LPN21    LPD       0.00000       0.00000          -1   0.00000       0.00000    
      4761 IM1H     239      IM1H     C1       CD33F     2.48500       11.6110           0  -1.18100       1.10000    
      4762 IM1H     239      IM1H     DC1      DRUD     -2.66700      0.400000           0   0.00000       0.00000    
      4763 IM1H     239      IM1H     H1       HDA3A    0.135000       1.00800           0   0.00000       0.00000    
      4764 IM1H     239      IM1H     H2       HDA3A    0.135000       1.00800           0   0.00000       0.00000    
      4765 IM1H     239      IM1H     H3       HDA3A    0.135000       1.00800           0   0.00000       0.00000    
      4766 IM1H     239      IM1H     N1       ND2R5C    2.35720       13.6070           0 -0.803000       1.00000    
      4767 IM1H     239      IM1H     DN1      DRUD     -2.19920      0.400000           0   0.00000       0.00000    
      4768 IM1H     239      IM1H     C2       CD2R5D    2.44700       11.6110           0  -1.08300       1.10000    
      4769 IM1H     239      IM1H     DC2      DRUD     -2.55400      0.400000           0   0.00000       0.00000    
      4770 IM1H     239      IM1H     H4       HDR5D    0.195000       1.00800           0   0.00000       0.00000    
      4771 IM1H     239      IM1H     C3       CD2R5D    2.50700       11.6110           0  -1.08300       1.10000    
      4772 IM1H     239      IM1H     DC3      DRUD     -2.55400      0.400000           0   0.00000       0.00000    
      4773 IM1H     239      IM1H     H5       HDR5D    0.192000       1.00800           0   0.00000       0.00000    
      4774 IM1H     239      IM1H     C4       CD2R5E    2.72410       11.6110           0  -1.25300       1.20000    
      4775 IM1H     239      IM1H     DC4      DRUD     -2.74710      0.400000           0   0.00000       0.00000    
      4776 IM1H     239      IM1H     H6       HDR5E    0.203000       1.00800           0   0.00000       0.00000    
      4777 IM1H     239      IM1H     N2       ND2R5C    2.04220       13.6070           0 -0.803000       1.00000    
      4778 IM1H     239      IM1H     DN2      DRUD     -2.19920      0.400000           0   0.00000       0.00000    
      4779 IM1H     239      IM1H     H7       HDP1A    0.363000       1.00800           0   0.00000       0.00000    
      4780 IM1H     239      IM1H     LPN21    LPD       0.00000       0.00000          -1   0.00000       0.00000    
      4781 IM1H     240      IM1H     C1       CD33F     2.48500       11.6110           0  -1.18100       1.10000    
      4782 IM1H     240      IM1H     DC1      DRUD     -2.66700      0.400000           0   0.00000       0.00000    
      4783 IM1H     240      IM1H     H1       HDA3A    0.135000       1.00800           0   0.00000       0.00000    
      4784 IM1H     240      IM1H     H2       HDA3A    0.135000       1.00800           0   0.00000       0.00000    
      4785 IM1H     240      IM1H     H3       HDA3A    0.135000       1.00800           0   0.00000       0.00000    
      4786 IM1H     240      IM1H     N1       ND2R5C    2.35720       13.6070           0 -0.803000       1.00000    
      4787 IM1H     240      IM1H     DN1      DRUD     -2.19920      0.400000           0   0.00000       0.00000    
      4788 IM1H     240      IM1H     C2       CD2R5D    2.44700       11.6110           0  -1.08300       1.10000    
      4789 IM1H     240      IM1H     DC2      DRUD     -2.55400      0.400000           0   0.00000       0.00000    
      4790 IM1H     240      IM1H     H4       HDR5D    0.195000       1.00800           0   0.00000       0.00000    
      4791 IM1H     240      IM1H     C3       CD2R5D    2.50700       11.6110           0  -1.08300       1.10000    
      4792 IM1H     240      IM1H     DC3      DRUD     -2.55400      0.400000           0   0.00000       0.00000    
      4793 IM1H     240      IM1H     H5       HDR5D    0.192000       1.00800           0   0.00000       0.00000    
      4794 IM1H     240      IM1H     C4       CD2R5E    2.72410       11.6110           0  -1.25300       1.20000    
      4795 IM1H     240      IM1H     DC4      DRUD     -2.74710      0.400000           0   0.00000       0.00000    
      4796 IM1H     240      IM1H     H6       HDR5E    0.203000       1.00800           0   0.00000       0.00000    
      4797 IM1H     240      IM1H     N2       ND2R5C    2.04220       13.6070           0 -0.803000       1.00000    
      4798 IM1H     240      IM1H     DN2      DRUD     -2.19920      0.400000           0   0.00000       0.00000    
      4799 IM1H     240      IM1H     H7       HDP1A    0.363000       1.00800           0   0.00000       0.00000    
      4800 IM1H     240      IM1H     LPN21    LPD       0.00000       0.00000          -1   0.00000       0.00000    
      4801 IM1H     241      IM1H     C1       CD33F     2.48500       11.6110           0  -1.18100       1.10000    
      4802 IM1H     241      IM1H     DC1      DRUD     -2.66700      0.400000           0   0.00000       0.00000    
      4803 IM1H     241      IM1H     H1       HDA3A    0.135000       1.00800           0   0.00000       0.00000    
      4804 IM1H     241      IM1H     H2       HDA3A    0.135000       1.00800           0   0.00000       0.00000    
      4805 IM1H     241      IM1H     H3       HDA3A    0.135000       1.00800           0   0.00000       0.00000    
      4806 IM1H     241      IM1H     N1       ND2R5C    2.35720       13.6070           0 -0.803000       1.00000    
      4807 IM1H     241      IM1H     DN1      DRUD     -2.19920      0.400000           0   0.00000       0.00000    
      4808 IM1H     241      IM1H     C2       CD2R5D    2.44700       11.6110           0  -1.08300       1.10000    
      4809 IM1H     241      IM1H     DC2      DRUD     -2.55400      0.400000           0   0.00000       0.00000    
      4810 IM1H     241      IM1H     H4       HDR5D    0.195000       1.00800           0   0.00000       0.00000    
      4811 IM1H     241      IM1H     C3       CD2R5D    2.50700       11.6110           0  -1.08300       1.10000    
      4812 IM1H     241      IM1H     DC3      DRUD     -2.55400      0.400000           0   0.00000       0.00000    
      4813 IM1H     241      IM1H     H5       HDR5D    0.192000       1.00800           0   0.00000       0.00000    
      4814 IM1H     241      IM1H     C4       CD2R5E    2.72410       11.6110           0  -1.25300       1.20000    
      4815 IM1H     241      IM1H     DC4      DRUD     -2.74710      0.400000           0   0.00000       0.00000    
      4816 IM1H     241      IM1H     H6       HDR5E    0.203000       1.00800           0   0.00000       0.00000    
      4817 IM1H     241      IM1H     N2       ND2R5C    2.04220       13.6070           0 -0.803000       1.00000    
      4818 IM1H     241      IM1H     DN2      DRUD     -2.19920      0.400000           0   0.00000       0.00000    
      4819 IM1H     241      IM1H     H7       HDP1A    0.363000       1.00800           0   0.00000       0.00000    
      4820 IM1H     241      IM1H     LPN21    LPD       0.00000       0.00000          -1   0.00000       0.00000    
      4821 IM1H     242      IM1H     C1       CD33F     2.48500       11.6110           0  -1.18100       1.10000    
      4822 IM1H     242      IM1H     DC1      DRUD     -2.66700      0.400000           0   0.00000       0.00000    
      4823 IM1H     242      IM1H     H1       HDA3A    0.135000       1.00800           0   0.00000       0.00000    
      4824 IM1H     242      IM1H     H2       HDA3A    0.135000       1.00800           0   0.00000       0.00000    
      4825 IM1H     242      IM1H     H3       HDA3A    0.135000       1.00800           0   0.00000       0.00000    
      4826 IM1H     242      IM1H     N1       ND2R5C    2.35720       13.6070           0 -0.803000       1.00000    
      4827 IM1H     242      IM1H     DN1      DRUD     -2.19920      0.400000           0   0.00000       0.00000    
      4828 IM1H     242      IM1H     C2       CD2R5D    2.44700       11.6110           0  -1.08300       1.10000    
      4829 IM1H     242      IM1H     DC2      DRUD     -2.55400      0.400000           0   0.00000       0.00000    
      4830 IM1H     242      IM1H     H4       HDR5D    0.195000       1.00800           0   0.00000       0.00000    
      4831 IM1H     242      IM1H     C3       CD2R5D    2.50700       11.6110           0  -1.08300       1.10000    
      4832 IM1H     242      IM1H     DC3      DRUD     -2.55400      0.400000           0   0.00000       0.00000    
      4833 IM1H     242      IM1H     H5       HDR5D    0.192000       1.00800           0   0.00000       0.00000    
      4834 IM1H     242      IM1H     C4       CD2R5E    2.72410       11.6110           0  -1.25300       1.20000    
      4835 IM1H     242      IM1H     DC4      DRUD     -2.74710      0.400000           0   0.00000       0.00000    
      4836 IM1H     242      IM1H     H6       HDR5E    0.203000       1.00800           0   0.00000       0.00000    
      4837 IM1H     242      IM1H     N2       ND2R5C    2.04220       13.6070           0 -0.803000       1.00000    
      4838 IM1H     242      IM1H     DN2      DRUD     -2.19920      0.400000           0   0.00000       0.00000    
      4839 IM1H     242      IM1H     H7       HDP1A    0.363000       1.00800           0   0.00000       0.00000    
      4840 IM1H     242      IM1H     LPN21    LPD       0.00000       0.00000          -1   0.00000       0.00000    
      4841 IM1H     243      IM1H     C1       CD33F     2.48500       11.6110           0  -1.18100       1.10000    
      4842 IM1H     243      IM1H     DC1      DRUD     -2.66700      0.400000           0   0.00000       0.00000    
      4843 IM1H     243      IM1H     H1       HDA3A    0.135000       1.00800           0   0.00000       0.00000    
      4844 IM1H     243      IM1H     H2       HDA3A    0.135000       1.00800           0   0.00000       0.00000    
      4845 IM1H     243      IM1H     H3       HDA3A    0.135000       1.00800           0   0.00000       0.00000    
      4846 IM1H     243      IM1H     N1       ND2R5C    2.35720       13.6070           0 -0.803000       1.00000    
      4847 IM1H     243      IM1H     DN1      DRUD     -2.19920      0.400000           0   0.00000       0.00000    
      4848 IM1H     243      IM1H     C2       CD2R5D    2.44700       11.6110           0  -1.08300       1.10000    
      4849 IM1H     243      IM1H     DC2      DRUD     -2.55400      0.400000           0   0.00000       0.00000    
      4850 IM1H     243      IM1H     H4       HDR5D    0.195000       1.00800           0   0.00000       0.00000    
      4851 IM1H     243      IM1H     C3       CD2R5D    2.50700       11.6110           0  -1.08300       1.10000    
      4852 IM1H     243      IM1H     DC3      DRUD     -2.55400      0.400000           0   0.00000       0.00000    
      4853 IM1H     243      IM1H     H5       HDR5D    0.192000       1.00800           0   0.00000       0.00000    
      4854 IM1H     243      IM1H     C4       CD2R5E    2.72410       11.6110           0  -1.25300       1.20000    
      4855 IM1H     243      IM1H     DC4      DRUD     -2.74710      0.400000           0   0.00000       0.00000    
      4856 IM1H     243      IM1H     H6       HDR5E    0.203000       1.00800           0   0.00000       0.00000    
      4857 IM1H     243      IM1H     N2       ND2R5C    2.04220       13.6070           0 -0.803000       1.00000    
      4858 IM1H     243      IM1H     DN2      DRUD     -2.19920      0.400000           0   0.00000       0.00000    
      4859 IM1H     243      IM1H     H7       HDP1A    0.363000       1.00800           0   0.00000       0.00000    
      4860 IM1H     243      IM1H     LPN21    LPD       0.00000       0.00000          -1   0.00000       0.00000    
      4861 IM1H     244      IM1H     C1       CD33F     2.48500       11.6110           0  -1.18100       1.10000    
      4862 IM1H     244      IM1H     DC1      DRUD     -2.66700      0.400000           0   0.00000       0.00000    
      4863 IM1H     244      IM1H     H1       HDA3A    0.135000       1.00800           0   0.00000       0.00000    
      4864 IM1H     244      IM1H     H2       HDA3A    0.135000       1.00800           0   0.00000       0.00000    
      4865 IM1H     244      IM1H     H3       HDA3A    0.135000       1.00800           0   0.00000       0.00000    
      4866 IM1H     244      IM1H     N1       ND2R5C    2.35720       13.6070           0 -0.803000       1.00000    
      4867 IM1H     244      IM1H     DN1      DRUD     -2.19920      0.400000           0   0.00000       0.00000    
      4868 IM1H     244      IM1H     C2       CD2R5D    2.44700       11.6110           0  -1.08300       1.10000    
      4869 IM1H     244      IM1H     DC2      DRUD     -2.55400      0.400000           0   0.00000       0.00000    
      4870 IM1H     244      IM1H     H4       HDR5D    0.195000       1.00800           0   0.00000       0.00000    
      4871 IM1H     244      IM1H     C3       CD2R5D    2.50700       11.6110           0  -1.08300       1.10000    
      4872 IM1H     244      IM1H     DC3      DRUD     -2.55400      0.400000           0   0.00000       0.00000    
      4873 IM1H     244      IM1H     H5       HDR5D    0.192000       1.00800           0   0.00000       0.00000    
      4874 IM1H     244      IM1H     C4       CD2R5E    2.72410       11.6110           0  -1.25300       1.20000    
      4875 IM1H     244      IM1H     DC4      DRUD     -2.74710      0.400000           0   0.00000       0.00000    
      4876 IM1H     244      IM1H     H6       HDR5E    0.203000       1.00800           0   0.00000       0.00000    
      4877 IM1H     244      IM1H     N2       ND2R5C    2.04220       13.6070           0 -0.803000       1.00000    
      4878 IM1H     244      IM1H     DN2      DRUD     -2.19920      0.400000           0   0.00000       0.00000    
      4879 IM1H     244      IM1H     H7       HDP1A    0.363000       1.00800           0   0.00000       0.00000    
      4880 IM1H     244      IM1H     LPN21    LPD       0.00000       0.00000          -1   0.00000       0.00000    
      4881 IM1H     245      IM1H     C1       CD33F     2.48500       11.6110           0  -1.18100       1.10000    
      4882 IM1H     245      IM1H     DC1      DRUD     -2.66700      0.400000           0   0.00000       0.00000    
      4883 IM1H     245      IM1H     H1       HDA3A    0.135000       1.00800           0   0.00000       0.00000    
      4884 IM1H     245      IM1H     H2       HDA3A    0.135000       1.00800           0   0.00000       0.00000    
      4885 IM1H     245      IM1H     H3       HDA3A    0.135000       1.00800           0   0.00000       0.00000    
      4886 IM1H     245      IM1H     N1       ND2R5C    2.35720       13.6070           0 -0.803000       1.00000    
      4887 IM1H     245      IM1H     DN1      DRUD     -2.19920      0.400000           0   0.00000       0.00000    
      4888 IM1H     245      IM1H     C2       CD2R5D    2.44700       11.6110           0  -1.08300       1.10000    
      4889 IM1H     245      IM1H     DC2      DRUD     -2.55400      0.400000           0   0.00000       0.00000    
      4890 IM1H     245      IM1H     H4       HDR5D    0.195000       1.00800           0   0.00000       0.00000    
      4891 IM1H     245      IM1H     C3       CD2R5D    2.50700       11.6110           0  -1.08300       1.10000    
      4892 IM1H     245      IM1H     DC3      DRUD     -2.55400      0.400000           0   0.00000       0.00000    
      4893 IM1H     245      IM1H     H5       HDR5D    0.192000       1.00800           0   0.00000       0.00000    
      4894 IM1H     245      IM1H     C4       CD2R5E    2.72410       11.6110           0  -1.25300       1.20000    
      4895 IM1H     245      IM1H     DC4      DRUD     -2.74710      0.400000           0   0.00000       0.00000    
      4896 IM1H     245      IM1H     H6       HDR5E    0.203000       1.00800           0   0.00000       0.00000    
      4897 IM1H     245      IM1H     N2       ND2R5C    2.04220       13.6070           0 -0.803000       1.00000    
      4898 IM1H     245      IM1H     DN2      DRUD     -2.19920      0.400000           0   0.00000       0.00000    
      4899 IM1H     245      IM1H     H7       HDP1A    0.363000       1.00800           0   0.00000       0.00000    
      4900 IM1H     245      IM1H     LPN21    LPD       0.00000       0.00000          -1   0.00000       0.00000    
      4901 IM1H     246      IM1H     C1       CD33F     2.48500       11.6110           0  -1.18100       1.10000    
      4902 IM1H     246      IM1H     DC1      DRUD     -2.66700      0.400000           0   0.00000       0.00000    
      4903 IM1H     246      IM1H     H1       HDA3A    0.135000       1.00800           0   0.00000       0.00000    
      4904 IM1H     246      IM1H     H2       HDA3A    0.135000       1.00800           0   0.00000       0.00000    
      4905 IM1H     246      IM1H     H3       HDA3A    0.135000       1.00800           0   0.00000       0.00000    
      4906 IM1H     246      IM1H     N1       ND2R5C    2.35720       13.6070           0 -0.803000       1.00000    
      4907 IM1H     246      IM1H     DN1      DRUD     -2.19920      0.400000           0   0.00000       0.00000    
      4908 IM1H     246      IM1H     C2       CD2R5D    2.44700       11.6110           0  -1.08300       1.10000    
      4909 IM1H     246      IM1H     DC2      DRUD     -2.55400      0.400000           0   0.00000       0.00000    
      4910 IM1H     246      IM1H     H4       HDR5D    0.195000       1.00800           0   0.00000       0.00000    
      4911 IM1H     246      IM1H     C3       CD2R5D    2.50700       11.6110           0  -1.08300       1.10000    
      4912 IM1H     246      IM1H     DC3      DRUD     -2.55400      0.400000           0   0.00000       0.00000    
      4913 IM1H     246      IM1H     H5       HDR5D    0.192000       1.00800           0   0.00000       0.00000    
      4914 IM1H     246      IM1H     C4       CD2R5E    2.72410       11.6110           0  -1.25300       1.20000    
      4915 IM1H     246      IM1H     DC4      DRUD     -2.74710      0.400000           0   0.00000       0.00000    
      4916 IM1H     246      IM1H     H6       HDR5E    0.203000       1.00800           0   0.00000       0.00000    
      4917 IM1H     246      IM1H     N2       ND2R5C    2.04220       13.6070           0 -0.803000       1.00000    
      4918 IM1H     246      IM1H     DN2      DRUD     -2.19920      0.400000           0   0.00000       0.00000    
      4919 IM1H     246      IM1H     H7       HDP1A    0.363000       1.00800           0   0.00000       0.00000    
      4920 IM1H     246      IM1H     LPN21    LPD       0.00000       0.00000          -1   0.00000       0.00000    
      4921 IM1H     247      IM1H     C1       CD33F     2.48500       11.6110           0  -1.18100       1.10000    
      4922 IM1H     247      IM1H     DC1      DRUD     -2.66700      0.400000           0   0.00000       0.00000    
      4923 IM1H     247      IM1H     H1       HDA3A    0.135000       1.00800           0   0.00000       0.00000    
      4924 IM1H     247      IM1H     H2       HDA3A    0.135000       1.00800           0   0.00000       0.00000    
      4925 IM1H     247      IM1H     H3       HDA3A    0.135000       1.00800           0   0.00000       0.00000    
      4926 IM1H     247      IM1H     N1       ND2R5C    2.35720       13.6070           0 -0.803000       1.00000    
      4927 IM1H     247      IM1H     DN1      DRUD     -2.19920      0.400000           0   0.00000       0.00000    
      4928 IM1H     247      IM1H     C2       CD2R5D    2.44700       11.6110           0  -1.08300       1.10000    
      4929 IM1H     247      IM1H     DC2      DRUD     -2.55400      0.400000           0   0.00000       0.00000    
      4930 IM1H     247      IM1H     H4       HDR5D    0.195000       1.00800           0   0.00000       0.00000    
      4931 IM1H     247      IM1H     C3       CD2R5D    2.50700       11.6110           0  -1.08300       1.10000    
      4932 IM1H     247      IM1H     DC3      DRUD     -2.55400      0.400000           0   0.00000       0.00000    
      4933 IM1H     247      IM1H     H5       HDR5D    0.192000       1.00800           0   0.00000       0.00000    
      4934 IM1H     247      IM1H     C4       CD2R5E    2.72410       11.6110           0  -1.25300       1.20000    
      4935 IM1H     247      IM1H     DC4      DRUD     -2.74710      0.400000           0   0.00000       0.00000    
      4936 IM1H     247      IM1H     H6       HDR5E    0.203000       1.00800           0   0.00000       0.00000    
      4937 IM1H     247      IM1H     N2       ND2R5C    2.04220       13.6070           0 -0.803000       1.00000    
      4938 IM1H     247      IM1H     DN2      DRUD     -2.19920      0.400000           0   0.00000       0.00000    
      4939 IM1H     247      IM1H     H7       HDP1A    0.363000       1.00800           0   0.00000       0.00000    
      4940 IM1H     247      IM1H     LPN21    LPD       0.00000       0.00000          -1   0.00000       0.00000    
      4941 IM1H     248      IM1H     C1       CD33F     2.48500       11.6110           0  -1.18100       1.10000    
      4942 IM1H     248      IM1H     DC1      DRUD     -2.66700      0.400000           0   0.00000       0.00000    
      4943 IM1H     248      IM1H     H1       HDA3A    0.135000       1.00800           0   0.00000       0.00000    
      4944 IM1H     248      IM1H     H2       HDA3A    0.135000       1.00800           0   0.00000       0.00000    
      4945 IM1H     248      IM1H     H3       HDA3A    0.135000       1.00800           0   0.00000       0.00000    
      4946 IM1H     248      IM1H     N1       ND2R5C    2.35720       13.6070           0 -0.803000       1.00000    
      4947 IM1H     248      IM1H     DN1      DRUD     -2.19920      0.400000           0   0.00000       0.00000    
      4948 IM1H     248      IM1H     C2       CD2R5D    2.44700       11.6110           0  -1.08300       1.10000    
      4949 IM1H     248      IM1H     DC2      DRUD     -2.55400      0.400000           0   0.00000       0.00000    
      4950 IM1H     248      IM1H     H4       HDR5D    0.195000       1.00800           0   0.00000       0.00000    
      4951 IM1H     248      IM1H     C3       CD2R5D    2.50700       11.6110           0  -1.08300       1.10000    
      4952 IM1H     248      IM1H     DC3      DRUD     -2.55400      0.400000           0   0.00000       0.00000    
      4953 IM1H     248      IM1H     H5       HDR5D    0.192000       1.00800           0   0.00000       0.00000    
      4954 IM1H     248      IM1H     C4       CD2R5E    2.72410       11.6110           0  -1.25300       1.20000    
      4955 IM1H     248      IM1H     DC4      DRUD     -2.74710      0.400000           0   0.00000       0.00000    
      4956 IM1H     248      IM1H     H6       HDR5E    0.203000       1.00800           0   0.00000       0.00000    
      4957 IM1H     248      IM1H     N2       ND2R5C    2.04220       13.6070           0 -0.803000       1.00000    
      4958 IM1H     248      IM1H     DN2      DRUD     -2.19920      0.400000           0   0.00000       0.00000    
      4959 IM1H     248      IM1H     H7       HDP1A    0.363000       1.00800           0   0.00000       0.00000    
      4960 IM1H     248      IM1H     LPN21    LPD       0.00000       0.00000          -1   0.00000       0.00000    
      4961 IM1H     249      IM1H     C1       CD33F     2.48500       11.6110           0  -1.18100       1.10000    
      4962 IM1H     249      IM1H     DC1      DRUD     -2.66700      0.400000           0   0.00000       0.00000    
      4963 IM1H     249      IM1H     H1       HDA3A    0.135000       1.00800           0   0.00000       0.00000    
      4964 IM1H     249      IM1H     H2       HDA3A    0.135000       1.00800           0   0.00000       0.00000    
      4965 IM1H     249      IM1H     H3       HDA3A    0.135000       1.00800           0   0.00000       0.00000    
      4966 IM1H     249      IM1H     N1       ND2R5C    2.35720       13.6070           0 -0.803000       1.00000    
      4967 IM1H     249      IM1H     DN1      DRUD     -2.19920      0.400000           0   0.00000       0.00000    
      4968 IM1H     249      IM1H     C2       CD2R5D    2.44700       11.6110           0  -1.08300       1.10000    
      4969 IM1H     249      IM1H     DC2      DRUD     -2.55400      0.400000           0   0.00000       0.00000    
      4970 IM1H     249      IM1H     H4       HDR5D    0.195000       1.00800           0   0.00000       0.00000    
      4971 IM1H     249      IM1H     C3       CD2R5D    2.50700       11.6110           0  -1.08300       1.10000    
      4972 IM1H     249      IM1H     DC3      DRUD     -2.55400      0.400000           0   0.00000       0.00000    
      4973 IM1H     249      IM1H     H5       HDR5D    0.192000       1.00800           0   0.00000       0.00000    
      4974 IM1H     249      IM1H     C4       CD2R5E    2.72410       11.6110           0  -1.25300       1.20000    
      4975 IM1H     249      IM1H     DC4      DRUD     -2.74710      0.400000           0   0.00000       0.00000    
      4976 IM1H     249      IM1H     H6       HDR5E    0.203000       1.00800           0   0.00000       0.00000    
      4977 IM1H     249      IM1H     N2       ND2R5C    2.04220       13.6070           0 -0.803000       1.00000    
      4978 IM1H     249      IM1H     DN2      DRUD     -2.19920      0.400000           0   0.00000       0.00000    
      4979 IM1H     249      IM1H     H7       HDP1A    0.363000       1.00800           0   0.00000       0.00000    
      4980 IM1H     249      IM1H     LPN21    LPD       0.00000       0.00000          -1   0.00000       0.00000    
      4981 IM1H     250      IM1H     C1       CD33F     2.48500       11.6110           0  -1.18100       1.10000    
      4982 IM1H     250      IM1H     DC1      DRUD     -2.66700      0.400000           0   0.00000       0.00000    
      4983 IM1H     250      IM1H     H1       HDA3A    0.135000       1.00800           0   0.00000       0.00000    
      4984 IM1H     250      IM1H     H2       HDA3A    0.135000       1.00800           0   0.00000       0.00000    
      4985 IM1H     250      IM1H     H3       HDA3A    0.135000       1.00800           0   0.00000       0.00000    
      4986 IM1H     250      IM1H     N1       ND2R5C    2.35720       13.6070           0 -0.803000       1.00000    
      4987 IM1H     250      IM1H     DN1      DRUD     -2.19920      0.400000           0   0.00000       0.00000    
      4988 IM1H     250      IM1H     C2       CD2R5D    2.44700       11.6110           0  -1.08300       1.10000    
      4989 IM1H     250      IM1H     DC2      DRUD     -2.55400      0.400000           0   0.00000       0.00000    
      4990 IM1H     250      IM1H     H4       HDR5D    0.195000       1.00800           0   0.00000       0.00000    
      4991 IM1H     250      IM1H     C3       CD2R5D    2.50700       11.6110           0  -1.08300       1.10000    
      4992 IM1H     250      IM1H     DC3      DRUD     -2.55400      0.400000           0   0.00000       0.00000    
      4993 IM1H     250      IM1H     H5       HDR5D    0.192000       1.00800           0   0.00000       0.00000    
      4994 IM1H     250      IM1H     C4       CD2R5E    2.72410       11.6110           0  -1.25300       1.20000    
      4995 IM1H     250      IM1H     DC4      DRUD     -2.74710      0.400000           0   0.00000       0.00000    
      4996 IM1H     250      IM1H     H6       HDR5E    0.203000       1.00800           0   0.00000       0.00000    
      4997 IM1H     250      IM1H     N2       ND2R5C    2.04220       13.6070           0 -0.803000       1.00000    
      4998 IM1H     250      IM1H     DN2      DRUD     -2.19920      0.400000           0   0.00000       0.00000    
      4999 IM1H     250      IM1H     H7       HDP1A    0.363000       1.00800           0   0.00000       0.00000    
      5000 IM1H     250      IM1H     LPN21    LPD       0.00000       0.00000          -1   0.00000       0.00000    
      5001 IM1H     251      IM1H     C1       CD33F     2.48500       11.6110           0  -1.18100       1.10000    
      5002 IM1H     251      IM1H     DC1      DRUD     -2.66700      0.400000           0   0.00000       0.00000    
      5003 IM1H     251      IM1H     H1       HDA3A    0.135000       1.00800           0   0.00000       0.00000    
      5004 IM1H     251      IM1H     H2       HDA3A    0.135000       1.00800           0   0.00000       0.00000    
      5005 IM1H     251      IM1H     H3       HDA3A    0.135000       1.00800           0   0.00000       0.00000    
      5006 IM1H     251      IM1H     N1       ND2R5C    2.35720       13.6070           0 -0.803000       1.00000    
      5007 IM1H     251      IM1H     DN1      DRUD     -2.19920      0.400000           0   0.00000       0.00000    
      5008 IM1H     251      IM1H     C2       CD2R5D    2.44700       11.6110           0  -1.08300       1.10000    
      5009 IM1H     251      IM1H     DC2      DRUD     -2.55400      0.400000           0   0.00000       0.00000    
      5010 IM1H     251      IM1H     H4       HDR5D    0.195000       1.00800           0   0.00000       0.00000    
      5011 IM1H     251      IM1H     C3       CD2R5D    2.50700       11.6110           0  -1.08300       1.10000    
      5012 IM1H     251      IM1H     DC3      DRUD     -2.55400      0.400000           0   0.00000       0.00000    
      5013 IM1H     251      IM1H     H5       HDR5D    0.192000       1.00800           0   0.00000       0.00000    
      5014 IM1H     251      IM1H     C4       CD2R5E    2.72410       11.6110           0  -1.25300       1.20000    
      5015 IM1H     251      IM1H     DC4      DRUD     -2.74710      0.400000           0   0.00000       0.00000    
      5016 IM1H     251      IM1H     H6       HDR5E    0.203000       1.00800           0   0.00000       0.00000    
      5017 IM1H     251      IM1H     N2       ND2R5C    2.04220       13.6070           0 -0.803000       1.00000    
      5018 IM1H     251      IM1H     DN2      DRUD     -2.19920      0.400000           0   0.00000       0.00000    
      5019 IM1H     251      IM1H     H7       HDP1A    0.363000       1.00800           0   0.00000       0.00000    
      5020 IM1H     251      IM1H     LPN21    LPD       0.00000       0.00000          -1   0.00000       0.00000    
      5021 IM1H     252      IM1H     C1       CD33F     2.48500       11.6110           0  -1.18100       1.10000    
      5022 IM1H     252      IM1H     DC1      DRUD     -2.66700      0.400000           0   0.00000       0.00000    
      5023 IM1H     252      IM1H     H1       HDA3A    0.135000       1.00800           0   0.00000       0.00000    
      5024 IM1H     252      IM1H     H2       HDA3A    0.135000       1.00800           0   0.00000       0.00000    
      5025 IM1H     252      IM1H     H3       HDA3A    0.135000       1.00800           0   0.00000       0.00000    
      5026 IM1H     252      IM1H     N1       ND2R5C    2.35720       13.6070           0 -0.803000       1.00000    
      5027 IM1H     252      IM1H     DN1      DRUD     -2.19920      0.400000           0   0.00000       0.00000    
      5028 IM1H     252      IM1H     C2       CD2R5D    2.44700       11.6110           0  -1.08300       1.10000    
      5029 IM1H     252      IM1H     DC2      DRUD     -2.55400      0.400000           0   0.00000       0.00000    
      5030 IM1H     252      IM1H     H4       HDR5D    0.195000       1.00800           0   0.00000       0.00000    
      5031 IM1H     252      IM1H     C3       CD2R5D    2.50700       11.6110           0  -1.08300       1.10000    
      5032 IM1H     252      IM1H     DC3      DRUD     -2.55400      0.400000           0   0.00000       0.00000    
      5033 IM1H     252      IM1H     H5       HDR5D    0.192000       1.00800           0   0.00000       0.00000    
      5034 IM1H     252      IM1H     C4       CD2R5E    2.72410       11.6110           0  -1.25300       1.20000    
      5035 IM1H     252      IM1H     DC4      DRUD     -2.74710      0.400000           0   0.00000       0.00000    
      5036 IM1H     252      IM1H     H6       HDR5E    0.203000       1.00800           0   0.00000       0.00000    
      5037 IM1H     252      IM1H     N2       ND2R5C    2.04220       13.6070           0 -0.803000       1.00000    
      5038 IM1H     252      IM1H     DN2      DRUD     -2.19920      0.400000           0   0.00000       0.00000    
      5039 IM1H     252      IM1H     H7       HDP1A    0.363000       1.00800           0   0.00000       0.00000    
      5040 IM1H     252      IM1H     LPN21    LPD       0.00000       0.00000          -1   0.00000       0.00000    
      5041 IM1H     253      IM1H     C1       CD33F     2.48500       11.6110           0  -1.18100       1.10000    
      5042 IM1H     253      IM1H     DC1      DRUD     -2.66700      0.400000           0   0.00000       0.00000    
      5043 IM1H     253      IM1H     H1       HDA3A    0.135000       1.00800           0   0.00000       0.00000    
      5044 IM1H     253      IM1H     H2       HDA3A    0.135000       1.00800           0   0.00000       0.00000    
      5045 IM1H     253      IM1H     H3       HDA3A    0.135000       1.00800           0   0.00000       0.00000    
      5046 IM1H     253      IM1H     N1       ND2R5C    2.35720       13.6070           0 -0.803000       1.00000    
      5047 IM1H     253      IM1H     DN1      DRUD     -2.19920      0.400000           0   0.00000       0.00000    
      5048 IM1H     253      IM1H     C2       CD2R5D    2.44700       11.6110           0  -1.08300       1.10000    
      5049 IM1H     253      IM1H     DC2      DRUD     -2.55400      0.400000           0   0.00000       0.00000    
      5050 IM1H     253      IM1H     H4       HDR5D    0.195000       1.00800           0   0.00000       0.00000    
      5051 IM1H     253      IM1H     C3       CD2R5D    2.50700       11.6110           0  -1.08300       1.10000    
      5052 IM1H     253      IM1H     DC3      DRUD     -2.55400      0.400000           0   0.00000       0.00000    
      5053 IM1H     253      IM1H     H5       HDR5D    0.192000       1.00800           0   0.00000       0.00000    
      5054 IM1H     253      IM1H     C4       CD2R5E    2.72410       11.6110           0  -1.25300       1.20000    
      5055 IM1H     253      IM1H     DC4      DRUD     -2.74710      0.400000           0   0.00000       0.00000    
      5056 IM1H     253      IM1H     H6       HDR5E    0.203000       1.00800           0   0.00000       0.00000    
      5057 IM1H     253      IM1H     N2       ND2R5C    2.04220       13.6070           0 -0.803000       1.00000    
      5058 IM1H     253      IM1H     DN2      DRUD     -2.19920      0.400000           0   0.00000       0.00000    
      5059 IM1H     253      IM1H     H7       HDP1A    0.363000       1.00800           0   0.00000       0.00000    
      5060 IM1H     253      IM1H     LPN21    LPD       0.00000       0.00000          -1   0.00000       0.00000    
      5061 IM1H     254      IM1H     C1       CD33F     2.48500       11.6110           0  -1.18100       1.10000    
      5062 IM1H     254      IM1H     DC1      DRUD     -2.66700      0.400000           0   0.00000       0.00000    
      5063 IM1H     254      IM1H     H1       HDA3A    0.135000       1.00800           0   0.00000       0.00000    
      5064 IM1H     254      IM1H     H2       HDA3A    0.135000       1.00800           0   0.00000       0.00000    
      5065 IM1H     254      IM1H     H3       HDA3A    0.135000       1.00800           0   0.00000       0.00000    
      5066 IM1H     254      IM1H     N1       ND2R5C    2.35720       13.6070           0 -0.803000       1.00000    
      5067 IM1H     254      IM1H     DN1      DRUD     -2.19920      0.400000           0   0.00000       0.00000    
      5068 IM1H     254      IM1H     C2       CD2R5D    2.44700       11.6110           0  -1.08300       1.10000    
      5069 IM1H     254      IM1H     DC2      DRUD     -2.55400      0.400000           0   0.00000       0.00000    
      5070 IM1H     254      IM1H     H4       HDR5D    0.195000       1.00800           0   0.00000       0.00000    
      5071 IM1H     254      IM1H     C3       CD2R5D    2.50700       11.6110           0  -1.08300       1.10000    
      5072 IM1H     254      IM1H     DC3      DRUD     -2.55400      0.400000           0   0.00000       0.00000    
      5073 IM1H     254      IM1H     H5       HDR5D    0.192000       1.00800           0   0.00000       0.00000    
      5074 IM1H     254      IM1H     C4       CD2R5E    2.72410       11.6110           0  -1.25300       1.20000    
      5075 IM1H     254      IM1H     DC4      DRUD     -2.74710      0.400000           0   0.00000       0.00000    
      5076 IM1H     254      IM1H     H6       HDR5E    0.203000       1.00800           0   0.00000       0.00000    
      5077 IM1H     254      IM1H     N2       ND2R5C    2.04220       13.6070           0 -0.803000       1.00000    
      5078 IM1H     254      IM1H     DN2      DRUD     -2.19920      0.400000           0   0.00000       0.00000    
      5079 IM1H     254      IM1H     H7       HDP1A    0.363000       1.00800           0   0.00000       0.00000    
      5080 IM1H     254      IM1H     LPN21    LPD       0.00000       0.00000          -1   0.00000       0.00000    
      5081 IM1H     255      IM1H     C1       CD33F     2.48500       11.6110           0  -1.18100       1.10000    
      5082 IM1H     255      IM1H     DC1      DRUD     -2.66700      0.400000           0   0.00000       0.00000    
      5083 IM1H     255      IM1H     H1       HDA3A    0.135000       1.00800           0   0.00000       0.00000    
      5084 IM1H     255      IM1H     H2       HDA3A    0.135000       1.00800           0   0.00000       0.00000    
      5085 IM1H     255      IM1H     H3       HDA3A    0.135000       1.00800           0   0.00000       0.00000    
      5086 IM1H     255      IM1H     N1       ND2R5C    2.35720       13.6070           0 -0.803000       1.00000    
      5087 IM1H     255      IM1H     DN1      DRUD     -2.19920      0.400000           0   0.00000       0.00000    
      5088 IM1H     255      IM1H     C2       CD2R5D    2.44700       11.6110           0  -1.08300       1.10000    
      5089 IM1H     255      IM1H     DC2      DRUD     -2.55400      0.400000           0   0.00000       0.00000    
      5090 IM1H     255      IM1H     H4       HDR5D    0.195000       1.00800           0   0.00000       0.00000    
      5091 IM1H     255      IM1H     C3       CD2R5D    2.50700       11.6110           0  -1.08300       1.10000    
      5092 IM1H     255      IM1H     DC3      DRUD     -2.55400      0.400000           0   0.00000       0.00000    
      5093 IM1H     255      IM1H     H5       HDR5D    0.192000       1.00800           0   0.00000       0.00000    
      5094 IM1H     255      IM1H     C4       CD2R5E    2.72410       11.6110           0  -1.25300       1.20000    
      5095 IM1H     255      IM1H     DC4      DRUD     -2.74710      0.400000           0   0.00000       0.00000    
      5096 IM1H     255      IM1H     H6       HDR5E    0.203000       1.00800           0   0.00000       0.00000    
      5097 IM1H     255      IM1H     N2       ND2R5C    2.04220       13.6070           0 -0.803000       1.00000    
      5098 IM1H     255      IM1H     DN2      DRUD     -2.19920      0.400000           0   0.00000       0.00000    
      5099 IM1H     255      IM1H     H7       HDP1A    0.363000       1.00800           0   0.00000       0.00000    
      5100 IM1H     255      IM1H     LPN21    LPD       0.00000       0.00000          -1   0.00000       0.00000    
      5101 IM1H     256      IM1H     C1       CD33F     2.48500       11.6110           0  -1.18100       1.10000    
      5102 IM1H     256      IM1H     DC1      DRUD     -2.66700      0.400000           0   0.00000       0.00000    
      5103 IM1H     256      IM1H     H1       HDA3A    0.135000       1.00800           0   0.00000       0.00000    
      5104 IM1H     256      IM1H     H2       HDA3A    0.135000       1.00800           0   0.00000       0.00000    
      5105 IM1H     256      IM1H     H3       HDA3A    0.135000       1.00800           0   0.00000       0.00000    
      5106 IM1H     256      IM1H     N1       ND2R5C    2.35720       13.6070           0 -0.803000       1.00000    
      5107 IM1H     256      IM1H     DN1      DRUD     -2.19920      0.400000           0   0.00000       0.00000    
      5108 IM1H     256      IM1H     C2       CD2R5D    2.44700       11.6110           0  -1.08300       1.10000    
      5109 IM1H     256      IM1H     DC2      DRUD     -2.55400      0.400000           0   0.00000       0.00000    
      5110 IM1H     256      IM1H     H4       HDR5D    0.195000       1.00800           0   0.00000       0.00000    
      5111 IM1H     256      IM1H     C3       CD2R5D    2.50700       11.6110           0  -1.08300       1.10000    
      5112 IM1H     256      IM1H     DC3      DRUD     -2.55400      0.400000           0   0.00000       0.00000    
      5113 IM1H     256      IM1H     H5       HDR5D    0.192000       1.00800           0   0.00000       0.00000    
      5114 IM1H     256      IM1H     C4       CD2R5E    2.72410       11.6110           0  -1.25300       1.20000    
      5115 IM1H     256      IM1H     DC4      DRUD     -2.74710      0.400000           0   0.00000       0.00000    
      5116 IM1H     256      IM1H     H6       HDR5E    0.203000       1.00800           0   0.00000       0.00000    
      5117 IM1H     256      IM1H     N2       ND2R5C    2.04220       13.6070           0 -0.803000       1.00000    
      5118 IM1H     256      IM1H     DN2      DRUD     -2.19920      0.400000           0   0.00000       0.00000    
      5119 IM1H     256      IM1H     H7       HDP1A    0.363000       1.00800           0   0.00000       0.00000    
      5120 IM1H     256      IM1H     LPN21    LPD       0.00000       0.00000          -1   0.00000       0.00000    
      5121 IM1H     257      IM1H     C1       CD33F     2.48500       11.6110           0  -1.18100       1.10000    
      5122 IM1H     257      IM1H     DC1      DRUD     -2.66700      0.400000           0   0.00000       0.00000    
      5123 IM1H     257      IM1H     H1       HDA3A    0.135000       1.00800           0   0.00000       0.00000    
      5124 IM1H     257      IM1H     H2       HDA3A    0.135000       1.00800           0   0.00000       0.00000    
      5125 IM1H     257      IM1H     H3       HDA3A    0.135000       1.00800           0   0.00000       0.00000    
      5126 IM1H     257      IM1H     N1       ND2R5C    2.35720       13.6070           0 -0.803000       1.00000    
      5127 IM1H     257      IM1H     DN1      DRUD     -2.19920      0.400000           0   0.00000       0.00000    
      5128 IM1H     257      IM1H     C2       CD2R5D    2.44700       11.6110           0  -1.08300       1.10000    
      5129 IM1H     257      IM1H     DC2      DRUD     -2.55400      0.400000           0   0.00000       0.00000    
      5130 IM1H     257      IM1H     H4       HDR5D    0.195000       1.00800           0   0.00000       0.00000    
      5131 IM1H     257      IM1H     C3       CD2R5D    2.50700       11.6110           0  -1.08300       1.10000    
      5132 IM1H     257      IM1H     DC3      DRUD     -2.55400      0.400000           0   0.00000       0.00000    
      5133 IM1H     257      IM1H     H5       HDR5D    0.192000       1.00800           0   0.00000       0.00000    
      5134 IM1H     257      IM1H     C4       CD2R5E    2.72410       11.6110           0  -1.25300       1.20000    
      5135 IM1H     257      IM1H     DC4      DRUD     -2.74710      0.400000           0   0.00000       0.00000    
      5136 IM1H     257      IM1H     H6       HDR5E    0.203000       1.00800           0   0.00000       0.00000    
      5137 IM1H     257      IM1H     N2       ND2R5C    2.04220       13.6070           0 -0.803000       1.00000    
      5138 IM1H     257      IM1H     DN2      DRUD     -2.19920      0.400000           0   0.00000       0.00000    
      5139 IM1H     257      IM1H     H7       HDP1A    0.363000       1.00800           0   0.00000       0.00000    
      5140 IM1H     257      IM1H     LPN21    LPD       0.00000       0.00000          -1   0.00000       0.00000    
      5141 IM1H     258      IM1H     C1       CD33F     2.48500       11.6110           0  -1.18100       1.10000    
      5142 IM1H     258      IM1H     DC1      DRUD     -2.66700      0.400000           0   0.00000       0.00000    
      5143 IM1H     258      IM1H     H1       HDA3A    0.135000       1.00800           0   0.00000       0.00000    
      5144 IM1H     258      IM1H     H2       HDA3A    0.135000       1.00800           0   0.00000       0.00000    
      5145 IM1H     258      IM1H     H3       HDA3A    0.135000       1.00800           0   0.00000       0.00000    
      5146 IM1H     258      IM1H     N1       ND2R5C    2.35720       13.6070           0 -0.803000       1.00000    
      5147 IM1H     258      IM1H     DN1      DRUD     -2.19920      0.400000           0   0.00000       0.00000    
      5148 IM1H     258      IM1H     C2       CD2R5D    2.44700       11.6110           0  -1.08300       1.10000    
      5149 IM1H     258      IM1H     DC2      DRUD     -2.55400      0.400000           0   0.00000       0.00000    
      5150 IM1H     258      IM1H     H4       HDR5D    0.195000       1.00800           0   0.00000       0.00000    
      5151 IM1H     258      IM1H     C3       CD2R5D    2.50700       11.6110           0  -1.08300       1.10000    
      5152 IM1H     258      IM1H     DC3      DRUD     -2.55400      0.400000           0   0.00000       0.00000    
      5153 IM1H     258      IM1H     H5       HDR5D    0.192000       1.00800           0   0.00000       0.00000    
      5154 IM1H     258      IM1H     C4       CD2R5E    2.72410       11.6110           0  -1.25300       1.20000    
      5155 IM1H     258      IM1H     DC4      DRUD     -2.74710      0.400000           0   0.00000       0.00000    
      5156 IM1H     258      IM1H     H6       HDR5E    0.203000       1.00800           0   0.00000       0.00000    
      5157 IM1H     258      IM1H     N2       ND2R5C    2.04220       13.6070           0 -0.803000       1.00000    
      5158 IM1H     258      IM1H     DN2      DRUD     -2.19920      0.400000           0   0.00000       0.00000    
      5159 IM1H     258      IM1H     H7       HDP1A    0.363000       1.00800           0   0.00000       0.00000    
      5160 IM1H     258      IM1H     LPN21    LPD       0.00000       0.00000          -1   0.00000       0.00000    
      5161 IM1H     259      IM1H     C1       CD33F     2.48500       11.6110           0  -1.18100       1.10000    
      5162 IM1H     259      IM1H     DC1      DRUD     -2.66700      0.400000           0   0.00000       0.00000    
      5163 IM1H     259      IM1H     H1       HDA3A    0.135000       1.00800           0   0.00000       0.00000    
      5164 IM1H     259      IM1H     H2       HDA3A    0.135000       1.00800           0   0.00000       0.00000    
      5165 IM1H     259      IM1H     H3       HDA3A    0.135000       1.00800           0   0.00000       0.00000    
      5166 IM1H     259      IM1H     N1       ND2R5C    2.35720       13.6070           0 -0.803000       1.00000    
      5167 IM1H     259      IM1H     DN1      DRUD     -2.19920      0.400000           0   0.00000       0.00000    
      5168 IM1H     259      IM1H     C2       CD2R5D    2.44700       11.6110           0  -1.08300       1.10000    
      5169 IM1H     259      IM1H     DC2      DRUD     -2.55400      0.400000           0   0.00000       0.00000    
      5170 IM1H     259      IM1H     H4       HDR5D    0.195000       1.00800           0   0.00000       0.00000    
      5171 IM1H     259      IM1H     C3       CD2R5D    2.50700       11.6110           0  -1.08300       1.10000    
      5172 IM1H     259      IM1H     DC3      DRUD     -2.55400      0.400000           0   0.00000       0.00000    
      5173 IM1H     259      IM1H     H5       HDR5D    0.192000       1.00800           0   0.00000       0.00000    
      5174 IM1H     259      IM1H     C4       CD2R5E    2.72410       11.6110           0  -1.25300       1.20000    
      5175 IM1H     259      IM1H     DC4      DRUD     -2.74710      0.400000           0   0.00000       0.00000    
      5176 IM1H     259      IM1H     H6       HDR5E    0.203000       1.00800           0   0.00000       0.00000    
      5177 IM1H     259      IM1H     N2       ND2R5C    2.04220       13.6070           0 -0.803000       1.00000    
      5178 IM1H     259      IM1H     DN2      DRUD     -2.19920      0.400000           0   0.00000       0.00000    
      5179 IM1H     259      IM1H     H7       HDP1A    0.363000       1.00800           0   0.00000       0.00000    
      5180 IM1H     259      IM1H     LPN21    LPD       0.00000       0.00000          -1   0.00000       0.00000    
      5181 IM1H     260      IM1H     C1       CD33F     2.48500       11.6110           0  -1.18100       1.10000    
      5182 IM1H     260      IM1H     DC1      DRUD     -2.66700      0.400000           0   0.00000       0.00000    
      5183 IM1H     260      IM1H     H1       HDA3A    0.135000       1.00800           0   0.00000       0.00000    
      5184 IM1H     260      IM1H     H2       HDA3A    0.135000       1.00800           0   0.00000       0.00000    
      5185 IM1H     260      IM1H     H3       HDA3A    0.135000       1.00800           0   0.00000       0.00000    
      5186 IM1H     260      IM1H     N1       ND2R5C    2.35720       13.6070           0 -0.803000       1.00000    
      5187 IM1H     260      IM1H     DN1      DRUD     -2.19920      0.400000           0   0.00000       0.00000    
      5188 IM1H     260      IM1H     C2       CD2R5D    2.44700       11.6110           0  -1.08300       1.10000    
      5189 IM1H     260      IM1H     DC2      DRUD     -2.55400      0.400000           0   0.00000       0.00000    
      5190 IM1H     260      IM1H     H4       HDR5D    0.195000       1.00800           0   0.00000       0.00000    
      5191 IM1H     260      IM1H     C3       CD2R5D    2.50700       11.6110           0  -1.08300       1.10000    
      5192 IM1H     260      IM1H     DC3      DRUD     -2.55400      0.400000           0   0.00000       0.00000    
      5193 IM1H     260      IM1H     H5       HDR5D    0.192000       1.00800           0   0.00000       0.00000    
      5194 IM1H     260      IM1H     C4       CD2R5E    2.72410       11.6110           0  -1.25300       1.20000    
      5195 IM1H     260      IM1H     DC4      DRUD     -2.74710      0.400000           0   0.00000       0.00000    
      5196 IM1H     260      IM1H     H6       HDR5E    0.203000       1.00800           0   0.00000       0.00000    
      5197 IM1H     260      IM1H     N2       ND2R5C    2.04220       13.6070           0 -0.803000       1.00000    
      5198 IM1H     260      IM1H     DN2      DRUD     -2.19920      0.400000           0   0.00000       0.00000    
      5199 IM1H     260      IM1H     H7       HDP1A    0.363000       1.00800           0   0.00000       0.00000    
      5200 IM1H     260      IM1H     LPN21    LPD       0.00000       0.00000          -1   0.00000       0.00000    
      5201 IM1H     261      IM1H     C1       CD33F     2.48500       11.6110           0  -1.18100       1.10000    
      5202 IM1H     261      IM1H     DC1      DRUD     -2.66700      0.400000           0   0.00000       0.00000    
      5203 IM1H     261      IM1H     H1       HDA3A    0.135000       1.00800           0   0.00000       0.00000    
      5204 IM1H     261      IM1H     H2       HDA3A    0.135000       1.00800           0   0.00000       0.00000    
      5205 IM1H     261      IM1H     H3       HDA3A    0.135000       1.00800           0   0.00000       0.00000    
      5206 IM1H     261      IM1H     N1       ND2R5C    2.35720       13.6070           0 -0.803000       1.00000    
      5207 IM1H     261      IM1H     DN1      DRUD     -2.19920      0.400000           0   0.00000       0.00000    
      5208 IM1H     261      IM1H     C2       CD2R5D    2.44700       11.6110           0  -1.08300       1.10000    
      5209 IM1H     261      IM1H     DC2      DRUD     -2.55400      0.400000           0   0.00000       0.00000    
      5210 IM1H     261      IM1H     H4       HDR5D    0.195000       1.00800           0   0.00000       0.00000    
      5211 IM1H     261      IM1H     C3       CD2R5D    2.50700       11.6110           0  -1.08300       1.10000    
      5212 IM1H     261      IM1H     DC3      DRUD     -2.55400      0.400000           0   0.00000       0.00000    
      5213 IM1H     261      IM1H     H5       HDR5D    0.192000       1.00800           0   0.00000       0.00000    
      5214 IM1H     261      IM1H     C4       CD2R5E    2.72410       11.6110           0  -1.25300       1.20000    
      5215 IM1H     261      IM1H     DC4      DRUD     -2.74710      0.400000           0   0.00000       0.00000    
      5216 IM1H     261      IM1H     H6       HDR5E    0.203000       1.00800           0   0.00000       0.00000    
      5217 IM1H     261      IM1H     N2       ND2R5C    2.04220       13.6070           0 -0.803000       1.00000    
      5218 IM1H     261      IM1H     DN2      DRUD     -2.19920      0.400000           0   0.00000       0.00000    
      5219 IM1H     261      IM1H     H7       HDP1A    0.363000       1.00800           0   0.00000       0.00000    
      5220 IM1H     261      IM1H     LPN21    LPD       0.00000       0.00000          -1   0.00000       0.00000    
      5221 IM1H     262      IM1H     C1       CD33F     2.48500       11.6110           0  -1.18100       1.10000    
      5222 IM1H     262      IM1H     DC1      DRUD     -2.66700      0.400000           0   0.00000       0.00000    
      5223 IM1H     262      IM1H     H1       HDA3A    0.135000       1.00800           0   0.00000       0.00000    
      5224 IM1H     262      IM1H     H2       HDA3A    0.135000       1.00800           0   0.00000       0.00000    
      5225 IM1H     262      IM1H     H3       HDA3A    0.135000       1.00800           0   0.00000       0.00000    
      5226 IM1H     262      IM1H     N1       ND2R5C    2.35720       13.6070           0 -0.803000       1.00000    
      5227 IM1H     262      IM1H     DN1      DRUD     -2.19920      0.400000           0   0.00000       0.00000    
      5228 IM1H     262      IM1H     C2       CD2R5D    2.44700       11.6110           0  -1.08300       1.10000    
      5229 IM1H     262      IM1H     DC2      DRUD     -2.55400      0.400000           0   0.00000       0.00000    
      5230 IM1H     262      IM1H     H4       HDR5D    0.195000       1.00800           0   0.00000       0.00000    
      5231 IM1H     262      IM1H     C3       CD2R5D    2.50700       11.6110           0  -1.08300       1.10000    
      5232 IM1H     262      IM1H     DC3      DRUD     -2.55400      0.400000           0   0.00000       0.00000    
      5233 IM1H     262      IM1H     H5       HDR5D    0.192000       1.00800           0   0.00000       0.00000    
      5234 IM1H     262      IM1H     C4       CD2R5E    2.72410       11.6110           0  -1.25300       1.20000    
      5235 IM1H     262      IM1H     DC4      DRUD     -2.74710      0.400000           0   0.00000       0.00000    
      5236 IM1H     262      IM1H     H6       HDR5E    0.203000       1.00800           0   0.00000       0.00000    
      5237 IM1H     262      IM1H     N2       ND2R5C    2.04220       13.6070           0 -0.803000       1.00000    
      5238 IM1H     262      IM1H     DN2      DRUD     -2.19920      0.400000           0   0.00000       0.00000    
      5239 IM1H     262      IM1H     H7       HDP1A    0.363000       1.00800           0   0.00000       0.00000    
      5240 IM1H     262      IM1H     LPN21    LPD       0.00000       0.00000          -1   0.00000       0.00000    
      5241 IM1H     263      IM1H     C1       CD33F     2.48500       11.6110           0  -1.18100       1.10000    
      5242 IM1H     263      IM1H     DC1      DRUD     -2.66700      0.400000           0   0.00000       0.00000    
      5243 IM1H     263      IM1H     H1       HDA3A    0.135000       1.00800           0   0.00000       0.00000    
      5244 IM1H     263      IM1H     H2       HDA3A    0.135000       1.00800           0   0.00000       0.00000    
      5245 IM1H     263      IM1H     H3       HDA3A    0.135000       1.00800           0   0.00000       0.00000    
      5246 IM1H     263      IM1H     N1       ND2R5C    2.35720       13.6070           0 -0.803000       1.00000    
      5247 IM1H     263      IM1H     DN1      DRUD     -2.19920      0.400000           0   0.00000       0.00000    
      5248 IM1H     263      IM1H     C2       CD2R5D    2.44700       11.6110           0  -1.08300       1.10000    
      5249 IM1H     263      IM1H     DC2      DRUD     -2.55400      0.400000           0   0.00000       0.00000    
      5250 IM1H     263      IM1H     H4       HDR5D    0.195000       1.00800           0   0.00000       0.00000    
      5251 IM1H     263      IM1H     C3       CD2R5D    2.50700       11.6110           0  -1.08300       1.10000    
      5252 IM1H     263      IM1H     DC3      DRUD     -2.55400      0.400000           0   0.00000       0.00000    
      5253 IM1H     263      IM1H     H5       HDR5D    0.192000       1.00800           0   0.00000       0.00000    
      5254 IM1H     263      IM1H     C4       CD2R5E    2.72410       11.6110           0  -1.25300       1.20000    
      5255 IM1H     263      IM1H     DC4      DRUD     -2.74710      0.400000           0   0.00000       0.00000    
      5256 IM1H     263      IM1H     H6       HDR5E    0.203000       1.00800           0   0.00000       0.00000    
      5257 IM1H     263      IM1H     N2       ND2R5C    2.04220       13.6070           0 -0.803000       1.00000    
      5258 IM1H     263      IM1H     DN2      DRUD     -2.19920      0.400000           0   0.00000       0.00000    
      5259 IM1H     263      IM1H     H7       HDP1A    0.363000       1.00800           0   0.00000       0.00000    
      5260 IM1H     263      IM1H     LPN21    LPD       0.00000       0.00000          -1   0.00000       0.00000    
      5261 IM1H     264      IM1H     C1       CD33F     2.48500       11.6110           0  -1.18100       1.10000    
      5262 IM1H     264      IM1H     DC1      DRUD     -2.66700      0.400000           0   0.00000       0.00000    
      5263 IM1H     264      IM1H     H1       HDA3A    0.135000       1.00800           0   0.00000       0.00000    
      5264 IM1H     264      IM1H     H2       HDA3A    0.135000       1.00800           0   0.00000       0.00000    
      5265 IM1H     264      IM1H     H3       HDA3A    0.135000       1.00800           0   0.00000       0.00000    
      5266 IM1H     264      IM1H     N1       ND2R5C    2.35720       13.6070           0 -0.803000       1.00000    
      5267 IM1H     264      IM1H     DN1      DRUD     -2.19920      0.400000           0   0.00000       0.00000    
      5268 IM1H     264      IM1H     C2       CD2R5D    2.44700       11.6110           0  -1.08300       1.10000    
      5269 IM1H     264      IM1H     DC2      DRUD     -2.55400      0.400000           0   0.00000       0.00000    
      5270 IM1H     264      IM1H     H4       HDR5D    0.195000       1.00800           0   0.00000       0.00000    
      5271 IM1H     264      IM1H     C3       CD2R5D    2.50700       11.6110           0  -1.08300       1.10000    
      5272 IM1H     264      IM1H     DC3      DRUD     -2.55400      0.400000           0   0.00000       0.00000    
      5273 IM1H     264      IM1H     H5       HDR5D    0.192000       1.00800           0   0.00000       0.00000    
      5274 IM1H     264      IM1H     C4       CD2R5E    2.72410       11.6110           0  -1.25300       1.20000    
      5275 IM1H     264      IM1H     DC4      DRUD     -2.74710      0.400000           0   0.00000       0.00000    
      5276 IM1H     264      IM1H     H6       HDR5E    0.203000       1.00800           0   0.00000       0.00000    
      5277 IM1H     264      IM1H     N2       ND2R5C    2.04220       13.6070           0 -0.803000       1.00000    
      5278 IM1H     264      IM1H     DN2      DRUD     -2.19920      0.400000           0   0.00000       0.00000    
      5279 IM1H     264      IM1H     H7       HDP1A    0.363000       1.00800           0   0.00000       0.00000    
      5280 IM1H     264      IM1H     LPN21    LPD       0.00000       0.00000          -1   0.00000       0.00000    
      5281 IM1H     265      IM1H     C1       CD33F     2.48500       11.6110           0  -1.18100       1.10000    
      5282 IM1H     265      IM1H     DC1      DRUD     -2.66700      0.400000           0   0.00000       0.00000    
      5283 IM1H     265      IM1H     H1       HDA3A    0.135000       1.00800           0   0.00000       0.00000    
      5284 IM1H     265      IM1H     H2       HDA3A    0.135000       1.00800           0   0.00000       0.00000    
      5285 IM1H     265      IM1H     H3       HDA3A    0.135000       1.00800           0   0.00000       0.00000    
      5286 IM1H     265      IM1H     N1       ND2R5C    2.35720       13.6070           0 -0.803000       1.00000    
      5287 IM1H     265      IM1H     DN1      DRUD     -2.19920      0.400000           0   0.00000       0.00000    
      5288 IM1H     265      IM1H     C2       CD2R5D    2.44700       11.6110           0  -1.08300       1.10000    
      5289 IM1H     265      IM1H     DC2      DRUD     -2.55400      0.400000           0   0.00000       0.00000    
      5290 IM1H     265      IM1H     H4       HDR5D    0.195000       1.00800           0   0.00000       0.00000    
      5291 IM1H     265      IM1H     C3       CD2R5D    2.50700       11.6110           0  -1.08300       1.10000    
      5292 IM1H     265      IM1H     DC3      DRUD     -2.55400      0.400000           0   0.00000       0.00000    
      5293 IM1H     265      IM1H     H5       HDR5D    0.192000       1.00800           0   0.00000       0.00000    
      5294 IM1H     265      IM1H     C4       CD2R5E    2.72410       11.6110           0  -1.25300       1.20000    
      5295 IM1H     265      IM1H     DC4      DRUD     -2.74710      0.400000           0   0.00000       0.00000    
      5296 IM1H     265      IM1H     H6       HDR5E    0.203000       1.00800           0   0.00000       0.00000    
      5297 IM1H     265      IM1H     N2       ND2R5C    2.04220       13.6070           0 -0.803000       1.00000    
      5298 IM1H     265      IM1H     DN2      DRUD     -2.19920      0.400000           0   0.00000       0.00000    
      5299 IM1H     265      IM1H     H7       HDP1A    0.363000       1.00800           0   0.00000       0.00000    
      5300 IM1H     265      IM1H     LPN21    LPD       0.00000       0.00000          -1   0.00000       0.00000    
      5301 IM1H     266      IM1H     C1       CD33F     2.48500       11.6110           0  -1.18100       1.10000    
      5302 IM1H     266      IM1H     DC1      DRUD     -2.66700      0.400000           0   0.00000       0.00000    
      5303 IM1H     266      IM1H     H1       HDA3A    0.135000       1.00800           0   0.00000       0.00000    
      5304 IM1H     266      IM1H     H2       HDA3A    0.135000       1.00800           0   0.00000       0.00000    
      5305 IM1H     266      IM1H     H3       HDA3A    0.135000       1.00800           0   0.00000       0.00000    
      5306 IM1H     266      IM1H     N1       ND2R5C    2.35720       13.6070           0 -0.803000       1.00000    
      5307 IM1H     266      IM1H     DN1      DRUD     -2.19920      0.400000           0   0.00000       0.00000    
      5308 IM1H     266      IM1H     C2       CD2R5D    2.44700       11.6110           0  -1.08300       1.10000    
      5309 IM1H     266      IM1H     DC2      DRUD     -2.55400      0.400000           0   0.00000       0.00000    
      5310 IM1H     266      IM1H     H4       HDR5D    0.195000       1.00800           0   0.00000       0.00000    
      5311 IM1H     266      IM1H     C3       CD2R5D    2.50700       11.6110           0  -1.08300       1.10000    
      5312 IM1H     266      IM1H     DC3      DRUD     -2.55400      0.400000           0   0.00000       0.00000    
      5313 IM1H     266      IM1H     H5       HDR5D    0.192000       1.00800           0   0.00000       0.00000    
      5314 IM1H     266      IM1H     C4       CD2R5E    2.72410       11.6110           0  -1.25300       1.20000    
      5315 IM1H     266      IM1H     DC4      DRUD     -2.74710      0.400000           0   0.00000       0.00000    
      5316 IM1H     266      IM1H     H6       HDR5E    0.203000       1.00800           0   0.00000       0.00000    
      5317 IM1H     266      IM1H     N2       ND2R5C    2.04220       13.6070           0 -0.803000       1.00000    
      5318 IM1H     266      IM1H     DN2      DRUD     -2.19920      0.400000           0   0.00000       0.00000    
      5319 IM1H     266      IM1H     H7       HDP1A    0.363000       1.00800           0   0.00000       0.00000    
      5320 IM1H     266      IM1H     LPN21    LPD       0.00000       0.00000          -1   0.00000       0.00000    
      5321 IM1H     267      IM1H     C1       CD33F     2.48500       11.6110           0  -1.18100       1.10000    
      5322 IM1H     267      IM1H     DC1      DRUD     -2.66700      0.400000           0   0.00000       0.00000    
      5323 IM1H     267      IM1H     H1       HDA3A    0.135000       1.00800           0   0.00000       0.00000    
      5324 IM1H     267      IM1H     H2       HDA3A    0.135000       1.00800           0   0.00000       0.00000    
      5325 IM1H     267      IM1H     H3       HDA3A    0.135000       1.00800           0   0.00000       0.00000    
      5326 IM1H     267      IM1H     N1       ND2R5C    2.35720       13.6070           0 -0.803000       1.00000    
      5327 IM1H     267      IM1H     DN1      DRUD     -2.19920      0.400000           0   0.00000       0.00000    
      5328 IM1H     267      IM1H     C2       CD2R5D    2.44700       11.6110           0  -1.08300       1.10000    
      5329 IM1H     267      IM1H     DC2      DRUD     -2.55400      0.400000           0   0.00000       0.00000    
      5330 IM1H     267      IM1H     H4       HDR5D    0.195000       1.00800           0   0.00000       0.00000    
      5331 IM1H     267      IM1H     C3       CD2R5D    2.50700       11.6110           0  -1.08300       1.10000    
      5332 IM1H     267      IM1H     DC3      DRUD     -2.55400      0.400000           0   0.00000       0.00000    
      5333 IM1H     267      IM1H     H5       HDR5D    0.192000       1.00800           0   0.00000       0.00000    
      5334 IM1H     267      IM1H     C4       CD2R5E    2.72410       11.6110           0  -1.25300       1.20000    
      5335 IM1H     267      IM1H     DC4      DRUD     -2.74710      0.400000           0   0.00000       0.00000    
      5336 IM1H     267      IM1H     H6       HDR5E    0.203000       1.00800           0   0.00000       0.00000    
      5337 IM1H     267      IM1H     N2       ND2R5C    2.04220       13.6070           0 -0.803000       1.00000    
      5338 IM1H     267      IM1H     DN2      DRUD     -2.19920      0.400000           0   0.00000       0.00000    
      5339 IM1H     267      IM1H     H7       HDP1A    0.363000       1.00800           0   0.00000       0.00000    
      5340 IM1H     267      IM1H     LPN21    LPD       0.00000       0.00000          -1   0.00000       0.00000    
      5341 IM1H     268      IM1H     C1       CD33F     2.48500       11.6110           0  -1.18100       1.10000    
      5342 IM1H     268      IM1H     DC1      DRUD     -2.66700      0.400000           0   0.00000       0.00000    
      5343 IM1H     268      IM1H     H1       HDA3A    0.135000       1.00800           0   0.00000       0.00000    
      5344 IM1H     268      IM1H     H2       HDA3A    0.135000       1.00800           0   0.00000       0.00000    
      5345 IM1H     268      IM1H     H3       HDA3A    0.135000       1.00800           0   0.00000       0.00000    
      5346 IM1H     268      IM1H     N1       ND2R5C    2.35720       13.6070           0 -0.803000       1.00000    
      5347 IM1H     268      IM1H     DN1      DRUD     -2.19920      0.400000           0   0.00000       0.00000    
      5348 IM1H     268      IM1H     C2       CD2R5D    2.44700       11.6110           0  -1.08300       1.10000    
      5349 IM1H     268      IM1H     DC2      DRUD     -2.55400      0.400000           0   0.00000       0.00000    
      5350 IM1H     268      IM1H     H4       HDR5D    0.195000       1.00800           0   0.00000       0.00000    
      5351 IM1H     268      IM1H     C3       CD2R5D    2.50700       11.6110           0  -1.08300       1.10000    
      5352 IM1H     268      IM1H     DC3      DRUD     -2.55400      0.400000           0   0.00000       0.00000    
      5353 IM1H     268      IM1H     H5       HDR5D    0.192000       1.00800           0   0.00000       0.00000    
      5354 IM1H     268      IM1H     C4       CD2R5E    2.72410       11.6110           0  -1.25300       1.20000    
      5355 IM1H     268      IM1H     DC4      DRUD     -2.74710      0.400000           0   0.00000       0.00000    
      5356 IM1H     268      IM1H     H6       HDR5E    0.203000       1.00800           0   0.00000       0.00000    
      5357 IM1H     268      IM1H     N2       ND2R5C    2.04220       13.6070           0 -0.803000       1.00000    
      5358 IM1H     268      IM1H     DN2      DRUD     -2.19920      0.400000           0   0.00000       0.00000    
      5359 IM1H     268      IM1H     H7       HDP1A    0.363000       1.00800           0   0.00000       0.00000    
      5360 IM1H     268      IM1H     LPN21    LPD       0.00000       0.00000          -1   0.00000       0.00000    
      5361 IM1H     269      IM1H     C1       CD33F     2.48500       11.6110           0  -1.18100       1.10000    
      5362 IM1H     269      IM1H     DC1      DRUD     -2.66700      0.400000           0   0.00000       0.00000    
      5363 IM1H     269      IM1H     H1       HDA3A    0.135000       1.00800           0   0.00000       0.00000    
      5364 IM1H     269      IM1H     H2       HDA3A    0.135000       1.00800           0   0.00000       0.00000    
      5365 IM1H     269      IM1H     H3       HDA3A    0.135000       1.00800           0   0.00000       0.00000    
      5366 IM1H     269      IM1H     N1       ND2R5C    2.35720       13.6070           0 -0.803000       1.00000    
      5367 IM1H     269      IM1H     DN1      DRUD     -2.19920      0.400000           0   0.00000       0.00000    
      5368 IM1H     269      IM1H     C2       CD2R5D    2.44700       11.6110           0  -1.08300       1.10000    
      5369 IM1H     269      IM1H     DC2      DRUD     -2.55400      0.400000           0   0.00000       0.00000    
      5370 IM1H     269      IM1H     H4       HDR5D    0.195000       1.00800           0   0.00000       0.00000    
      5371 IM1H     269      IM1H     C3       CD2R5D    2.50700       11.6110           0  -1.08300       1.10000    
      5372 IM1H     269      IM1H     DC3      DRUD     -2.55400      0.400000           0   0.00000       0.00000    
      5373 IM1H     269      IM1H     H5       HDR5D    0.192000       1.00800           0   0.00000       0.00000    
      5374 IM1H     269      IM1H     C4       CD2R5E    2.72410       11.6110           0  -1.25300       1.20000    
      5375 IM1H     269      IM1H     DC4      DRUD     -2.74710      0.400000           0   0.00000       0.00000    
      5376 IM1H     269      IM1H     H6       HDR5E    0.203000       1.00800           0   0.00000       0.00000    
      5377 IM1H     269      IM1H     N2       ND2R5C    2.04220       13.6070           0 -0.803000       1.00000    
      5378 IM1H     269      IM1H     DN2      DRUD     -2.19920      0.400000           0   0.00000       0.00000    
      5379 IM1H     269      IM1H     H7       HDP1A    0.363000       1.00800           0   0.00000       0.00000    
      5380 IM1H     269      IM1H     LPN21    LPD       0.00000       0.00000          -1   0.00000       0.00000    
      5381 IM1H     270      IM1H     C1       CD33F     2.48500       11.6110           0  -1.18100       1.10000    
      5382 IM1H     270      IM1H     DC1      DRUD     -2.66700      0.400000           0   0.00000       0.00000    
      5383 IM1H     270      IM1H     H1       HDA3A    0.135000       1.00800           0   0.00000       0.00000    
      5384 IM1H     270      IM1H     H2       HDA3A    0.135000       1.00800           0   0.00000       0.00000    
      5385 IM1H     270      IM1H     H3       HDA3A    0.135000       1.00800           0   0.00000       0.00000    
      5386 IM1H     270      IM1H     N1       ND2R5C    2.35720       13.6070           0 -0.803000       1.00000    
      5387 IM1H     270      IM1H     DN1      DRUD     -2.19920      0.400000           0   0.00000       0.00000    
      5388 IM1H     270      IM1H     C2       CD2R5D    2.44700       11.6110           0  -1.08300       1.10000    
      5389 IM1H     270      IM1H     DC2      DRUD     -2.55400      0.400000           0   0.00000       0.00000    
      5390 IM1H     270      IM1H     H4       HDR5D    0.195000       1.00800           0   0.00000       0.00000    
      5391 IM1H     270      IM1H     C3       CD2R5D    2.50700       11.6110           0  -1.08300       1.10000    
      5392 IM1H     270      IM1H     DC3      DRUD     -2.55400      0.400000           0   0.00000       0.00000    
      5393 IM1H     270      IM1H     H5       HDR5D    0.192000       1.00800           0   0.00000       0.00000    
      5394 IM1H     270      IM1H     C4       CD2R5E    2.72410       11.6110           0  -1.25300       1.20000    
      5395 IM1H     270      IM1H     DC4      DRUD     -2.74710      0.400000           0   0.00000       0.00000    
      5396 IM1H     270      IM1H     H6       HDR5E    0.203000       1.00800           0   0.00000       0.00000    
      5397 IM1H     270      IM1H     N2       ND2R5C    2.04220       13.6070           0 -0.803000       1.00000    
      5398 IM1H     270      IM1H     DN2      DRUD     -2.19920      0.400000           0   0.00000       0.00000    
      5399 IM1H     270      IM1H     H7       HDP1A    0.363000       1.00800           0   0.00000       0.00000    
      5400 IM1H     270      IM1H     LPN21    LPD       0.00000       0.00000          -1   0.00000       0.00000    
      5401 IM1H     271      IM1H     C1       CD33F     2.48500       11.6110           0  -1.18100       1.10000    
      5402 IM1H     271      IM1H     DC1      DRUD     -2.66700      0.400000           0   0.00000       0.00000    
      5403 IM1H     271      IM1H     H1       HDA3A    0.135000       1.00800           0   0.00000       0.00000    
      5404 IM1H     271      IM1H     H2       HDA3A    0.135000       1.00800           0   0.00000       0.00000    
      5405 IM1H     271      IM1H     H3       HDA3A    0.135000       1.00800           0   0.00000       0.00000    
      5406 IM1H     271      IM1H     N1       ND2R5C    2.35720       13.6070           0 -0.803000       1.00000    
      5407 IM1H     271      IM1H     DN1      DRUD     -2.19920      0.400000           0   0.00000       0.00000    
      5408 IM1H     271      IM1H     C2       CD2R5D    2.44700       11.6110           0  -1.08300       1.10000    
      5409 IM1H     271      IM1H     DC2      DRUD     -2.55400      0.400000           0   0.00000       0.00000    
      5410 IM1H     271      IM1H     H4       HDR5D    0.195000       1.00800           0   0.00000       0.00000    
      5411 IM1H     271      IM1H     C3       CD2R5D    2.50700       11.6110           0  -1.08300       1.10000    
      5412 IM1H     271      IM1H     DC3      DRUD     -2.55400      0.400000           0   0.00000       0.00000    
      5413 IM1H     271      IM1H     H5       HDR5D    0.192000       1.00800           0   0.00000       0.00000    
      5414 IM1H     271      IM1H     C4       CD2R5E    2.72410       11.6110           0  -1.25300       1.20000    
      5415 IM1H     271      IM1H     DC4      DRUD     -2.74710      0.400000           0   0.00000       0.00000    
      5416 IM1H     271      IM1H     H6       HDR5E    0.203000       1.00800           0   0.00000       0.00000    
      5417 IM1H     271      IM1H     N2       ND2R5C    2.04220       13.6070           0 -0.803000       1.00000    
      5418 IM1H     271      IM1H     DN2      DRUD     -2.19920      0.400000           0   0.00000       0.00000    
      5419 IM1H     271      IM1H     H7       HDP1A    0.363000       1.00800           0   0.00000       0.00000    
      5420 IM1H     271      IM1H     LPN21    LPD       0.00000       0.00000          -1   0.00000       0.00000    
      5421 IM1H     272      IM1H     C1       CD33F     2.48500       11.6110           0  -1.18100       1.10000    
      5422 IM1H     272      IM1H     DC1      DRUD     -2.66700      0.400000           0   0.00000       0.00000    
      5423 IM1H     272      IM1H     H1       HDA3A    0.135000       1.00800           0   0.00000       0.00000    
      5424 IM1H     272      IM1H     H2       HDA3A    0.135000       1.00800           0   0.00000       0.00000    
      5425 IM1H     272      IM1H     H3       HDA3A    0.135000       1.00800           0   0.00000       0.00000    
      5426 IM1H     272      IM1H     N1       ND2R5C    2.35720       13.6070           0 -0.803000       1.00000    
      5427 IM1H     272      IM1H     DN1      DRUD     -2.19920      0.400000           0   0.00000       0.00000    
      5428 IM1H     272      IM1H     C2       CD2R5D    2.44700       11.6110           0  -1.08300       1.10000    
      5429 IM1H     272      IM1H     DC2      DRUD     -2.55400      0.400000           0   0.00000       0.00000    
      5430 IM1H     272      IM1H     H4       HDR5D    0.195000       1.00800           0   0.00000       0.00000    
      5431 IM1H     272      IM1H     C3       CD2R5D    2.50700       11.6110           0  -1.08300       1.10000    
      5432 IM1H     272      IM1H     DC3      DRUD     -2.55400      0.400000           0   0.00000       0.00000    
      5433 IM1H     272      IM1H     H5       HDR5D    0.192000       1.00800           0   0.00000       0.00000    
      5434 IM1H     272      IM1H     C4       CD2R5E    2.72410       11.6110           0  -1.25300       1.20000    
      5435 IM1H     272      IM1H     DC4      DRUD     -2.74710      0.400000           0   0.00000       0.00000    
      5436 IM1H     272      IM1H     H6       HDR5E    0.203000       1.00800           0   0.00000       0.00000    
      5437 IM1H     272      IM1H     N2       ND2R5C    2.04220       13.6070           0 -0.803000       1.00000    
      5438 IM1H     272      IM1H     DN2      DRUD     -2.19920      0.400000           0   0.00000       0.00000    
      5439 IM1H     272      IM1H     H7       HDP1A    0.363000       1.00800           0   0.00000       0.00000    
      5440 IM1H     272      IM1H     LPN21    LPD       0.00000       0.00000          -1   0.00000       0.00000    
      5441 IM1H     273      IM1H     C1       CD33F     2.48500       11.6110           0  -1.18100       1.10000    
      5442 IM1H     273      IM1H     DC1      DRUD     -2.66700      0.400000           0   0.00000       0.00000    
      5443 IM1H     273      IM1H     H1       HDA3A    0.135000       1.00800           0   0.00000       0.00000    
      5444 IM1H     273      IM1H     H2       HDA3A    0.135000       1.00800           0   0.00000       0.00000    
      5445 IM1H     273      IM1H     H3       HDA3A    0.135000       1.00800           0   0.00000       0.00000    
      5446 IM1H     273      IM1H     N1       ND2R5C    2.35720       13.6070           0 -0.803000       1.00000    
      5447 IM1H     273      IM1H     DN1      DRUD     -2.19920      0.400000           0   0.00000       0.00000    
      5448 IM1H     273      IM1H     C2       CD2R5D    2.44700       11.6110           0  -1.08300       1.10000    
      5449 IM1H     273      IM1H     DC2      DRUD     -2.55400      0.400000           0   0.00000       0.00000    
      5450 IM1H     273      IM1H     H4       HDR5D    0.195000       1.00800           0   0.00000       0.00000    
      5451 IM1H     273      IM1H     C3       CD2R5D    2.50700       11.6110           0  -1.08300       1.10000    
      5452 IM1H     273      IM1H     DC3      DRUD     -2.55400      0.400000           0   0.00000       0.00000    
      5453 IM1H     273      IM1H     H5       HDR5D    0.192000       1.00800           0   0.00000       0.00000    
      5454 IM1H     273      IM1H     C4       CD2R5E    2.72410       11.6110           0  -1.25300       1.20000    
      5455 IM1H     273      IM1H     DC4      DRUD     -2.74710      0.400000           0   0.00000       0.00000    
      5456 IM1H     273      IM1H     H6       HDR5E    0.203000       1.00800           0   0.00000       0.00000    
      5457 IM1H     273      IM1H     N2       ND2R5C    2.04220       13.6070           0 -0.803000       1.00000    
      5458 IM1H     273      IM1H     DN2      DRUD     -2.19920      0.400000           0   0.00000       0.00000    
      5459 IM1H     273      IM1H     H7       HDP1A    0.363000       1.00800           0   0.00000       0.00000    
      5460 IM1H     273      IM1H     LPN21    LPD       0.00000       0.00000          -1   0.00000       0.00000    
      5461 IM1H     274      IM1H     C1       CD33F     2.48500       11.6110           0  -1.18100       1.10000    
      5462 IM1H     274      IM1H     DC1      DRUD     -2.66700      0.400000           0   0.00000       0.00000    
      5463 IM1H     274      IM1H     H1       HDA3A    0.135000       1.00800           0   0.00000       0.00000    
      5464 IM1H     274      IM1H     H2       HDA3A    0.135000       1.00800           0   0.00000       0.00000    
      5465 IM1H     274      IM1H     H3       HDA3A    0.135000       1.00800           0   0.00000       0.00000    
      5466 IM1H     274      IM1H     N1       ND2R5C    2.35720       13.6070           0 -0.803000       1.00000    
      5467 IM1H     274      IM1H     DN1      DRUD     -2.19920      0.400000           0   0.00000       0.00000    
      5468 IM1H     274      IM1H     C2       CD2R5D    2.44700       11.6110           0  -1.08300       1.10000    
      5469 IM1H     274      IM1H     DC2      DRUD     -2.55400      0.400000           0   0.00000       0.00000    
      5470 IM1H     274      IM1H     H4       HDR5D    0.195000       1.00800           0   0.00000       0.00000    
      5471 IM1H     274      IM1H     C3       CD2R5D    2.50700       11.6110           0  -1.08300       1.10000    
      5472 IM1H     274      IM1H     DC3      DRUD     -2.55400      0.400000           0   0.00000       0.00000    
      5473 IM1H     274      IM1H     H5       HDR5D    0.192000       1.00800           0   0.00000       0.00000    
      5474 IM1H     274      IM1H     C4       CD2R5E    2.72410       11.6110           0  -1.25300       1.20000    
      5475 IM1H     274      IM1H     DC4      DRUD     -2.74710      0.400000           0   0.00000       0.00000    
      5476 IM1H     274      IM1H     H6       HDR5E    0.203000       1.00800           0   0.00000       0.00000    
      5477 IM1H     274      IM1H     N2       ND2R5C    2.04220       13.6070           0 -0.803000       1.00000    
      5478 IM1H     274      IM1H     DN2      DRUD     -2.19920      0.400000           0   0.00000       0.00000    
      5479 IM1H     274      IM1H     H7       HDP1A    0.363000       1.00800           0   0.00000       0.00000    
      5480 IM1H     274      IM1H     LPN21    LPD       0.00000       0.00000          -1   0.00000       0.00000    
      5481 IM1H     275      IM1H     C1       CD33F     2.48500       11.6110           0  -1.18100       1.10000    
      5482 IM1H     275      IM1H     DC1      DRUD     -2.66700      0.400000           0   0.00000       0.00000    
      5483 IM1H     275      IM1H     H1       HDA3A    0.135000       1.00800           0   0.00000       0.00000    
      5484 IM1H     275      IM1H     H2       HDA3A    0.135000       1.00800           0   0.00000       0.00000    
      5485 IM1H     275      IM1H     H3       HDA3A    0.135000       1.00800           0   0.00000       0.00000    
      5486 IM1H     275      IM1H     N1       ND2R5C    2.35720       13.6070           0 -0.803000       1.00000    
      5487 IM1H     275      IM1H     DN1      DRUD     -2.19920      0.400000           0   0.00000       0.00000    
      5488 IM1H     275      IM1H     C2       CD2R5D    2.44700       11.6110           0  -1.08300       1.10000    
      5489 IM1H     275      IM1H     DC2      DRUD     -2.55400      0.400000           0   0.00000       0.00000    
      5490 IM1H     275      IM1H     H4       HDR5D    0.195000       1.00800           0   0.00000       0.00000    
      5491 IM1H     275      IM1H     C3       CD2R5D    2.50700       11.6110           0  -1.08300       1.10000    
      5492 IM1H     275      IM1H     DC3      DRUD     -2.55400      0.400000           0   0.00000       0.00000    
      5493 IM1H     275      IM1H     H5       HDR5D    0.192000       1.00800           0   0.00000       0.00000    
      5494 IM1H     275      IM1H     C4       CD2R5E    2.72410       11.6110           0  -1.25300       1.20000    
      5495 IM1H     275      IM1H     DC4      DRUD     -2.74710      0.400000           0   0.00000       0.00000    
      5496 IM1H     275      IM1H     H6       HDR5E    0.203000       1.00800           0   0.00000       0.00000    
      5497 IM1H     275      IM1H     N2       ND2R5C    2.04220       13.6070           0 -0.803000       1.00000    
      5498 IM1H     275      IM1H     DN2      DRUD     -2.19920      0.400000           0   0.00000       0.00000    
      5499 IM1H     275      IM1H     H7       HDP1A    0.363000       1.00800           0   0.00000       0.00000    
      5500 IM1H     275      IM1H     LPN21    LPD       0.00000       0.00000          -1   0.00000       0.00000    
      5501 IM1H     276      IM1H     C1       CD33F     2.48500       11.6110           0  -1.18100       1.10000    
      5502 IM1H     276      IM1H     DC1      DRUD     -2.66700      0.400000           0   0.00000       0.00000    
      5503 IM1H     276      IM1H     H1       HDA3A    0.135000       1.00800           0   0.00000       0.00000    
      5504 IM1H     276      IM1H     H2       HDA3A    0.135000       1.00800           0   0.00000       0.00000    
      5505 IM1H     276      IM1H     H3       HDA3A    0.135000       1.00800           0   0.00000       0.00000    
      5506 IM1H     276      IM1H     N1       ND2R5C    2.35720       13.6070           0 -0.803000       1.00000    
      5507 IM1H     276      IM1H     DN1      DRUD     -2.19920      0.400000           0   0.00000       0.00000    
      5508 IM1H     276      IM1H     C2       CD2R5D    2.44700       11.6110           0  -1.08300       1.10000    
      5509 IM1H     276      IM1H     DC2      DRUD     -2.55400      0.400000           0   0.00000       0.00000    
      5510 IM1H     276      IM1H     H4       HDR5D    0.195000       1.00800           0   0.00000       0.00000    
      5511 IM1H     276      IM1H     C3       CD2R5D    2.50700       11.6110           0  -1.08300       1.10000    
      5512 IM1H     276      IM1H     DC3      DRUD     -2.55400      0.400000           0   0.00000       0.00000    
      5513 IM1H     276      IM1H     H5       HDR5D    0.192000       1.00800           0   0.00000       0.00000    
      5514 IM1H     276      IM1H     C4       CD2R5E    2.72410       11.6110           0  -1.25300       1.20000    
      5515 IM1H     276      IM1H     DC4      DRUD     -2.74710      0.400000           0   0.00000       0.00000    
      5516 IM1H     276      IM1H     H6       HDR5E    0.203000       1.00800           0   0.00000       0.00000    
      5517 IM1H     276      IM1H     N2       ND2R5C    2.04220       13.6070           0 -0.803000       1.00000    
      5518 IM1H     276      IM1H     DN2      DRUD     -2.19920      0.400000           0   0.00000       0.00000    
      5519 IM1H     276      IM1H     H7       HDP1A    0.363000       1.00800           0   0.00000       0.00000    
      5520 IM1H     276      IM1H     LPN21    LPD       0.00000       0.00000          -1   0.00000       0.00000    
      5521 IM1H     277      IM1H     C1       CD33F     2.48500       11.6110           0  -1.18100       1.10000    
      5522 IM1H     277      IM1H     DC1      DRUD     -2.66700      0.400000           0   0.00000       0.00000    
      5523 IM1H     277      IM1H     H1       HDA3A    0.135000       1.00800           0   0.00000       0.00000    
      5524 IM1H     277      IM1H     H2       HDA3A    0.135000       1.00800           0   0.00000       0.00000    
      5525 IM1H     277      IM1H     H3       HDA3A    0.135000       1.00800           0   0.00000       0.00000    
      5526 IM1H     277      IM1H     N1       ND2R5C    2.35720       13.6070           0 -0.803000       1.00000    
      5527 IM1H     277      IM1H     DN1      DRUD     -2.19920      0.400000           0   0.00000       0.00000    
      5528 IM1H     277      IM1H     C2       CD2R5D    2.44700       11.6110           0  -1.08300       1.10000    
      5529 IM1H     277      IM1H     DC2      DRUD     -2.55400      0.400000           0   0.00000       0.00000    
      5530 IM1H     277      IM1H     H4       HDR5D    0.195000       1.00800           0   0.00000       0.00000    
      5531 IM1H     277      IM1H     C3       CD2R5D    2.50700       11.6110           0  -1.08300       1.10000    
      5532 IM1H     277      IM1H     DC3      DRUD     -2.55400      0.400000           0   0.00000       0.00000    
      5533 IM1H     277      IM1H     H5       HDR5D    0.192000       1.00800           0   0.00000       0.00000    
      5534 IM1H     277      IM1H     C4       CD2R5E    2.72410       11.6110           0  -1.25300       1.20000    
      5535 IM1H     277      IM1H     DC4      DRUD     -2.74710      0.400000           0   0.00000       0.00000    
      5536 IM1H     277      IM1H     H6       HDR5E    0.203000       1.00800           0   0.00000       0.00000    
      5537 IM1H     277      IM1H     N2       ND2R5C    2.04220       13.6070           0 -0.803000       1.00000    
      5538 IM1H     277      IM1H     DN2      DRUD     -2.19920      0.400000           0   0.00000       0.00000    
      5539 IM1H     277      IM1H     H7       HDP1A    0.363000       1.00800           0   0.00000       0.00000    
      5540 IM1H     277      IM1H     LPN21    LPD       0.00000       0.00000          -1   0.00000       0.00000    
      5541 IM1H     278      IM1H     C1       CD33F     2.48500       11.6110           0  -1.18100       1.10000    
      5542 IM1H     278      IM1H     DC1      DRUD     -2.66700      0.400000           0   0.00000       0.00000    
      5543 IM1H     278      IM1H     H1       HDA3A    0.135000       1.00800           0   0.00000       0.00000    
      5544 IM1H     278      IM1H     H2       HDA3A    0.135000       1.00800           0   0.00000       0.00000    
      5545 IM1H     278      IM1H     H3       HDA3A    0.135000       1.00800           0   0.00000       0.00000    
      5546 IM1H     278      IM1H     N1       ND2R5C    2.35720       13.6070           0 -0.803000       1.00000    
      5547 IM1H     278      IM1H     DN1      DRUD     -2.19920      0.400000           0   0.00000       0.00000    
      5548 IM1H     278      IM1H     C2       CD2R5D    2.44700       11.6110           0  -1.08300       1.10000    
      5549 IM1H     278      IM1H     DC2      DRUD     -2.55400      0.400000           0   0.00000       0.00000    
      5550 IM1H     278      IM1H     H4       HDR5D    0.195000       1.00800           0   0.00000       0.00000    
      5551 IM1H     278      IM1H     C3       CD2R5D    2.50700       11.6110           0  -1.08300       1.10000    
      5552 IM1H     278      IM1H     DC3      DRUD     -2.55400      0.400000           0   0.00000       0.00000    
      5553 IM1H     278      IM1H     H5       HDR5D    0.192000       1.00800           0   0.00000       0.00000    
      5554 IM1H     278      IM1H     C4       CD2R5E    2.72410       11.6110           0  -1.25300       1.20000    
      5555 IM1H     278      IM1H     DC4      DRUD     -2.74710      0.400000           0   0.00000       0.00000    
      5556 IM1H     278      IM1H     H6       HDR5E    0.203000       1.00800           0   0.00000       0.00000    
      5557 IM1H     278      IM1H     N2       ND2R5C    2.04220       13.6070           0 -0.803000       1.00000    
      5558 IM1H     278      IM1H     DN2      DRUD     -2.19920      0.400000           0   0.00000       0.00000    
      5559 IM1H     278      IM1H     H7       HDP1A    0.363000       1.00800           0   0.00000       0.00000    
      5560 IM1H     278      IM1H     LPN21    LPD       0.00000       0.00000          -1   0.00000       0.00000    
      5561 IM1H     279      IM1H     C1       CD33F     2.48500       11.6110           0  -1.18100       1.10000    
      5562 IM1H     279      IM1H     DC1      DRUD     -2.66700      0.400000           0   0.00000       0.00000    
      5563 IM1H     279      IM1H     H1       HDA3A    0.135000       1.00800           0   0.00000       0.00000    
      5564 IM1H     279      IM1H     H2       HDA3A    0.135000       1.00800           0   0.00000       0.00000    
      5565 IM1H     279      IM1H     H3       HDA3A    0.135000       1.00800           0   0.00000       0.00000    
      5566 IM1H     279      IM1H     N1       ND2R5C    2.35720       13.6070           0 -0.803000       1.00000    
      5567 IM1H     279      IM1H     DN1      DRUD     -2.19920      0.400000           0   0.00000       0.00000    
      5568 IM1H     279      IM1H     C2       CD2R5D    2.44700       11.6110           0  -1.08300       1.10000    
      5569 IM1H     279      IM1H     DC2      DRUD     -2.55400      0.400000           0   0.00000       0.00000    
      5570 IM1H     279      IM1H     H4       HDR5D    0.195000       1.00800           0   0.00000       0.00000    
      5571 IM1H     279      IM1H     C3       CD2R5D    2.50700       11.6110           0  -1.08300       1.10000    
      5572 IM1H     279      IM1H     DC3      DRUD     -2.55400      0.400000           0   0.00000       0.00000    
      5573 IM1H     279      IM1H     H5       HDR5D    0.192000       1.00800           0   0.00000       0.00000    
      5574 IM1H     279      IM1H     C4       CD2R5E    2.72410       11.6110           0  -1.25300       1.20000    
      5575 IM1H     279      IM1H     DC4      DRUD     -2.74710      0.400000           0   0.00000       0.00000    
      5576 IM1H     279      IM1H     H6       HDR5E    0.203000       1.00800           0   0.00000       0.00000    
      5577 IM1H     279      IM1H     N2       ND2R5C    2.04220       13.6070           0 -0.803000       1.00000    
      5578 IM1H     279      IM1H     DN2      DRUD     -2.19920      0.400000           0   0.00000       0.00000    
      5579 IM1H     279      IM1H     H7       HDP1A    0.363000       1.00800           0   0.00000       0.00000    
      5580 IM1H     279      IM1H     LPN21    LPD       0.00000       0.00000          -1   0.00000       0.00000    
      5581 IM1H     280      IM1H     C1       CD33F     2.48500       11.6110           0  -1.18100       1.10000    
      5582 IM1H     280      IM1H     DC1      DRUD     -2.66700      0.400000           0   0.00000       0.00000    
      5583 IM1H     280      IM1H     H1       HDA3A    0.135000       1.00800           0   0.00000       0.00000    
      5584 IM1H     280      IM1H     H2       HDA3A    0.135000       1.00800           0   0.00000       0.00000    
      5585 IM1H     280      IM1H     H3       HDA3A    0.135000       1.00800           0   0.00000       0.00000    
      5586 IM1H     280      IM1H     N1       ND2R5C    2.35720       13.6070           0 -0.803000       1.00000    
      5587 IM1H     280      IM1H     DN1      DRUD     -2.19920      0.400000           0   0.00000       0.00000    
      5588 IM1H     280      IM1H     C2       CD2R5D    2.44700       11.6110           0  -1.08300       1.10000    
      5589 IM1H     280      IM1H     DC2      DRUD     -2.55400      0.400000           0   0.00000       0.00000    
      5590 IM1H     280      IM1H     H4       HDR5D    0.195000       1.00800           0   0.00000       0.00000    
      5591 IM1H     280      IM1H     C3       CD2R5D    2.50700       11.6110           0  -1.08300       1.10000    
      5592 IM1H     280      IM1H     DC3      DRUD     -2.55400      0.400000           0   0.00000       0.00000    
      5593 IM1H     280      IM1H     H5       HDR5D    0.192000       1.00800           0   0.00000       0.00000    
      5594 IM1H     280      IM1H     C4       CD2R5E    2.72410       11.6110           0  -1.25300       1.20000    
      5595 IM1H     280      IM1H     DC4      DRUD     -2.74710      0.400000           0   0.00000       0.00000    
      5596 IM1H     280      IM1H     H6       HDR5E    0.203000       1.00800           0   0.00000       0.00000    
      5597 IM1H     280      IM1H     N2       ND2R5C    2.04220       13.6070           0 -0.803000       1.00000    
      5598 IM1H     280      IM1H     DN2      DRUD     -2.19920      0.400000           0   0.00000       0.00000    
      5599 IM1H     280      IM1H     H7       HDP1A    0.363000       1.00800           0   0.00000       0.00000    
      5600 IM1H     280      IM1H     LPN21    LPD       0.00000       0.00000          -1   0.00000       0.00000    
      5601 IM1H     281      IM1H     C1       CD33F     2.48500       11.6110           0  -1.18100       1.10000    
      5602 IM1H     281      IM1H     DC1      DRUD     -2.66700      0.400000           0   0.00000       0.00000    
      5603 IM1H     281      IM1H     H1       HDA3A    0.135000       1.00800           0   0.00000       0.00000    
      5604 IM1H     281      IM1H     H2       HDA3A    0.135000       1.00800           0   0.00000       0.00000    
      5605 IM1H     281      IM1H     H3       HDA3A    0.135000       1.00800           0   0.00000       0.00000    
      5606 IM1H     281      IM1H     N1       ND2R5C    2.35720       13.6070           0 -0.803000       1.00000    
      5607 IM1H     281      IM1H     DN1      DRUD     -2.19920      0.400000           0   0.00000       0.00000    
      5608 IM1H     281      IM1H     C2       CD2R5D    2.44700       11.6110           0  -1.08300       1.10000    
      5609 IM1H     281      IM1H     DC2      DRUD     -2.55400      0.400000           0   0.00000       0.00000    
      5610 IM1H     281      IM1H     H4       HDR5D    0.195000       1.00800           0   0.00000       0.00000    
      5611 IM1H     281      IM1H     C3       CD2R5D    2.50700       11.6110           0  -1.08300       1.10000    
      5612 IM1H     281      IM1H     DC3      DRUD     -2.55400      0.400000           0   0.00000       0.00000    
      5613 IM1H     281      IM1H     H5       HDR5D    0.192000       1.00800           0   0.00000       0.00000    
      5614 IM1H     281      IM1H     C4       CD2R5E    2.72410       11.6110           0  -1.25300       1.20000    
      5615 IM1H     281      IM1H     DC4      DRUD     -2.74710      0.400000           0   0.00000       0.00000    
      5616 IM1H     281      IM1H     H6       HDR5E    0.203000       1.00800           0   0.00000       0.00000    
      5617 IM1H     281      IM1H     N2       ND2R5C    2.04220       13.6070           0 -0.803000       1.00000    
      5618 IM1H     281      IM1H     DN2      DRUD     -2.19920      0.400000           0   0.00000       0.00000    
      5619 IM1H     281      IM1H     H7       HDP1A    0.363000       1.00800           0   0.00000       0.00000    
      5620 IM1H     281      IM1H     LPN21    LPD       0.00000       0.00000          -1   0.00000       0.00000    
      5621 IM1H     282      IM1H     C1       CD33F     2.48500       11.6110           0  -1.18100       1.10000    
      5622 IM1H     282      IM1H     DC1      DRUD     -2.66700      0.400000           0   0.00000       0.00000    
      5623 IM1H     282      IM1H     H1       HDA3A    0.135000       1.00800           0   0.00000       0.00000    
      5624 IM1H     282      IM1H     H2       HDA3A    0.135000       1.00800           0   0.00000       0.00000    
      5625 IM1H     282      IM1H     H3       HDA3A    0.135000       1.00800           0   0.00000       0.00000    
      5626 IM1H     282      IM1H     N1       ND2R5C    2.35720       13.6070           0 -0.803000       1.00000    
      5627 IM1H     282      IM1H     DN1      DRUD     -2.19920      0.400000           0   0.00000       0.00000    
      5628 IM1H     282      IM1H     C2       CD2R5D    2.44700       11.6110           0  -1.08300       1.10000    
      5629 IM1H     282      IM1H     DC2      DRUD     -2.55400      0.400000           0   0.00000       0.00000    
      5630 IM1H     282      IM1H     H4       HDR5D    0.195000       1.00800           0   0.00000       0.00000    
      5631 IM1H     282      IM1H     C3       CD2R5D    2.50700       11.6110           0  -1.08300       1.10000    
      5632 IM1H     282      IM1H     DC3      DRUD     -2.55400      0.400000           0   0.00000       0.00000    
      5633 IM1H     282      IM1H     H5       HDR5D    0.192000       1.00800           0   0.00000       0.00000    
      5634 IM1H     282      IM1H     C4       CD2R5E    2.72410       11.6110           0  -1.25300       1.20000    
      5635 IM1H     282      IM1H     DC4      DRUD     -2.74710      0.400000           0   0.00000       0.00000    
      5636 IM1H     282      IM1H     H6       HDR5E    0.203000       1.00800           0   0.00000       0.00000    
      5637 IM1H     282      IM1H     N2       ND2R5C    2.04220       13.6070           0 -0.803000       1.00000    
      5638 IM1H     282      IM1H     DN2      DRUD     -2.19920      0.400000           0   0.00000       0.00000    
      5639 IM1H     282      IM1H     H7       HDP1A    0.363000       1.00800           0   0.00000       0.00000    
      5640 IM1H     282      IM1H     LPN21    LPD       0.00000       0.00000          -1   0.00000       0.00000    
      5641 IM1H     283      IM1H     C1       CD33F     2.48500       11.6110           0  -1.18100       1.10000    
      5642 IM1H     283      IM1H     DC1      DRUD     -2.66700      0.400000           0   0.00000       0.00000    
      5643 IM1H     283      IM1H     H1       HDA3A    0.135000       1.00800           0   0.00000       0.00000    
      5644 IM1H     283      IM1H     H2       HDA3A    0.135000       1.00800           0   0.00000       0.00000    
      5645 IM1H     283      IM1H     H3       HDA3A    0.135000       1.00800           0   0.00000       0.00000    
      5646 IM1H     283      IM1H     N1       ND2R5C    2.35720       13.6070           0 -0.803000       1.00000    
      5647 IM1H     283      IM1H     DN1      DRUD     -2.19920      0.400000           0   0.00000       0.00000    
      5648 IM1H     283      IM1H     C2       CD2R5D    2.44700       11.6110           0  -1.08300       1.10000    
      5649 IM1H     283      IM1H     DC2      DRUD     -2.55400      0.400000           0   0.00000       0.00000    
      5650 IM1H     283      IM1H     H4       HDR5D    0.195000       1.00800           0   0.00000       0.00000    
      5651 IM1H     283      IM1H     C3       CD2R5D    2.50700       11.6110           0  -1.08300       1.10000    
      5652 IM1H     283      IM1H     DC3      DRUD     -2.55400      0.400000           0   0.00000       0.00000    
      5653 IM1H     283      IM1H     H5       HDR5D    0.192000       1.00800           0   0.00000       0.00000    
      5654 IM1H     283      IM1H     C4       CD2R5E    2.72410       11.6110           0  -1.25300       1.20000    
      5655 IM1H     283      IM1H     DC4      DRUD     -2.74710      0.400000           0   0.00000       0.00000    
      5656 IM1H     283      IM1H     H6       HDR5E    0.203000       1.00800           0   0.00000       0.00000    
      5657 IM1H     283      IM1H     N2       ND2R5C    2.04220       13.6070           0 -0.803000       1.00000    
      5658 IM1H     283      IM1H     DN2      DRUD     -2.19920      0.400000           0   0.00000       0.00000    
      5659 IM1H     283      IM1H     H7       HDP1A    0.363000       1.00800           0   0.00000       0.00000    
      5660 IM1H     283      IM1H     LPN21    LPD       0.00000       0.00000          -1   0.00000       0.00000    
      5661 IM1H     284      IM1H     C1       CD33F     2.48500       11.6110           0  -1.18100       1.10000    
      5662 IM1H     284      IM1H     DC1      DRUD     -2.66700      0.400000           0   0.00000       0.00000    
      5663 IM1H     284      IM1H     H1       HDA3A    0.135000       1.00800           0   0.00000       0.00000    
      5664 IM1H     284      IM1H     H2       HDA3A    0.135000       1.00800           0   0.00000       0.00000    
      5665 IM1H     284      IM1H     H3       HDA3A    0.135000       1.00800           0   0.00000       0.00000    
      5666 IM1H     284      IM1H     N1       ND2R5C    2.35720       13.6070           0 -0.803000       1.00000    
      5667 IM1H     284      IM1H     DN1      DRUD     -2.19920      0.400000           0   0.00000       0.00000    
      5668 IM1H     284      IM1H     C2       CD2R5D    2.44700       11.6110           0  -1.08300       1.10000    
      5669 IM1H     284      IM1H     DC2      DRUD     -2.55400      0.400000           0   0.00000       0.00000    
      5670 IM1H     284      IM1H     H4       HDR5D    0.195000       1.00800           0   0.00000       0.00000    
      5671 IM1H     284      IM1H     C3       CD2R5D    2.50700       11.6110           0  -1.08300       1.10000    
      5672 IM1H     284      IM1H     DC3      DRUD     -2.55400      0.400000           0   0.00000       0.00000    
      5673 IM1H     284      IM1H     H5       HDR5D    0.192000       1.00800           0   0.00000       0.00000    
      5674 IM1H     284      IM1H     C4       CD2R5E    2.72410       11.6110           0  -1.25300       1.20000    
      5675 IM1H     284      IM1H     DC4      DRUD     -2.74710      0.400000           0   0.00000       0.00000    
      5676 IM1H     284      IM1H     H6       HDR5E    0.203000       1.00800           0   0.00000       0.00000    
      5677 IM1H     284      IM1H     N2       ND2R5C    2.04220       13.6070           0 -0.803000       1.00000    
      5678 IM1H     284      IM1H     DN2      DRUD     -2.19920      0.400000           0   0.00000       0.00000    
      5679 IM1H     284      IM1H     H7       HDP1A    0.363000       1.00800           0   0.00000       0.00000    
      5680 IM1H     284      IM1H     LPN21    LPD       0.00000       0.00000          -1   0.00000       0.00000    
      5681 IM1H     285      IM1H     C1       CD33F     2.48500       11.6110           0  -1.18100       1.10000    
      5682 IM1H     285      IM1H     DC1      DRUD     -2.66700      0.400000           0   0.00000       0.00000    
      5683 IM1H     285      IM1H     H1       HDA3A    0.135000       1.00800           0   0.00000       0.00000    
      5684 IM1H     285      IM1H     H2       HDA3A    0.135000       1.00800           0   0.00000       0.00000    
      5685 IM1H     285      IM1H     H3       HDA3A    0.135000       1.00800           0   0.00000       0.00000    
      5686 IM1H     285      IM1H     N1       ND2R5C    2.35720       13.6070           0 -0.803000       1.00000    
      5687 IM1H     285      IM1H     DN1      DRUD     -2.19920      0.400000           0   0.00000       0.00000    
      5688 IM1H     285      IM1H     C2       CD2R5D    2.44700       11.6110           0  -1.08300       1.10000    
      5689 IM1H     285      IM1H     DC2      DRUD     -2.55400      0.400000           0   0.00000       0.00000    
      5690 IM1H     285      IM1H     H4       HDR5D    0.195000       1.00800           0   0.00000       0.00000    
      5691 IM1H     285      IM1H     C3       CD2R5D    2.50700       11.6110           0  -1.08300       1.10000    
      5692 IM1H     285      IM1H     DC3      DRUD     -2.55400      0.400000           0   0.00000       0.00000    
      5693 IM1H     285      IM1H     H5       HDR5D    0.192000       1.00800           0   0.00000       0.00000    
      5694 IM1H     285      IM1H     C4       CD2R5E    2.72410       11.6110           0  -1.25300       1.20000    
      5695 IM1H     285      IM1H     DC4      DRUD     -2.74710      0.400000           0   0.00000       0.00000    
      5696 IM1H     285      IM1H     H6       HDR5E    0.203000       1.00800           0   0.00000       0.00000    
      5697 IM1H     285      IM1H     N2       ND2R5C    2.04220       13.6070           0 -0.803000       1.00000    
      5698 IM1H     285      IM1H     DN2      DRUD     -2.19920      0.400000           0   0.00000       0.00000    
      5699 IM1H     285      IM1H     H7       HDP1A    0.363000       1.00800           0   0.00000       0.00000    
      5700 IM1H     285      IM1H     LPN21    LPD       0.00000       0.00000          -1   0.00000       0.00000    
      5701 IM1H     286      IM1H     C1       CD33F     2.48500       11.6110           0  -1.18100       1.10000    
      5702 IM1H     286      IM1H     DC1      DRUD     -2.66700      0.400000           0   0.00000       0.00000    
      5703 IM1H     286      IM1H     H1       HDA3A    0.135000       1.00800           0   0.00000       0.00000    
      5704 IM1H     286      IM1H     H2       HDA3A    0.135000       1.00800           0   0.00000       0.00000    
      5705 IM1H     286      IM1H     H3       HDA3A    0.135000       1.00800           0   0.00000       0.00000    
      5706 IM1H     286      IM1H     N1       ND2R5C    2.35720       13.6070           0 -0.803000       1.00000    
      5707 IM1H     286      IM1H     DN1      DRUD     -2.19920      0.400000           0   0.00000       0.00000    
      5708 IM1H     286      IM1H     C2       CD2R5D    2.44700       11.6110           0  -1.08300       1.10000    
      5709 IM1H     286      IM1H     DC2      DRUD     -2.55400      0.400000           0   0.00000       0.00000    
      5710 IM1H     286      IM1H     H4       HDR5D    0.195000       1.00800           0   0.00000       0.00000    
      5711 IM1H     286      IM1H     C3       CD2R5D    2.50700       11.6110           0  -1.08300       1.10000    
      5712 IM1H     286      IM1H     DC3      DRUD     -2.55400      0.400000           0   0.00000       0.00000    
      5713 IM1H     286      IM1H     H5       HDR5D    0.192000       1.00800           0   0.00000       0.00000    
      5714 IM1H     286      IM1H     C4       CD2R5E    2.72410       11.6110           0  -1.25300       1.20000    
      5715 IM1H     286      IM1H     DC4      DRUD     -2.74710      0.400000           0   0.00000       0.00000    
      5716 IM1H     286      IM1H     H6       HDR5E    0.203000       1.00800           0   0.00000       0.00000    
      5717 IM1H     286      IM1H     N2       ND2R5C    2.04220       13.6070           0 -0.803000       1.00000    
      5718 IM1H     286      IM1H     DN2      DRUD     -2.19920      0.400000           0   0.00000       0.00000    
      5719 IM1H     286      IM1H     H7       HDP1A    0.363000       1.00800           0   0.00000       0.00000    
      5720 IM1H     286      IM1H     LPN21    LPD       0.00000       0.00000          -1   0.00000       0.00000    
      5721 IM1H     287      IM1H     C1       CD33F     2.48500       11.6110           0  -1.18100       1.10000    
      5722 IM1H     287      IM1H     DC1      DRUD     -2.66700      0.400000           0   0.00000       0.00000    
      5723 IM1H     287      IM1H     H1       HDA3A    0.135000       1.00800           0   0.00000       0.00000    
      5724 IM1H     287      IM1H     H2       HDA3A    0.135000       1.00800           0   0.00000       0.00000    
      5725 IM1H     287      IM1H     H3       HDA3A    0.135000       1.00800           0   0.00000       0.00000    
      5726 IM1H     287      IM1H     N1       ND2R5C    2.35720       13.6070           0 -0.803000       1.00000    
      5727 IM1H     287      IM1H     DN1      DRUD     -2.19920      0.400000           0   0.00000       0.00000    
      5728 IM1H     287      IM1H     C2       CD2R5D    2.44700       11.6110           0  -1.08300       1.10000    
      5729 IM1H     287      IM1H     DC2      DRUD     -2.55400      0.400000           0   0.00000       0.00000    
      5730 IM1H     287      IM1H     H4       HDR5D    0.195000       1.00800           0   0.00000       0.00000    
      5731 IM1H     287      IM1H     C3       CD2R5D    2.50700       11.6110           0  -1.08300       1.10000    
      5732 IM1H     287      IM1H     DC3      DRUD     -2.55400      0.400000           0   0.00000       0.00000    
      5733 IM1H     287      IM1H     H5       HDR5D    0.192000       1.00800           0   0.00000       0.00000    
      5734 IM1H     287      IM1H     C4       CD2R5E    2.72410       11.6110           0  -1.25300       1.20000    
      5735 IM1H     287      IM1H     DC4      DRUD     -2.74710      0.400000           0   0.00000       0.00000    
      5736 IM1H     287      IM1H     H6       HDR5E    0.203000       1.00800           0   0.00000       0.00000    
      5737 IM1H     287      IM1H     N2       ND2R5C    2.04220       13.6070           0 -0.803000       1.00000    
      5738 IM1H     287      IM1H     DN2      DRUD     -2.19920      0.400000           0   0.00000       0.00000    
      5739 IM1H     287      IM1H     H7       HDP1A    0.363000       1.00800           0   0.00000       0.00000    
      5740 IM1H     287      IM1H     LPN21    LPD       0.00000       0.00000          -1   0.00000       0.00000    
      5741 IM1H     288      IM1H     C1       CD33F     2.48500       11.6110           0  -1.18100       1.10000    
      5742 IM1H     288      IM1H     DC1      DRUD     -2.66700      0.400000           0   0.00000       0.00000    
      5743 IM1H     288      IM1H     H1       HDA3A    0.135000       1.00800           0   0.00000       0.00000    
      5744 IM1H     288      IM1H     H2       HDA3A    0.135000       1.00800           0   0.00000       0.00000    
      5745 IM1H     288      IM1H     H3       HDA3A    0.135000       1.00800           0   0.00000       0.00000    
      5746 IM1H     288      IM1H     N1       ND2R5C    2.35720       13.6070           0 -0.803000       1.00000    
      5747 IM1H     288      IM1H     DN1      DRUD     -2.19920      0.400000           0   0.00000       0.00000    
      5748 IM1H     288      IM1H     C2       CD2R5D    2.44700       11.6110           0  -1.08300       1.10000    
      5749 IM1H     288      IM1H     DC2      DRUD     -2.55400      0.400000           0   0.00000       0.00000    
      5750 IM1H     288      IM1H     H4       HDR5D    0.195000       1.00800           0   0.00000       0.00000    
      5751 IM1H     288      IM1H     C3       CD2R5D    2.50700       11.6110           0  -1.08300       1.10000    
      5752 IM1H     288      IM1H     DC3      DRUD     -2.55400      0.400000           0   0.00000       0.00000    
      5753 IM1H     288      IM1H     H5       HDR5D    0.192000       1.00800           0   0.00000       0.00000    
      5754 IM1H     288      IM1H     C4       CD2R5E    2.72410       11.6110           0  -1.25300       1.20000    
      5755 IM1H     288      IM1H     DC4      DRUD     -2.74710      0.400000           0   0.00000       0.00000    
      5756 IM1H     288      IM1H     H6       HDR5E    0.203000       1.00800           0   0.00000       0.00000    
      5757 IM1H     288      IM1H     N2       ND2R5C    2.04220       13.6070           0 -0.803000       1.00000    
      5758 IM1H     288      IM1H     DN2      DRUD     -2.19920      0.400000           0   0.00000       0.00000    
      5759 IM1H     288      IM1H     H7       HDP1A    0.363000       1.00800           0   0.00000       0.00000    
      5760 IM1H     288      IM1H     LPN21    LPD       0.00000       0.00000          -1   0.00000       0.00000    
      5761 IM1H     289      IM1H     C1       CD33F     2.48500       11.6110           0  -1.18100       1.10000    
      5762 IM1H     289      IM1H     DC1      DRUD     -2.66700      0.400000           0   0.00000       0.00000    
      5763 IM1H     289      IM1H     H1       HDA3A    0.135000       1.00800           0   0.00000       0.00000    
      5764 IM1H     289      IM1H     H2       HDA3A    0.135000       1.00800           0   0.00000       0.00000    
      5765 IM1H     289      IM1H     H3       HDA3A    0.135000       1.00800           0   0.00000       0.00000    
      5766 IM1H     289      IM1H     N1       ND2R5C    2.35720       13.6070           0 -0.803000       1.00000    
      5767 IM1H     289      IM1H     DN1      DRUD     -2.19920      0.400000           0   0.00000       0.00000    
      5768 IM1H     289      IM1H     C2       CD2R5D    2.44700       11.6110           0  -1.08300       1.10000    
      5769 IM1H     289      IM1H     DC2      DRUD     -2.55400      0.400000           0   0.00000       0.00000    
      5770 IM1H     289      IM1H     H4       HDR5D    0.195000       1.00800           0   0.00000       0.00000    
      5771 IM1H     289      IM1H     C3       CD2R5D    2.50700       11.6110           0  -1.08300       1.10000    
      5772 IM1H     289      IM1H     DC3      DRUD     -2.55400      0.400000           0   0.00000       0.00000    
      5773 IM1H     289      IM1H     H5       HDR5D    0.192000       1.00800           0   0.00000       0.00000    
      5774 IM1H     289      IM1H     C4       CD2R5E    2.72410       11.6110           0  -1.25300       1.20000    
      5775 IM1H     289      IM1H     DC4      DRUD     -2.74710      0.400000           0   0.00000       0.00000    
      5776 IM1H     289      IM1H     H6       HDR5E    0.203000       1.00800           0   0.00000       0.00000    
      5777 IM1H     289      IM1H     N2       ND2R5C    2.04220       13.6070           0 -0.803000       1.00000    
      5778 IM1H     289      IM1H     DN2      DRUD     -2.19920      0.400000           0   0.00000       0.00000    
      5779 IM1H     289      IM1H     H7       HDP1A    0.363000       1.00800           0   0.00000       0.00000    
      5780 IM1H     289      IM1H     LPN21    LPD       0.00000       0.00000          -1   0.00000       0.00000    
      5781 IM1H     290      IM1H     C1       CD33F     2.48500       11.6110           0  -1.18100       1.10000    
      5782 IM1H     290      IM1H     DC1      DRUD     -2.66700      0.400000           0   0.00000       0.00000    
      5783 IM1H     290      IM1H     H1       HDA3A    0.135000       1.00800           0   0.00000       0.00000    
      5784 IM1H     290      IM1H     H2       HDA3A    0.135000       1.00800           0   0.00000       0.00000    
      5785 IM1H     290      IM1H     H3       HDA3A    0.135000       1.00800           0   0.00000       0.00000    
      5786 IM1H     290      IM1H     N1       ND2R5C    2.35720       13.6070           0 -0.803000       1.00000    
      5787 IM1H     290      IM1H     DN1      DRUD     -2.19920      0.400000           0   0.00000       0.00000    
      5788 IM1H     290      IM1H     C2       CD2R5D    2.44700       11.6110           0  -1.08300       1.10000    
      5789 IM1H     290      IM1H     DC2      DRUD     -2.55400      0.400000           0   0.00000       0.00000    
      5790 IM1H     290      IM1H     H4       HDR5D    0.195000       1.00800           0   0.00000       0.00000    
      5791 IM1H     290      IM1H     C3       CD2R5D    2.50700       11.6110           0  -1.08300       1.10000    
      5792 IM1H     290      IM1H     DC3      DRUD     -2.55400      0.400000           0   0.00000       0.00000    
      5793 IM1H     290      IM1H     H5       HDR5D    0.192000       1.00800           0   0.00000       0.00000    
      5794 IM1H     290      IM1H     C4       CD2R5E    2.72410       11.6110           0  -1.25300       1.20000    
      5795 IM1H     290      IM1H     DC4      DRUD     -2.74710      0.400000           0   0.00000       0.00000    
      5796 IM1H     290      IM1H     H6       HDR5E    0.203000       1.00800           0   0.00000       0.00000    
      5797 IM1H     290      IM1H     N2       ND2R5C    2.04220       13.6070           0 -0.803000       1.00000    
      5798 IM1H     290      IM1H     DN2      DRUD     -2.19920      0.400000           0   0.00000       0.00000    
      5799 IM1H     290      IM1H     H7       HDP1A    0.363000       1.00800           0   0.00000       0.00000    
      5800 IM1H     290      IM1H     LPN21    LPD       0.00000       0.00000          -1   0.00000       0.00000    
      5801 OAC      1        OAC      C1       CD2O2A    3.18170       11.6110           0  -1.01600      0.899000    
      5802 OAC      1        OAC      DC1      DRUD     -2.47370      0.400000           0   0.00000       0.00000    
      5803 OAC      1        OAC      C2       CD33A     2.98790       11.6110           0  -1.68100       1.41400    
      5804 OAC      1        OAC      DC2      DRUD     -3.18190      0.400000           0   0.00000       0.00000    
      5805 OAC      1        OAC      H1       HDA3A    0.400000E-02   1.00800           0   0.00000       0.00000    
      5806 OAC      1        OAC      H2       HDA3A    0.400000E-02   1.00800           0   0.00000       0.00000    
      5807 OAC      1        OAC      H3       HDA3A    0.400000E-02   1.00800           0   0.00000       0.00000    
      5808 OAC      1        OAC      O1       OD2C2A    2.05480       15.5994           0 -0.699000       2.39900    
      5809 OAC      1        OAC      DO1      DRUD     -2.05180      0.400000           0   0.00000       0.00000    
      5810 OAC      1        OAC      O2       OD2C2A    2.05480       15.5994           0 -0.699000       2.39900    
      5811 OAC      1        OAC      DO2      DRUD     -2.05180      0.400000           0   0.00000       0.00000    
      5812 OAC      1        OAC      H        DUMH      0.00000       1.00800           0   0.00000       0.00000    
      5813 OAC      1        OAC      LPO11    LPD     -0.383000       0.00000          -1   0.00000       0.00000    
      5814 OAC      1        OAC      LPO12    LPD     -0.383000       0.00000          -1   0.00000       0.00000    
      5815 OAC      1        OAC      LPO21    LPD     -0.383000       0.00000          -1   0.00000       0.00000    
      5816 OAC      1        OAC      LPO22    LPD     -0.383000       0.00000          -1   0.00000       0.00000    
      5817 OAC      2        OAC      C1       CD2O2A    3.18170       11.6110           0  -1.01600      0.899000    
      5818 OAC      2        OAC      DC1      DRUD     -2.47370      0.400000           0   0.00000       0.00000    
      5819 OAC      2        OAC      C2       CD33A     2.98790       11.6110           0  -1.68100       1.41400    
      5820 OAC      2        OAC      DC2      DRUD     -3.18190      0.400000           0   0.00000       0.00000    
      5821 OAC      2        OAC      H1       HDA3A    0.400000E-02   1.00800           0   0.00000       0.00000    
      5822 OAC      2        OAC      H2       HDA3A    0.400000E-02   1.00800           0   0.00000       0.00000    
      5823 OAC      2        OAC      H3       HDA3A    0.400000E-02   1.00800           0   0.00000       0.00000    
      5824 OAC      2        OAC      O1       OD2C2A    2.05480       15.5994           0 -0.699000       2.39900    
      5825 OAC      2        OAC      DO1      DRUD     -2.05180      0.400000           0   0.00000       0.00000    
      5826 OAC      2        OAC      O2       OD2C2A    2.05480       15.5994           0 -0.699000       2.39900    
      5827 OAC      2        OAC      DO2      DRUD     -2.05180      0.400000           0   0.00000       0.00000    
      5828 OAC      2        OAC      H        DUMH      0.00000       1.00800           0   0.00000       0.00000    
      5829 OAC      2        OAC      LPO11    LPD     -0.383000       0.00000          -1   0.00000       0.00000    
      5830 OAC      2        OAC      LPO12    LPD     -0.383000       0.00000          -1   0.00000       0.00000    
      5831 OAC      2        OAC      LPO21    LPD     -0.383000       0.00000          -1   0.00000       0.00000    
      5832 OAC      2        OAC      LPO22    LPD     -0.383000       0.00000          -1   0.00000       0.00000    
      5833 OAC      3        OAC      C1       CD2O2A    3.18170       11.6110           0  -1.01600      0.899000    
      5834 OAC      3        OAC      DC1      DRUD     -2.47370      0.400000           0   0.00000       0.00000    
      5835 OAC      3        OAC      C2       CD33A     2.98790       11.6110           0  -1.68100       1.41400    
      5836 OAC      3        OAC      DC2      DRUD     -3.18190      0.400000           0   0.00000       0.00000    
      5837 OAC      3        OAC      H1       HDA3A    0.400000E-02   1.00800           0   0.00000       0.00000    
      5838 OAC      3        OAC      H2       HDA3A    0.400000E-02   1.00800           0   0.00000       0.00000    
      5839 OAC      3        OAC      H3       HDA3A    0.400000E-02   1.00800           0   0.00000       0.00000    
      5840 OAC      3        OAC      O1       OD2C2A    2.05480       15.5994           0 -0.699000       2.39900    
      5841 OAC      3        OAC      DO1      DRUD     -2.05180      0.400000           0   0.00000       0.00000    
      5842 OAC      3        OAC      O2       OD2C2A    2.05480       15.5994           0 -0.699000       2.39900    
      5843 OAC      3        OAC      DO2      DRUD     -2.05180      0.400000           0   0.00000       0.00000    
      5844 OAC      3        OAC      H        DUMH      0.00000       1.00800           0   0.00000       0.00000    
      5845 OAC      3        OAC      LPO11    LPD     -0.383000       0.00000          -1   0.00000       0.00000    
      5846 OAC      3        OAC      LPO12    LPD     -0.383000       0.00000          -1   0.00000       0.00000    
      5847 OAC      3        OAC      LPO21    LPD     -0.383000       0.00000          -1   0.00000       0.00000    
      5848 OAC      3        OAC      LPO22    LPD     -0.383000       0.00000          -1   0.00000       0.00000    
      5849 OAC      4        OAC      C1       CD2O2A    3.18170       11.6110           0  -1.01600      0.899000    
      5850 OAC      4        OAC      DC1      DRUD     -2.47370      0.400000           0   0.00000       0.00000    
      5851 OAC      4        OAC      C2       CD33A     2.98790       11.6110           0  -1.68100       1.41400    
      5852 OAC      4        OAC      DC2      DRUD     -3.18190      0.400000           0   0.00000       0.00000    
      5853 OAC      4        OAC      H1       HDA3A    0.400000E-02   1.00800           0   0.00000       0.00000    
      5854 OAC      4        OAC      H2       HDA3A    0.400000E-02   1.00800           0   0.00000       0.00000    
      5855 OAC      4        OAC      H3       HDA3A    0.400000E-02   1.00800           0   0.00000       0.00000    
      5856 OAC      4        OAC      O1       OD2C2A    2.05480       15.5994           0 -0.699000       2.39900    
      5857 OAC      4        OAC      DO1      DRUD     -2.05180      0.400000           0   0.00000       0.00000    
      5858 OAC      4        OAC      O2       OD2C2A    2.05480       15.5994           0 -0.699000       2.39900    
      5859 OAC      4        OAC      DO2      DRUD     -2.05180      0.400000           0   0.00000       0.00000    
      5860 OAC      4        OAC      H        DUMH      0.00000       1.00800           0   0.00000       0.00000    
      5861 OAC      4        OAC      LPO11    LPD     -0.383000       0.00000          -1   0.00000       0.00000    
      5862 OAC      4        OAC      LPO12    LPD     -0.383000       0.00000          -1   0.00000       0.00000    
      5863 OAC      4        OAC      LPO21    LPD     -0.383000       0.00000          -1   0.00000       0.00000    
      5864 OAC      4        OAC      LPO22    LPD     -0.383000       0.00000          -1   0.00000       0.00000    
      5865 OAC      5        OAC      C1       CD2O2A    3.18170       11.6110           0  -1.01600      0.899000    
      5866 OAC      5        OAC      DC1      DRUD     -2.47370      0.400000           0   0.00000       0.00000    
      5867 OAC      5        OAC      C2       CD33A     2.98790       11.6110           0  -1.68100       1.41400    
      5868 OAC      5        OAC      DC2      DRUD     -3.18190      0.400000           0   0.00000       0.00000    
      5869 OAC      5        OAC      H1       HDA3A    0.400000E-02   1.00800           0   0.00000       0.00000    
      5870 OAC      5        OAC      H2       HDA3A    0.400000E-02   1.00800           0   0.00000       0.00000    
      5871 OAC      5        OAC      H3       HDA3A    0.400000E-02   1.00800           0   0.00000       0.00000    
      5872 OAC      5        OAC      O1       OD2C2A    2.05480       15.5994           0 -0.699000       2.39900    
      5873 OAC      5        OAC      DO1      DRUD     -2.05180      0.400000           0   0.00000       0.00000    
      5874 OAC      5        OAC      O2       OD2C2A    2.05480       15.5994           0 -0.699000       2.39900    
      5875 OAC      5        OAC      DO2      DRUD     -2.05180      0.400000           0   0.00000       0.00000    
      5876 OAC      5        OAC      H        DUMH      0.00000       1.00800           0   0.00000       0.00000    
      5877 OAC      5        OAC      LPO11    LPD     -0.383000       0.00000          -1   0.00000       0.00000    
      5878 OAC      5        OAC      LPO12    LPD     -0.383000       0.00000          -1   0.00000       0.00000    
      5879 OAC      5        OAC      LPO21    LPD     -0.383000       0.00000          -1   0.00000       0.00000    
      5880 OAC      5        OAC      LPO22    LPD     -0.383000       0.00000          -1   0.00000       0.00000    
      5881 OAC      6        OAC      C1       CD2O2A    3.18170       11.6110           0  -1.01600      0.899000    
      5882 OAC      6        OAC      DC1      DRUD     -2.47370      0.400000           0   0.00000       0.00000    
      5883 OAC      6        OAC      C2       CD33A     2.98790       11.6110           0  -1.68100       1.41400    
      5884 OAC      6        OAC      DC2      DRUD     -3.18190      0.400000           0   0.00000       0.00000    
      5885 OAC      6        OAC      H1       HDA3A    0.400000E-02   1.00800           0   0.00000       0.00000    
      5886 OAC      6        OAC      H2       HDA3A    0.400000E-02   1.00800           0   0.00000       0.00000    
      5887 OAC      6        OAC      H3       HDA3A    0.400000E-02   1.00800           0   0.00000       0.00000    
      5888 OAC      6        OAC      O1       OD2C2A    2.05480       15.5994           0 -0.699000       2.39900    
      5889 OAC      6        OAC      DO1      DRUD     -2.05180      0.400000           0   0.00000       0.00000    
      5890 OAC      6        OAC      O2       OD2C2A    2.05480       15.5994           0 -0.699000       2.39900    
      5891 OAC      6        OAC      DO2      DRUD     -2.05180      0.400000           0   0.00000       0.00000    
      5892 OAC      6        OAC      H        DUMH      0.00000       1.00800           0   0.00000       0.00000    
      5893 OAC      6        OAC      LPO11    LPD     -0.383000       0.00000          -1   0.00000       0.00000    
      5894 OAC      6        OAC      LPO12    LPD     -0.383000       0.00000          -1   0.00000       0.00000    
      5895 OAC      6        OAC      LPO21    LPD     -0.383000       0.00000          -1   0.00000       0.00000    
      5896 OAC      6        OAC      LPO22    LPD     -0.383000       0.00000          -1   0.00000       0.00000    
      5897 OAC      7        OAC      C1       CD2O2A    3.18170       11.6110           0  -1.01600      0.899000    
      5898 OAC      7        OAC      DC1      DRUD     -2.47370      0.400000           0   0.00000       0.00000    
      5899 OAC      7        OAC      C2       CD33A     2.98790       11.6110           0  -1.68100       1.41400    
      5900 OAC      7        OAC      DC2      DRUD     -3.18190      0.400000           0   0.00000       0.00000    
      5901 OAC      7        OAC      H1       HDA3A    0.400000E-02   1.00800           0   0.00000       0.00000    
      5902 OAC      7        OAC      H2       HDA3A    0.400000E-02   1.00800           0   0.00000       0.00000    
      5903 OAC      7        OAC      H3       HDA3A    0.400000E-02   1.00800           0   0.00000       0.00000    
      5904 OAC      7        OAC      O1       OD2C2A    2.05480       15.5994           0 -0.699000       2.39900    
      5905 OAC      7        OAC      DO1      DRUD     -2.05180      0.400000           0   0.00000       0.00000    
      5906 OAC      7        OAC      O2       OD2C2A    2.05480       15.5994           0 -0.699000       2.39900    
      5907 OAC      7        OAC      DO2      DRUD     -2.05180      0.400000           0   0.00000       0.00000    
      5908 OAC      7        OAC      H        DUMH      0.00000       1.00800           0   0.00000       0.00000    
      5909 OAC      7        OAC      LPO11    LPD     -0.383000       0.00000          -1   0.00000       0.00000    
      5910 OAC      7        OAC      LPO12    LPD     -0.383000       0.00000          -1   0.00000       0.00000    
      5911 OAC      7        OAC      LPO21    LPD     -0.383000       0.00000          -1   0.00000       0.00000    
      5912 OAC      7        OAC      LPO22    LPD     -0.383000       0.00000          -1   0.00000       0.00000    
      5913 OAC      8        OAC      C1       CD2O2A    3.18170       11.6110           0  -1.01600      0.899000    
      5914 OAC      8        OAC      DC1      DRUD     -2.47370      0.400000           0   0.00000       0.00000    
      5915 OAC      8        OAC      C2       CD33A     2.98790       11.6110           0  -1.68100       1.41400    
      5916 OAC      8        OAC      DC2      DRUD     -3.18190      0.400000           0   0.00000       0.00000    
      5917 OAC      8        OAC      H1       HDA3A    0.400000E-02   1.00800           0   0.00000       0.00000    
      5918 OAC      8        OAC      H2       HDA3A    0.400000E-02   1.00800           0   0.00000       0.00000    
      5919 OAC      8        OAC      H3       HDA3A    0.400000E-02   1.00800           0   0.00000       0.00000    
      5920 OAC      8        OAC      O1       OD2C2A    2.05480       15.5994           0 -0.699000       2.39900    
      5921 OAC      8        OAC      DO1      DRUD     -2.05180      0.400000           0   0.00000       0.00000    
      5922 OAC      8        OAC      O2       OD2C2A    2.05480       15.5994           0 -0.699000       2.39900    
      5923 OAC      8        OAC      DO2      DRUD     -2.05180      0.400000           0   0.00000       0.00000    
      5924 OAC      8        OAC      H        DUMH      0.00000       1.00800           0   0.00000       0.00000    
      5925 OAC      8        OAC      LPO11    LPD     -0.383000       0.00000          -1   0.00000       0.00000    
      5926 OAC      8        OAC      LPO12    LPD     -0.383000       0.00000          -1   0.00000       0.00000    
      5927 OAC      8        OAC      LPO21    LPD     -0.383000       0.00000          -1   0.00000       0.00000    
      5928 OAC      8        OAC      LPO22    LPD     -0.383000       0.00000          -1   0.00000       0.00000    
      5929 OAC      9        OAC      C1       CD2O2A    3.18170       11.6110           0  -1.01600      0.899000    
      5930 OAC      9        OAC      DC1      DRUD     -2.47370      0.400000           0   0.00000       0.00000    
      5931 OAC      9        OAC      C2       CD33A     2.98790       11.6110           0  -1.68100       1.41400    
      5932 OAC      9        OAC      DC2      DRUD     -3.18190      0.400000           0   0.00000       0.00000    
      5933 OAC      9        OAC      H1       HDA3A    0.400000E-02   1.00800           0   0.00000       0.00000    
      5934 OAC      9        OAC      H2       HDA3A    0.400000E-02   1.00800           0   0.00000       0.00000    
      5935 OAC      9        OAC      H3       HDA3A    0.400000E-02   1.00800           0   0.00000       0.00000    
      5936 OAC      9        OAC      O1       OD2C2A    2.05480       15.5994           0 -0.699000       2.39900    
      5937 OAC      9        OAC      DO1      DRUD     -2.05180      0.400000           0   0.00000       0.00000    
      5938 OAC      9        OAC      O2       OD2C2A    2.05480       15.5994           0 -0.699000       2.39900    
      5939 OAC      9        OAC      DO2      DRUD     -2.05180      0.400000           0   0.00000       0.00000    
      5940 OAC      9        OAC      H        DUMH      0.00000       1.00800           0   0.00000       0.00000    
      5941 OAC      9        OAC      LPO11    LPD     -0.383000       0.00000          -1   0.00000       0.00000    
      5942 OAC      9        OAC      LPO12    LPD     -0.383000       0.00000          -1   0.00000       0.00000    
      5943 OAC      9        OAC      LPO21    LPD     -0.383000       0.00000          -1   0.00000       0.00000    
      5944 OAC      9        OAC      LPO22    LPD     -0.383000       0.00000          -1   0.00000       0.00000    
      5945 OAC      10       OAC      C1       CD2O2A    3.18170       11.6110           0  -1.01600      0.899000    
      5946 OAC      10       OAC      DC1      DRUD     -2.47370      0.400000           0   0.00000       0.00000    
      5947 OAC      10       OAC      C2       CD33A     2.98790       11.6110           0  -1.68100       1.41400    
      5948 OAC      10       OAC      DC2      DRUD     -3.18190      0.400000           0   0.00000       0.00000    
      5949 OAC      10       OAC      H1       HDA3A    0.400000E-02   1.00800           0   0.00000       0.00000    
      5950 OAC      10       OAC      H2       HDA3A    0.400000E-02   1.00800           0   0.00000       0.00000    
      5951 OAC      10       OAC      H3       HDA3A    0.400000E-02   1.00800           0   0.00000       0.00000    
      5952 OAC      10       OAC      O1       OD2C2A    2.05480       15.5994           0 -0.699000       2.39900    
      5953 OAC      10       OAC      DO1      DRUD     -2.05180      0.400000           0   0.00000       0.00000    
      5954 OAC      10       OAC      O2       OD2C2A    2.05480       15.5994           0 -0.699000       2.39900    
      5955 OAC      10       OAC      DO2      DRUD     -2.05180      0.400000           0   0.00000       0.00000    
      5956 OAC      10       OAC      H        DUMH      0.00000       1.00800           0   0.00000       0.00000    
      5957 OAC      10       OAC      LPO11    LPD     -0.383000       0.00000          -1   0.00000       0.00000    
      5958 OAC      10       OAC      LPO12    LPD     -0.383000       0.00000          -1   0.00000       0.00000    
      5959 OAC      10       OAC      LPO21    LPD     -0.383000       0.00000          -1   0.00000       0.00000    
      5960 OAC      10       OAC      LPO22    LPD     -0.383000       0.00000          -1   0.00000       0.00000    
      5961 OAC      11       OAC      C1       CD2O2A    3.18170       11.6110           0  -1.01600      0.899000    
      5962 OAC      11       OAC      DC1      DRUD     -2.47370      0.400000           0   0.00000       0.00000    
      5963 OAC      11       OAC      C2       CD33A     2.98790       11.6110           0  -1.68100       1.41400    
      5964 OAC      11       OAC      DC2      DRUD     -3.18190      0.400000           0   0.00000       0.00000    
      5965 OAC      11       OAC      H1       HDA3A    0.400000E-02   1.00800           0   0.00000       0.00000    
      5966 OAC      11       OAC      H2       HDA3A    0.400000E-02   1.00800           0   0.00000       0.00000    
      5967 OAC      11       OAC      H3       HDA3A    0.400000E-02   1.00800           0   0.00000       0.00000    
      5968 OAC      11       OAC      O1       OD2C2A    2.05480       15.5994           0 -0.699000       2.39900    
      5969 OAC      11       OAC      DO1      DRUD     -2.05180      0.400000           0   0.00000       0.00000    
      5970 OAC      11       OAC      O2       OD2C2A    2.05480       15.5994           0 -0.699000       2.39900    
      5971 OAC      11       OAC      DO2      DRUD     -2.05180      0.400000           0   0.00000       0.00000    
      5972 OAC      11       OAC      H        DUMH      0.00000       1.00800           0   0.00000       0.00000    
      5973 OAC      11       OAC      LPO11    LPD     -0.383000       0.00000          -1   0.00000       0.00000    
      5974 OAC      11       OAC      LPO12    LPD     -0.383000       0.00000          -1   0.00000       0.00000    
      5975 OAC      11       OAC      LPO21    LPD     -0.383000       0.00000          -1   0.00000       0.00000    
      5976 OAC      11       OAC      LPO22    LPD     -0.383000       0.00000          -1   0.00000       0.00000    
      5977 OAC      12       OAC      C1       CD2O2A    3.18170       11.6110           0  -1.01600      0.899000    
      5978 OAC      12       OAC      DC1      DRUD     -2.47370      0.400000           0   0.00000       0.00000    
      5979 OAC      12       OAC      C2       CD33A     2.98790       11.6110           0  -1.68100       1.41400    
      5980 OAC      12       OAC      DC2      DRUD     -3.18190      0.400000           0   0.00000       0.00000    
      5981 OAC      12       OAC      H1       HDA3A    0.400000E-02   1.00800           0   0.00000       0.00000    
      5982 OAC      12       OAC      H2       HDA3A    0.400000E-02   1.00800           0   0.00000       0.00000    
      5983 OAC      12       OAC      H3       HDA3A    0.400000E-02   1.00800           0   0.00000       0.00000    
      5984 OAC      12       OAC      O1       OD2C2A    2.05480       15.5994           0 -0.699000       2.39900    
      5985 OAC      12       OAC      DO1      DRUD     -2.05180      0.400000           0   0.00000       0.00000    
      5986 OAC      12       OAC      O2       OD2C2A    2.05480       15.5994           0 -0.699000       2.39900    
      5987 OAC      12       OAC      DO2      DRUD     -2.05180      0.400000           0   0.00000       0.00000    
      5988 OAC      12       OAC      H        DUMH      0.00000       1.00800           0   0.00000       0.00000    
      5989 OAC      12       OAC      LPO11    LPD     -0.383000       0.00000          -1   0.00000       0.00000    
      5990 OAC      12       OAC      LPO12    LPD     -0.383000       0.00000          -1   0.00000       0.00000    
      5991 OAC      12       OAC      LPO21    LPD     -0.383000       0.00000          -1   0.00000       0.00000    
      5992 OAC      12       OAC      LPO22    LPD     -0.383000       0.00000          -1   0.00000       0.00000    
      5993 OAC      13       OAC      C1       CD2O2A    3.18170       11.6110           0  -1.01600      0.899000    
      5994 OAC      13       OAC      DC1      DRUD     -2.47370      0.400000           0   0.00000       0.00000    
      5995 OAC      13       OAC      C2       CD33A     2.98790       11.6110           0  -1.68100       1.41400    
      5996 OAC      13       OAC      DC2      DRUD     -3.18190      0.400000           0   0.00000       0.00000    
      5997 OAC      13       OAC      H1       HDA3A    0.400000E-02   1.00800           0   0.00000       0.00000    
      5998 OAC      13       OAC      H2       HDA3A    0.400000E-02   1.00800           0   0.00000       0.00000    
      5999 OAC      13       OAC      H3       HDA3A    0.400000E-02   1.00800           0   0.00000       0.00000    
      6000 OAC      13       OAC      O1       OD2C2A    2.05480       15.5994           0 -0.699000       2.39900    
      6001 OAC      13       OAC      DO1      DRUD     -2.05180      0.400000           0   0.00000       0.00000    
      6002 OAC      13       OAC      O2       OD2C2A    2.05480       15.5994           0 -0.699000       2.39900    
      6003 OAC      13       OAC      DO2      DRUD     -2.05180      0.400000           0   0.00000       0.00000    
      6004 OAC      13       OAC      H        DUMH      0.00000       1.00800           0   0.00000       0.00000    
      6005 OAC      13       OAC      LPO11    LPD     -0.383000       0.00000          -1   0.00000       0.00000    
      6006 OAC      13       OAC      LPO12    LPD     -0.383000       0.00000          -1   0.00000       0.00000    
      6007 OAC      13       OAC      LPO21    LPD     -0.383000       0.00000          -1   0.00000       0.00000    
      6008 OAC      13       OAC      LPO22    LPD     -0.383000       0.00000          -1   0.00000       0.00000    
      6009 OAC      14       OAC      C1       CD2O2A    3.18170       11.6110           0  -1.01600      0.899000    
      6010 OAC      14       OAC      DC1      DRUD     -2.47370      0.400000           0   0.00000       0.00000    
      6011 OAC      14       OAC      C2       CD33A     2.98790       11.6110           0  -1.68100       1.41400    
      6012 OAC      14       OAC      DC2      DRUD     -3.18190      0.400000           0   0.00000       0.00000    
      6013 OAC      14       OAC      H1       HDA3A    0.400000E-02   1.00800           0   0.00000       0.00000    
      6014 OAC      14       OAC      H2       HDA3A    0.400000E-02   1.00800           0   0.00000       0.00000    
      6015 OAC      14       OAC      H3       HDA3A    0.400000E-02   1.00800           0   0.00000       0.00000    
      6016 OAC      14       OAC      O1       OD2C2A    2.05480       15.5994           0 -0.699000       2.39900    
      6017 OAC      14       OAC      DO1      DRUD     -2.05180      0.400000           0   0.00000       0.00000    
      6018 OAC      14       OAC      O2       OD2C2A    2.05480       15.5994           0 -0.699000       2.39900    
      6019 OAC      14       OAC      DO2      DRUD     -2.05180      0.400000           0   0.00000       0.00000    
      6020 OAC      14       OAC      H        DUMH      0.00000       1.00800           0   0.00000       0.00000    
      6021 OAC      14       OAC      LPO11    LPD     -0.383000       0.00000          -1   0.00000       0.00000    
      6022 OAC      14       OAC      LPO12    LPD     -0.383000       0.00000          -1   0.00000       0.00000    
      6023 OAC      14       OAC      LPO21    LPD     -0.383000       0.00000          -1   0.00000       0.00000    
      6024 OAC      14       OAC      LPO22    LPD     -0.383000       0.00000          -1   0.00000       0.00000    
      6025 OAC      15       OAC      C1       CD2O2A    3.18170       11.6110           0  -1.01600      0.899000    
      6026 OAC      15       OAC      DC1      DRUD     -2.47370      0.400000           0   0.00000       0.00000    
      6027 OAC      15       OAC      C2       CD33A     2.98790       11.6110           0  -1.68100       1.41400    
      6028 OAC      15       OAC      DC2      DRUD     -3.18190      0.400000           0   0.00000       0.00000    
      6029 OAC      15       OAC      H1       HDA3A    0.400000E-02   1.00800           0   0.00000       0.00000    
      6030 OAC      15       OAC      H2       HDA3A    0.400000E-02   1.00800           0   0.00000       0.00000    
      6031 OAC      15       OAC      H3       HDA3A    0.400000E-02   1.00800           0   0.00000       0.00000    
      6032 OAC      15       OAC      O1       OD2C2A    2.05480       15.5994           0 -0.699000       2.39900    
      6033 OAC      15       OAC      DO1      DRUD     -2.05180      0.400000           0   0.00000       0.00000    
      6034 OAC      15       OAC      O2       OD2C2A    2.05480       15.5994           0 -0.699000       2.39900    
      6035 OAC      15       OAC      DO2      DRUD     -2.05180      0.400000           0   0.00000       0.00000    
      6036 OAC      15       OAC      H        DUMH      0.00000       1.00800           0   0.00000       0.00000    
      6037 OAC      15       OAC      LPO11    LPD     -0.383000       0.00000          -1   0.00000       0.00000    
      6038 OAC      15       OAC      LPO12    LPD     -0.383000       0.00000          -1   0.00000       0.00000    
      6039 OAC      15       OAC      LPO21    LPD     -0.383000       0.00000          -1   0.00000       0.00000    
      6040 OAC      15       OAC      LPO22    LPD     -0.383000       0.00000          -1   0.00000       0.00000    
      6041 OAC      16       OAC      C1       CD2O2A    3.18170       11.6110           0  -1.01600      0.899000    
      6042 OAC      16       OAC      DC1      DRUD     -2.47370      0.400000           0   0.00000       0.00000    
      6043 OAC      16       OAC      C2       CD33A     2.98790       11.6110           0  -1.68100       1.41400    
      6044 OAC      16       OAC      DC2      DRUD     -3.18190      0.400000           0   0.00000       0.00000    
      6045 OAC      16       OAC      H1       HDA3A    0.400000E-02   1.00800           0   0.00000       0.00000    
      6046 OAC      16       OAC      H2       HDA3A    0.400000E-02   1.00800           0   0.00000       0.00000    
      6047 OAC      16       OAC      H3       HDA3A    0.400000E-02   1.00800           0   0.00000       0.00000    
      6048 OAC      16       OAC      O1       OD2C2A    2.05480       15.5994           0 -0.699000       2.39900    
      6049 OAC      16       OAC      DO1      DRUD     -2.05180      0.400000           0   0.00000       0.00000    
      6050 OAC      16       OAC      O2       OD2C2A    2.05480       15.5994           0 -0.699000       2.39900    
      6051 OAC      16       OAC      DO2      DRUD     -2.05180      0.400000           0   0.00000       0.00000    
      6052 OAC      16       OAC      H        DUMH      0.00000       1.00800           0   0.00000       0.00000    
      6053 OAC      16       OAC      LPO11    LPD     -0.383000       0.00000          -1   0.00000       0.00000    
      6054 OAC      16       OAC      LPO12    LPD     -0.383000       0.00000          -1   0.00000       0.00000    
      6055 OAC      16       OAC      LPO21    LPD     -0.383000       0.00000          -1   0.00000       0.00000    
      6056 OAC      16       OAC      LPO22    LPD     -0.383000       0.00000          -1   0.00000       0.00000    
      6057 OAC      17       OAC      C1       CD2O2A    3.18170       11.6110           0  -1.01600      0.899000    
      6058 OAC      17       OAC      DC1      DRUD     -2.47370      0.400000           0   0.00000       0.00000    
      6059 OAC      17       OAC      C2       CD33A     2.98790       11.6110           0  -1.68100       1.41400    
      6060 OAC      17       OAC      DC2      DRUD     -3.18190      0.400000           0   0.00000       0.00000    
      6061 OAC      17       OAC      H1       HDA3A    0.400000E-02   1.00800           0   0.00000       0.00000    
      6062 OAC      17       OAC      H2       HDA3A    0.400000E-02   1.00800           0   0.00000       0.00000    
      6063 OAC      17       OAC      H3       HDA3A    0.400000E-02   1.00800           0   0.00000       0.00000    
      6064 OAC      17       OAC      O1       OD2C2A    2.05480       15.5994           0 -0.699000       2.39900    
      6065 OAC      17       OAC      DO1      DRUD     -2.05180      0.400000           0   0.00000       0.00000    
      6066 OAC      17       OAC      O2       OD2C2A    2.05480       15.5994           0 -0.699000       2.39900    
      6067 OAC      17       OAC      DO2      DRUD     -2.05180      0.400000           0   0.00000       0.00000    
      6068 OAC      17       OAC      H        DUMH      0.00000       1.00800           0   0.00000       0.00000    
      6069 OAC      17       OAC      LPO11    LPD     -0.383000       0.00000          -1   0.00000       0.00000    
      6070 OAC      17       OAC      LPO12    LPD     -0.383000       0.00000          -1   0.00000       0.00000    
      6071 OAC      17       OAC      LPO21    LPD     -0.383000       0.00000          -1   0.00000       0.00000    
      6072 OAC      17       OAC      LPO22    LPD     -0.383000       0.00000          -1   0.00000       0.00000    
      6073 OAC      18       OAC      C1       CD2O2A    3.18170       11.6110           0  -1.01600      0.899000    
      6074 OAC      18       OAC      DC1      DRUD     -2.47370      0.400000           0   0.00000       0.00000    
      6075 OAC      18       OAC      C2       CD33A     2.98790       11.6110           0  -1.68100       1.41400    
      6076 OAC      18       OAC      DC2      DRUD     -3.18190      0.400000           0   0.00000       0.00000    
      6077 OAC      18       OAC      H1       HDA3A    0.400000E-02   1.00800           0   0.00000       0.00000    
      6078 OAC      18       OAC      H2       HDA3A    0.400000E-02   1.00800           0   0.00000       0.00000    
      6079 OAC      18       OAC      H3       HDA3A    0.400000E-02   1.00800           0   0.00000       0.00000    
      6080 OAC      18       OAC      O1       OD2C2A    2.05480       15.5994           0 -0.699000       2.39900    
      6081 OAC      18       OAC      DO1      DRUD     -2.05180      0.400000           0   0.00000       0.00000    
      6082 OAC      18       OAC      O2       OD2C2A    2.05480       15.5994           0 -0.699000       2.39900    
      6083 OAC      18       OAC      DO2      DRUD     -2.05180      0.400000           0   0.00000       0.00000    
      6084 OAC      18       OAC      H        DUMH      0.00000       1.00800           0   0.00000       0.00000    
      6085 OAC      18       OAC      LPO11    LPD     -0.383000       0.00000          -1   0.00000       0.00000    
      6086 OAC      18       OAC      LPO12    LPD     -0.383000       0.00000          -1   0.00000       0.00000    
      6087 OAC      18       OAC      LPO21    LPD     -0.383000       0.00000          -1   0.00000       0.00000    
      6088 OAC      18       OAC      LPO22    LPD     -0.383000       0.00000          -1   0.00000       0.00000    
      6089 OAC      19       OAC      C1       CD2O2A    3.18170       11.6110           0  -1.01600      0.899000    
      6090 OAC      19       OAC      DC1      DRUD     -2.47370      0.400000           0   0.00000       0.00000    
      6091 OAC      19       OAC      C2       CD33A     2.98790       11.6110           0  -1.68100       1.41400    
      6092 OAC      19       OAC      DC2      DRUD     -3.18190      0.400000           0   0.00000       0.00000    
      6093 OAC      19       OAC      H1       HDA3A    0.400000E-02   1.00800           0   0.00000       0.00000    
      6094 OAC      19       OAC      H2       HDA3A    0.400000E-02   1.00800           0   0.00000       0.00000    
      6095 OAC      19       OAC      H3       HDA3A    0.400000E-02   1.00800           0   0.00000       0.00000    
      6096 OAC      19       OAC      O1       OD2C2A    2.05480       15.5994           0 -0.699000       2.39900    
      6097 OAC      19       OAC      DO1      DRUD     -2.05180      0.400000           0   0.00000       0.00000    
      6098 OAC      19       OAC      O2       OD2C2A    2.05480       15.5994           0 -0.699000       2.39900    
      6099 OAC      19       OAC      DO2      DRUD     -2.05180      0.400000           0   0.00000       0.00000    
      6100 OAC      19       OAC      H        DUMH      0.00000       1.00800           0   0.00000       0.00000    
      6101 OAC      19       OAC      LPO11    LPD     -0.383000       0.00000          -1   0.00000       0.00000    
      6102 OAC      19       OAC      LPO12    LPD     -0.383000       0.00000          -1   0.00000       0.00000    
      6103 OAC      19       OAC      LPO21    LPD     -0.383000       0.00000          -1   0.00000       0.00000    
      6104 OAC      19       OAC      LPO22    LPD     -0.383000       0.00000          -1   0.00000       0.00000    
      6105 OAC      20       OAC      C1       CD2O2A    3.18170       11.6110           0  -1.01600      0.899000    
      6106 OAC      20       OAC      DC1      DRUD     -2.47370      0.400000           0   0.00000       0.00000    
      6107 OAC      20       OAC      C2       CD33A     2.98790       11.6110           0  -1.68100       1.41400    
      6108 OAC      20       OAC      DC2      DRUD     -3.18190      0.400000           0   0.00000       0.00000    
      6109 OAC      20       OAC      H1       HDA3A    0.400000E-02   1.00800           0   0.00000       0.00000    
      6110 OAC      20       OAC      H2       HDA3A    0.400000E-02   1.00800           0   0.00000       0.00000    
      6111 OAC      20       OAC      H3       HDA3A    0.400000E-02   1.00800           0   0.00000       0.00000    
      6112 OAC      20       OAC      O1       OD2C2A    2.05480       15.5994           0 -0.699000       2.39900    
      6113 OAC      20       OAC      DO1      DRUD     -2.05180      0.400000           0   0.00000       0.00000    
      6114 OAC      20       OAC      O2       OD2C2A    2.05480       15.5994           0 -0.699000       2.39900    
      6115 OAC      20       OAC      DO2      DRUD     -2.05180      0.400000           0   0.00000       0.00000    
      6116 OAC      20       OAC      H        DUMH      0.00000       1.00800           0   0.00000       0.00000    
      6117 OAC      20       OAC      LPO11    LPD     -0.383000       0.00000          -1   0.00000       0.00000    
      6118 OAC      20       OAC      LPO12    LPD     -0.383000       0.00000          -1   0.00000       0.00000    
      6119 OAC      20       OAC      LPO21    LPD     -0.383000       0.00000          -1   0.00000       0.00000    
      6120 OAC      20       OAC      LPO22    LPD     -0.383000       0.00000          -1   0.00000       0.00000    
      6121 OAC      21       OAC      C1       CD2O2A    3.18170       11.6110           0  -1.01600      0.899000    
      6122 OAC      21       OAC      DC1      DRUD     -2.47370      0.400000           0   0.00000       0.00000    
      6123 OAC      21       OAC      C2       CD33A     2.98790       11.6110           0  -1.68100       1.41400    
      6124 OAC      21       OAC      DC2      DRUD     -3.18190      0.400000           0   0.00000       0.00000    
      6125 OAC      21       OAC      H1       HDA3A    0.400000E-02   1.00800           0   0.00000       0.00000    
      6126 OAC      21       OAC      H2       HDA3A    0.400000E-02   1.00800           0   0.00000       0.00000    
      6127 OAC      21       OAC      H3       HDA3A    0.400000E-02   1.00800           0   0.00000       0.00000    
      6128 OAC      21       OAC      O1       OD2C2A    2.05480       15.5994           0 -0.699000       2.39900    
      6129 OAC      21       OAC      DO1      DRUD     -2.05180      0.400000           0   0.00000       0.00000    
      6130 OAC      21       OAC      O2       OD2C2A    2.05480       15.5994           0 -0.699000       2.39900    
      6131 OAC      21       OAC      DO2      DRUD     -2.05180      0.400000           0   0.00000       0.00000    
      6132 OAC      21       OAC      H        DUMH      0.00000       1.00800           0   0.00000       0.00000    
      6133 OAC      21       OAC      LPO11    LPD     -0.383000       0.00000          -1   0.00000       0.00000    
      6134 OAC      21       OAC      LPO12    LPD     -0.383000       0.00000          -1   0.00000       0.00000    
      6135 OAC      21       OAC      LPO21    LPD     -0.383000       0.00000          -1   0.00000       0.00000    
      6136 OAC      21       OAC      LPO22    LPD     -0.383000       0.00000          -1   0.00000       0.00000    
      6137 OAC      22       OAC      C1       CD2O2A    3.18170       11.6110           0  -1.01600      0.899000    
      6138 OAC      22       OAC      DC1      DRUD     -2.47370      0.400000           0   0.00000       0.00000    
      6139 OAC      22       OAC      C2       CD33A     2.98790       11.6110           0  -1.68100       1.41400    
      6140 OAC      22       OAC      DC2      DRUD     -3.18190      0.400000           0   0.00000       0.00000    
      6141 OAC      22       OAC      H1       HDA3A    0.400000E-02   1.00800           0   0.00000       0.00000    
      6142 OAC      22       OAC      H2       HDA3A    0.400000E-02   1.00800           0   0.00000       0.00000    
      6143 OAC      22       OAC      H3       HDA3A    0.400000E-02   1.00800           0   0.00000       0.00000    
      6144 OAC      22       OAC      O1       OD2C2A    2.05480       15.5994           0 -0.699000       2.39900    
      6145 OAC      22       OAC      DO1      DRUD     -2.05180      0.400000           0   0.00000       0.00000    
      6146 OAC      22       OAC      O2       OD2C2A    2.05480       15.5994           0 -0.699000       2.39900    
      6147 OAC      22       OAC      DO2      DRUD     -2.05180      0.400000           0   0.00000       0.00000    
      6148 OAC      22       OAC      H        DUMH      0.00000       1.00800           0   0.00000       0.00000    
      6149 OAC      22       OAC      LPO11    LPD     -0.383000       0.00000          -1   0.00000       0.00000    
      6150 OAC      22       OAC      LPO12    LPD     -0.383000       0.00000          -1   0.00000       0.00000    
      6151 OAC      22       OAC      LPO21    LPD     -0.383000       0.00000          -1   0.00000       0.00000    
      6152 OAC      22       OAC      LPO22    LPD     -0.383000       0.00000          -1   0.00000       0.00000    
      6153 OAC      23       OAC      C1       CD2O2A    3.18170       11.6110           0  -1.01600      0.899000    
      6154 OAC      23       OAC      DC1      DRUD     -2.47370      0.400000           0   0.00000       0.00000    
      6155 OAC      23       OAC      C2       CD33A     2.98790       11.6110           0  -1.68100       1.41400    
      6156 OAC      23       OAC      DC2      DRUD     -3.18190      0.400000           0   0.00000       0.00000    
      6157 OAC      23       OAC      H1       HDA3A    0.400000E-02   1.00800           0   0.00000       0.00000    
      6158 OAC      23       OAC      H2       HDA3A    0.400000E-02   1.00800           0   0.00000       0.00000    
      6159 OAC      23       OAC      H3       HDA3A    0.400000E-02   1.00800           0   0.00000       0.00000    
      6160 OAC      23       OAC      O1       OD2C2A    2.05480       15.5994           0 -0.699000       2.39900    
      6161 OAC      23       OAC      DO1      DRUD     -2.05180      0.400000           0   0.00000       0.00000    
      6162 OAC      23       OAC      O2       OD2C2A    2.05480       15.5994           0 -0.699000       2.39900    
      6163 OAC      23       OAC      DO2      DRUD     -2.05180      0.400000           0   0.00000       0.00000    
      6164 OAC      23       OAC      H        DUMH      0.00000       1.00800           0   0.00000       0.00000    
      6165 OAC      23       OAC      LPO11    LPD     -0.383000       0.00000          -1   0.00000       0.00000    
      6166 OAC      23       OAC      LPO12    LPD     -0.383000       0.00000          -1   0.00000       0.00000    
      6167 OAC      23       OAC      LPO21    LPD     -0.383000       0.00000          -1   0.00000       0.00000    
      6168 OAC      23       OAC      LPO22    LPD     -0.383000       0.00000          -1   0.00000       0.00000    
      6169 OAC      24       OAC      C1       CD2O2A    3.18170       11.6110           0  -1.01600      0.899000    
      6170 OAC      24       OAC      DC1      DRUD     -2.47370      0.400000           0   0.00000       0.00000    
      6171 OAC      24       OAC      C2       CD33A     2.98790       11.6110           0  -1.68100       1.41400    
      6172 OAC      24       OAC      DC2      DRUD     -3.18190      0.400000           0   0.00000       0.00000    
      6173 OAC      24       OAC      H1       HDA3A    0.400000E-02   1.00800           0   0.00000       0.00000    
      6174 OAC      24       OAC      H2       HDA3A    0.400000E-02   1.00800           0   0.00000       0.00000    
      6175 OAC      24       OAC      H3       HDA3A    0.400000E-02   1.00800           0   0.00000       0.00000    
      6176 OAC      24       OAC      O1       OD2C2A    2.05480       15.5994           0 -0.699000       2.39900    
      6177 OAC      24       OAC      DO1      DRUD     -2.05180      0.400000           0   0.00000       0.00000    
      6178 OAC      24       OAC      O2       OD2C2A    2.05480       15.5994           0 -0.699000       2.39900    
      6179 OAC      24       OAC      DO2      DRUD     -2.05180      0.400000           0   0.00000       0.00000    
      6180 OAC      24       OAC      H        DUMH      0.00000       1.00800           0   0.00000       0.00000    
      6181 OAC      24       OAC      LPO11    LPD     -0.383000       0.00000          -1   0.00000       0.00000    
      6182 OAC      24       OAC      LPO12    LPD     -0.383000       0.00000          -1   0.00000       0.00000    
      6183 OAC      24       OAC      LPO21    LPD     -0.383000       0.00000          -1   0.00000       0.00000    
      6184 OAC      24       OAC      LPO22    LPD     -0.383000       0.00000          -1   0.00000       0.00000    
      6185 OAC      25       OAC      C1       CD2O2A    3.18170       11.6110           0  -1.01600      0.899000    
      6186 OAC      25       OAC      DC1      DRUD     -2.47370      0.400000           0   0.00000       0.00000    
      6187 OAC      25       OAC      C2       CD33A     2.98790       11.6110           0  -1.68100       1.41400    
      6188 OAC      25       OAC      DC2      DRUD     -3.18190      0.400000           0   0.00000       0.00000    
      6189 OAC      25       OAC      H1       HDA3A    0.400000E-02   1.00800           0   0.00000       0.00000    
      6190 OAC      25       OAC      H2       HDA3A    0.400000E-02   1.00800           0   0.00000       0.00000    
      6191 OAC      25       OAC      H3       HDA3A    0.400000E-02   1.00800           0   0.00000       0.00000    
      6192 OAC      25       OAC      O1       OD2C2A    2.05480       15.5994           0 -0.699000       2.39900    
      6193 OAC      25       OAC      DO1      DRUD     -2.05180      0.400000           0   0.00000       0.00000    
      6194 OAC      25       OAC      O2       OD2C2A    2.05480       15.5994           0 -0.699000       2.39900    
      6195 OAC      25       OAC      DO2      DRUD     -2.05180      0.400000           0   0.00000       0.00000    
      6196 OAC      25       OAC      H        DUMH      0.00000       1.00800           0   0.00000       0.00000    
      6197 OAC      25       OAC      LPO11    LPD     -0.383000       0.00000          -1   0.00000       0.00000    
      6198 OAC      25       OAC      LPO12    LPD     -0.383000       0.00000          -1   0.00000       0.00000    
      6199 OAC      25       OAC      LPO21    LPD     -0.383000       0.00000          -1   0.00000       0.00000    
      6200 OAC      25       OAC      LPO22    LPD     -0.383000       0.00000          -1   0.00000       0.00000    
      6201 OAC      26       OAC      C1       CD2O2A    3.18170       11.6110           0  -1.01600      0.899000    
      6202 OAC      26       OAC      DC1      DRUD     -2.47370      0.400000           0   0.00000       0.00000    
      6203 OAC      26       OAC      C2       CD33A     2.98790       11.6110           0  -1.68100       1.41400    
      6204 OAC      26       OAC      DC2      DRUD     -3.18190      0.400000           0   0.00000       0.00000    
      6205 OAC      26       OAC      H1       HDA3A    0.400000E-02   1.00800           0   0.00000       0.00000    
      6206 OAC      26       OAC      H2       HDA3A    0.400000E-02   1.00800           0   0.00000       0.00000    
      6207 OAC      26       OAC      H3       HDA3A    0.400000E-02   1.00800           0   0.00000       0.00000    
      6208 OAC      26       OAC      O1       OD2C2A    2.05480       15.5994           0 -0.699000       2.39900    
      6209 OAC      26       OAC      DO1      DRUD     -2.05180      0.400000           0   0.00000       0.00000    
      6210 OAC      26       OAC      O2       OD2C2A    2.05480       15.5994           0 -0.699000       2.39900    
      6211 OAC      26       OAC      DO2      DRUD     -2.05180      0.400000           0   0.00000       0.00000    
      6212 OAC      26       OAC      H        DUMH      0.00000       1.00800           0   0.00000       0.00000    
      6213 OAC      26       OAC      LPO11    LPD     -0.383000       0.00000          -1   0.00000       0.00000    
      6214 OAC      26       OAC      LPO12    LPD     -0.383000       0.00000          -1   0.00000       0.00000    
      6215 OAC      26       OAC      LPO21    LPD     -0.383000       0.00000          -1   0.00000       0.00000    
      6216 OAC      26       OAC      LPO22    LPD     -0.383000       0.00000          -1   0.00000       0.00000    
      6217 OAC      27       OAC      C1       CD2O2A    3.18170       11.6110           0  -1.01600      0.899000    
      6218 OAC      27       OAC      DC1      DRUD     -2.47370      0.400000           0   0.00000       0.00000    
      6219 OAC      27       OAC      C2       CD33A     2.98790       11.6110           0  -1.68100       1.41400    
      6220 OAC      27       OAC      DC2      DRUD     -3.18190      0.400000           0   0.00000       0.00000    
      6221 OAC      27       OAC      H1       HDA3A    0.400000E-02   1.00800           0   0.00000       0.00000    
      6222 OAC      27       OAC      H2       HDA3A    0.400000E-02   1.00800           0   0.00000       0.00000    
      6223 OAC      27       OAC      H3       HDA3A    0.400000E-02   1.00800           0   0.00000       0.00000    
      6224 OAC      27       OAC      O1       OD2C2A    2.05480       15.5994           0 -0.699000       2.39900    
      6225 OAC      27       OAC      DO1      DRUD     -2.05180      0.400000           0   0.00000       0.00000    
      6226 OAC      27       OAC      O2       OD2C2A    2.05480       15.5994           0 -0.699000       2.39900    
      6227 OAC      27       OAC      DO2      DRUD     -2.05180      0.400000           0   0.00000       0.00000    
      6228 OAC      27       OAC      H        DUMH      0.00000       1.00800           0   0.00000       0.00000    
      6229 OAC      27       OAC      LPO11    LPD     -0.383000       0.00000          -1   0.00000       0.00000    
      6230 OAC      27       OAC      LPO12    LPD     -0.383000       0.00000          -1   0.00000       0.00000    
      6231 OAC      27       OAC      LPO21    LPD     -0.383000       0.00000          -1   0.00000       0.00000    
      6232 OAC      27       OAC      LPO22    LPD     -0.383000       0.00000          -1   0.00000       0.00000    
      6233 OAC      28       OAC      C1       CD2O2A    3.18170       11.6110           0  -1.01600      0.899000    
      6234 OAC      28       OAC      DC1      DRUD     -2.47370      0.400000           0   0.00000       0.00000    
      6235 OAC      28       OAC      C2       CD33A     2.98790       11.6110           0  -1.68100       1.41400    
      6236 OAC      28       OAC      DC2      DRUD     -3.18190      0.400000           0   0.00000       0.00000    
      6237 OAC      28       OAC      H1       HDA3A    0.400000E-02   1.00800           0   0.00000       0.00000    
      6238 OAC      28       OAC      H2       HDA3A    0.400000E-02   1.00800           0   0.00000       0.00000    
      6239 OAC      28       OAC      H3       HDA3A    0.400000E-02   1.00800           0   0.00000       0.00000    
      6240 OAC      28       OAC      O1       OD2C2A    2.05480       15.5994           0 -0.699000       2.39900    
      6241 OAC      28       OAC      DO1      DRUD     -2.05180      0.400000           0   0.00000       0.00000    
      6242 OAC      28       OAC      O2       OD2C2A    2.05480       15.5994           0 -0.699000       2.39900    
      6243 OAC      28       OAC      DO2      DRUD     -2.05180      0.400000           0   0.00000       0.00000    
      6244 OAC      28       OAC      H        DUMH      0.00000       1.00800           0   0.00000       0.00000    
      6245 OAC      28       OAC      LPO11    LPD     -0.383000       0.00000          -1   0.00000       0.00000    
      6246 OAC      28       OAC      LPO12    LPD     -0.383000       0.00000          -1   0.00000       0.00000    
      6247 OAC      28       OAC      LPO21    LPD     -0.383000       0.00000          -1   0.00000       0.00000    
      6248 OAC      28       OAC      LPO22    LPD     -0.383000       0.00000          -1   0.00000       0.00000    
      6249 OAC      29       OAC      C1       CD2O2A    3.18170       11.6110           0  -1.01600      0.899000    
      6250 OAC      29       OAC      DC1      DRUD     -2.47370      0.400000           0   0.00000       0.00000    
      6251 OAC      29       OAC      C2       CD33A     2.98790       11.6110           0  -1.68100       1.41400    
      6252 OAC      29       OAC      DC2      DRUD     -3.18190      0.400000           0   0.00000       0.00000    
      6253 OAC      29       OAC      H1       HDA3A    0.400000E-02   1.00800           0   0.00000       0.00000    
      6254 OAC      29       OAC      H2       HDA3A    0.400000E-02   1.00800           0   0.00000       0.00000    
      6255 OAC      29       OAC      H3       HDA3A    0.400000E-02   1.00800           0   0.00000       0.00000    
      6256 OAC      29       OAC      O1       OD2C2A    2.05480       15.5994           0 -0.699000       2.39900    
      6257 OAC      29       OAC      DO1      DRUD     -2.05180      0.400000           0   0.00000       0.00000    
      6258 OAC      29       OAC      O2       OD2C2A    2.05480       15.5994           0 -0.699000       2.39900    
      6259 OAC      29       OAC      DO2      DRUD     -2.05180      0.400000           0   0.00000       0.00000    
      6260 OAC      29       OAC      H        DUMH      0.00000       1.00800           0   0.00000       0.00000    
      6261 OAC      29       OAC      LPO11    LPD     -0.383000       0.00000          -1   0.00000       0.00000    
      6262 OAC      29       OAC      LPO12    LPD     -0.383000       0.00000          -1   0.00000       0.00000    
      6263 OAC      29       OAC      LPO21    LPD     -0.383000       0.00000          -1   0.00000       0.00000    
      6264 OAC      29       OAC      LPO22    LPD     -0.383000       0.00000          -1   0.00000       0.00000    
      6265 OAC      30       OAC      C1       CD2O2A    3.18170       11.6110           0  -1.01600      0.899000    
      6266 OAC      30       OAC      DC1      DRUD     -2.47370      0.400000           0   0.00000       0.00000    
      6267 OAC      30       OAC      C2       CD33A     2.98790       11.6110           0  -1.68100       1.41400    
      6268 OAC      30       OAC      DC2      DRUD     -3.18190      0.400000           0   0.00000       0.00000    
      6269 OAC      30       OAC      H1       HDA3A    0.400000E-02   1.00800           0   0.00000       0.00000    
      6270 OAC      30       OAC      H2       HDA3A    0.400000E-02   1.00800           0   0.00000       0.00000    
      6271 OAC      30       OAC      H3       HDA3A    0.400000E-02   1.00800           0   0.00000       0.00000    
      6272 OAC      30       OAC      O1       OD2C2A    2.05480       15.5994           0 -0.699000       2.39900    
      6273 OAC      30       OAC      DO1      DRUD     -2.05180      0.400000           0   0.00000       0.00000    
      6274 OAC      30       OAC      O2       OD2C2A    2.05480       15.5994           0 -0.699000       2.39900    
      6275 OAC      30       OAC      DO2      DRUD     -2.05180      0.400000           0   0.00000       0.00000    
      6276 OAC      30       OAC      H        DUMH      0.00000       1.00800           0   0.00000       0.00000    
      6277 OAC      30       OAC      LPO11    LPD     -0.383000       0.00000          -1   0.00000       0.00000    
      6278 OAC      30       OAC      LPO12    LPD     -0.383000       0.00000          -1   0.00000       0.00000    
      6279 OAC      30       OAC      LPO21    LPD     -0.383000       0.00000          -1   0.00000       0.00000    
      6280 OAC      30       OAC      LPO22    LPD     -0.383000       0.00000          -1   0.00000       0.00000    
      6281 OAC      31       OAC      C1       CD2O2A    3.18170       11.6110           0  -1.01600      0.899000    
      6282 OAC      31       OAC      DC1      DRUD     -2.47370      0.400000           0   0.00000       0.00000    
      6283 OAC      31       OAC      C2       CD33A     2.98790       11.6110           0  -1.68100       1.41400    
      6284 OAC      31       OAC      DC2      DRUD     -3.18190      0.400000           0   0.00000       0.00000    
      6285 OAC      31       OAC      H1       HDA3A    0.400000E-02   1.00800           0   0.00000       0.00000    
      6286 OAC      31       OAC      H2       HDA3A    0.400000E-02   1.00800           0   0.00000       0.00000    
      6287 OAC      31       OAC      H3       HDA3A    0.400000E-02   1.00800           0   0.00000       0.00000    
      6288 OAC      31       OAC      O1       OD2C2A    2.05480       15.5994           0 -0.699000       2.39900    
      6289 OAC      31       OAC      DO1      DRUD     -2.05180      0.400000           0   0.00000       0.00000    
      6290 OAC      31       OAC      O2       OD2C2A    2.05480       15.5994           0 -0.699000       2.39900    
      6291 OAC      31       OAC      DO2      DRUD     -2.05180      0.400000           0   0.00000       0.00000    
      6292 OAC      31       OAC      H        DUMH      0.00000       1.00800           0   0.00000       0.00000    
      6293 OAC      31       OAC      LPO11    LPD     -0.383000       0.00000          -1   0.00000       0.00000    
      6294 OAC      31       OAC      LPO12    LPD     -0.383000       0.00000          -1   0.00000       0.00000    
      6295 OAC      31       OAC      LPO21    LPD     -0.383000       0.00000          -1   0.00000       0.00000    
      6296 OAC      31       OAC      LPO22    LPD     -0.383000       0.00000          -1   0.00000       0.00000    
      6297 OAC      32       OAC      C1       CD2O2A    3.18170       11.6110           0  -1.01600      0.899000    
      6298 OAC      32       OAC      DC1      DRUD     -2.47370      0.400000           0   0.00000       0.00000    
      6299 OAC      32       OAC      C2       CD33A     2.98790       11.6110           0  -1.68100       1.41400    
      6300 OAC      32       OAC      DC2      DRUD     -3.18190      0.400000           0   0.00000       0.00000    
      6301 OAC      32       OAC      H1       HDA3A    0.400000E-02   1.00800           0   0.00000       0.00000    
      6302 OAC      32       OAC      H2       HDA3A    0.400000E-02   1.00800           0   0.00000       0.00000    
      6303 OAC      32       OAC      H3       HDA3A    0.400000E-02   1.00800           0   0.00000       0.00000    
      6304 OAC      32       OAC      O1       OD2C2A    2.05480       15.5994           0 -0.699000       2.39900    
      6305 OAC      32       OAC      DO1      DRUD     -2.05180      0.400000           0   0.00000       0.00000    
      6306 OAC      32       OAC      O2       OD2C2A    2.05480       15.5994           0 -0.699000       2.39900    
      6307 OAC      32       OAC      DO2      DRUD     -2.05180      0.400000           0   0.00000       0.00000    
      6308 OAC      32       OAC      H        DUMH      0.00000       1.00800           0   0.00000       0.00000    
      6309 OAC      32       OAC      LPO11    LPD     -0.383000       0.00000          -1   0.00000       0.00000    
      6310 OAC      32       OAC      LPO12    LPD     -0.383000       0.00000          -1   0.00000       0.00000    
      6311 OAC      32       OAC      LPO21    LPD     -0.383000       0.00000          -1   0.00000       0.00000    
      6312 OAC      32       OAC      LPO22    LPD     -0.383000       0.00000          -1   0.00000       0.00000    
      6313 OAC      33       OAC      C1       CD2O2A    3.18170       11.6110           0  -1.01600      0.899000    
      6314 OAC      33       OAC      DC1      DRUD     -2.47370      0.400000           0   0.00000       0.00000    
      6315 OAC      33       OAC      C2       CD33A     2.98790       11.6110           0  -1.68100       1.41400    
      6316 OAC      33       OAC      DC2      DRUD     -3.18190      0.400000           0   0.00000       0.00000    
      6317 OAC      33       OAC      H1       HDA3A    0.400000E-02   1.00800           0   0.00000       0.00000    
      6318 OAC      33       OAC      H2       HDA3A    0.400000E-02   1.00800           0   0.00000       0.00000    
      6319 OAC      33       OAC      H3       HDA3A    0.400000E-02   1.00800           0   0.00000       0.00000    
      6320 OAC      33       OAC      O1       OD2C2A    2.05480       15.5994           0 -0.699000       2.39900    
      6321 OAC      33       OAC      DO1      DRUD     -2.05180      0.400000           0   0.00000       0.00000    
      6322 OAC      33       OAC      O2       OD2C2A    2.05480       15.5994           0 -0.699000       2.39900    
      6323 OAC      33       OAC      DO2      DRUD     -2.05180      0.400000           0   0.00000       0.00000    
      6324 OAC      33       OAC      H        DUMH      0.00000       1.00800           0   0.00000       0.00000    
      6325 OAC      33       OAC      LPO11    LPD     -0.383000       0.00000          -1   0.00000       0.00000    
      6326 OAC      33       OAC      LPO12    LPD     -0.383000       0.00000          -1   0.00000       0.00000    
      6327 OAC      33       OAC      LPO21    LPD     -0.383000       0.00000          -1   0.00000       0.00000    
      6328 OAC      33       OAC      LPO22    LPD     -0.383000       0.00000          -1   0.00000       0.00000    
      6329 OAC      34       OAC      C1       CD2O2A    3.18170       11.6110           0  -1.01600      0.899000    
      6330 OAC      34       OAC      DC1      DRUD     -2.47370      0.400000           0   0.00000       0.00000    
      6331 OAC      34       OAC      C2       CD33A     2.98790       11.6110           0  -1.68100       1.41400    
      6332 OAC      34       OAC      DC2      DRUD     -3.18190      0.400000           0   0.00000       0.00000    
      6333 OAC      34       OAC      H1       HDA3A    0.400000E-02   1.00800           0   0.00000       0.00000    
      6334 OAC      34       OAC      H2       HDA3A    0.400000E-02   1.00800           0   0.00000       0.00000    
      6335 OAC      34       OAC      H3       HDA3A    0.400000E-02   1.00800           0   0.00000       0.00000    
      6336 OAC      34       OAC      O1       OD2C2A    2.05480       15.5994           0 -0.699000       2.39900    
      6337 OAC      34       OAC      DO1      DRUD     -2.05180      0.400000           0   0.00000       0.00000    
      6338 OAC      34       OAC      O2       OD2C2A    2.05480       15.5994           0 -0.699000       2.39900    
      6339 OAC      34       OAC      DO2      DRUD     -2.05180      0.400000           0   0.00000       0.00000    
      6340 OAC      34       OAC      H        DUMH      0.00000       1.00800           0   0.00000       0.00000    
      6341 OAC      34       OAC      LPO11    LPD     -0.383000       0.00000          -1   0.00000       0.00000    
      6342 OAC      34       OAC      LPO12    LPD     -0.383000       0.00000          -1   0.00000       0.00000    
      6343 OAC      34       OAC      LPO21    LPD     -0.383000       0.00000          -1   0.00000       0.00000    
      6344 OAC      34       OAC      LPO22    LPD     -0.383000       0.00000          -1   0.00000       0.00000    
      6345 OAC      35       OAC      C1       CD2O2A    3.18170       11.6110           0  -1.01600      0.899000    
      6346 OAC      35       OAC      DC1      DRUD     -2.47370      0.400000           0   0.00000       0.00000    
      6347 OAC      35       OAC      C2       CD33A     2.98790       11.6110           0  -1.68100       1.41400    
      6348 OAC      35       OAC      DC2      DRUD     -3.18190      0.400000           0   0.00000       0.00000    
      6349 OAC      35       OAC      H1       HDA3A    0.400000E-02   1.00800           0   0.00000       0.00000    
      6350 OAC      35       OAC      H2       HDA3A    0.400000E-02   1.00800           0   0.00000       0.00000    
      6351 OAC      35       OAC      H3       HDA3A    0.400000E-02   1.00800           0   0.00000       0.00000    
      6352 OAC      35       OAC      O1       OD2C2A    2.05480       15.5994           0 -0.699000       2.39900    
      6353 OAC      35       OAC      DO1      DRUD     -2.05180      0.400000           0   0.00000       0.00000    
      6354 OAC      35       OAC      O2       OD2C2A    2.05480       15.5994           0 -0.699000       2.39900    
      6355 OAC      35       OAC      DO2      DRUD     -2.05180      0.400000           0   0.00000       0.00000    
      6356 OAC      35       OAC      H        DUMH      0.00000       1.00800           0   0.00000       0.00000    
      6357 OAC      35       OAC      LPO11    LPD     -0.383000       0.00000          -1   0.00000       0.00000    
      6358 OAC      35       OAC      LPO12    LPD     -0.383000       0.00000          -1   0.00000       0.00000    
      6359 OAC      35       OAC      LPO21    LPD     -0.383000       0.00000          -1   0.00000       0.00000    
      6360 OAC      35       OAC      LPO22    LPD     -0.383000       0.00000          -1   0.00000       0.00000    
      6361 OAC      36       OAC      C1       CD2O2A    3.18170       11.6110           0  -1.01600      0.899000    
      6362 OAC      36       OAC      DC1      DRUD     -2.47370      0.400000           0   0.00000       0.00000    
      6363 OAC      36       OAC      C2       CD33A     2.98790       11.6110           0  -1.68100       1.41400    
      6364 OAC      36       OAC      DC2      DRUD     -3.18190      0.400000           0   0.00000       0.00000    
      6365 OAC      36       OAC      H1       HDA3A    0.400000E-02   1.00800           0   0.00000       0.00000    
      6366 OAC      36       OAC      H2       HDA3A    0.400000E-02   1.00800           0   0.00000       0.00000    
      6367 OAC      36       OAC      H3       HDA3A    0.400000E-02   1.00800           0   0.00000       0.00000    
      6368 OAC      36       OAC      O1       OD2C2A    2.05480       15.5994           0 -0.699000       2.39900    
      6369 OAC      36       OAC      DO1      DRUD     -2.05180      0.400000           0   0.00000       0.00000    
      6370 OAC      36       OAC      O2       OD2C2A    2.05480       15.5994           0 -0.699000       2.39900    
      6371 OAC      36       OAC      DO2      DRUD     -2.05180      0.400000           0   0.00000       0.00000    
      6372 OAC      36       OAC      H        DUMH      0.00000       1.00800           0   0.00000       0.00000    
      6373 OAC      36       OAC      LPO11    LPD     -0.383000       0.00000          -1   0.00000       0.00000    
      6374 OAC      36       OAC      LPO12    LPD     -0.383000       0.00000          -1   0.00000       0.00000    
      6375 OAC      36       OAC      LPO21    LPD     -0.383000       0.00000          -1   0.00000       0.00000    
      6376 OAC      36       OAC      LPO22    LPD     -0.383000       0.00000          -1   0.00000       0.00000    
      6377 OAC      37       OAC      C1       CD2O2A    3.18170       11.6110           0  -1.01600      0.899000    
      6378 OAC      37       OAC      DC1      DRUD     -2.47370      0.400000           0   0.00000       0.00000    
      6379 OAC      37       OAC      C2       CD33A     2.98790       11.6110           0  -1.68100       1.41400    
      6380 OAC      37       OAC      DC2      DRUD     -3.18190      0.400000           0   0.00000       0.00000    
      6381 OAC      37       OAC      H1       HDA3A    0.400000E-02   1.00800           0   0.00000       0.00000    
      6382 OAC      37       OAC      H2       HDA3A    0.400000E-02   1.00800           0   0.00000       0.00000    
      6383 OAC      37       OAC      H3       HDA3A    0.400000E-02   1.00800           0   0.00000       0.00000    
      6384 OAC      37       OAC      O1       OD2C2A    2.05480       15.5994           0 -0.699000       2.39900    
      6385 OAC      37       OAC      DO1      DRUD     -2.05180      0.400000           0   0.00000       0.00000    
      6386 OAC      37       OAC      O2       OD2C2A    2.05480       15.5994           0 -0.699000       2.39900    
      6387 OAC      37       OAC      DO2      DRUD     -2.05180      0.400000           0   0.00000       0.00000    
      6388 OAC      37       OAC      H        DUMH      0.00000       1.00800           0   0.00000       0.00000    
      6389 OAC      37       OAC      LPO11    LPD     -0.383000       0.00000          -1   0.00000       0.00000    
      6390 OAC      37       OAC      LPO12    LPD     -0.383000       0.00000          -1   0.00000       0.00000    
      6391 OAC      37       OAC      LPO21    LPD     -0.383000       0.00000          -1   0.00000       0.00000    
      6392 OAC      37       OAC      LPO22    LPD     -0.383000       0.00000          -1   0.00000       0.00000    
      6393 OAC      38       OAC      C1       CD2O2A    3.18170       11.6110           0  -1.01600      0.899000    
      6394 OAC      38       OAC      DC1      DRUD     -2.47370      0.400000           0   0.00000       0.00000    
      6395 OAC      38       OAC      C2       CD33A     2.98790       11.6110           0  -1.68100       1.41400    
      6396 OAC      38       OAC      DC2      DRUD     -3.18190      0.400000           0   0.00000       0.00000    
      6397 OAC      38       OAC      H1       HDA3A    0.400000E-02   1.00800           0   0.00000       0.00000    
      6398 OAC      38       OAC      H2       HDA3A    0.400000E-02   1.00800           0   0.00000       0.00000    
      6399 OAC      38       OAC      H3       HDA3A    0.400000E-02   1.00800           0   0.00000       0.00000    
      6400 OAC      38       OAC      O1       OD2C2A    2.05480       15.5994           0 -0.699000       2.39900    
      6401 OAC      38       OAC      DO1      DRUD     -2.05180      0.400000           0   0.00000       0.00000    
      6402 OAC      38       OAC      O2       OD2C2A    2.05480       15.5994           0 -0.699000       2.39900    
      6403 OAC      38       OAC      DO2      DRUD     -2.05180      0.400000           0   0.00000       0.00000    
      6404 OAC      38       OAC      H        DUMH      0.00000       1.00800           0   0.00000       0.00000    
      6405 OAC      38       OAC      LPO11    LPD     -0.383000       0.00000          -1   0.00000       0.00000    
      6406 OAC      38       OAC      LPO12    LPD     -0.383000       0.00000          -1   0.00000       0.00000    
      6407 OAC      38       OAC      LPO21    LPD     -0.383000       0.00000          -1   0.00000       0.00000    
      6408 OAC      38       OAC      LPO22    LPD     -0.383000       0.00000          -1   0.00000       0.00000    
      6409 OAC      39       OAC      C1       CD2O2A    3.18170       11.6110           0  -1.01600      0.899000    
      6410 OAC      39       OAC      DC1      DRUD     -2.47370      0.400000           0   0.00000       0.00000    
      6411 OAC      39       OAC      C2       CD33A     2.98790       11.6110           0  -1.68100       1.41400    
      6412 OAC      39       OAC      DC2      DRUD     -3.18190      0.400000           0   0.00000       0.00000    
      6413 OAC      39       OAC      H1       HDA3A    0.400000E-02   1.00800           0   0.00000       0.00000    
      6414 OAC      39       OAC      H2       HDA3A    0.400000E-02   1.00800           0   0.00000       0.00000    
      6415 OAC      39       OAC      H3       HDA3A    0.400000E-02   1.00800           0   0.00000       0.00000    
      6416 OAC      39       OAC      O1       OD2C2A    2.05480       15.5994           0 -0.699000       2.39900    
      6417 OAC      39       OAC      DO1      DRUD     -2.05180      0.400000           0   0.00000       0.00000    
      6418 OAC      39       OAC      O2       OD2C2A    2.05480       15.5994           0 -0.699000       2.39900    
      6419 OAC      39       OAC      DO2      DRUD     -2.05180      0.400000           0   0.00000       0.00000    
      6420 OAC      39       OAC      H        DUMH      0.00000       1.00800           0   0.00000       0.00000    
      6421 OAC      39       OAC      LPO11    LPD     -0.383000       0.00000          -1   0.00000       0.00000    
      6422 OAC      39       OAC      LPO12    LPD     -0.383000       0.00000          -1   0.00000       0.00000    
      6423 OAC      39       OAC      LPO21    LPD     -0.383000       0.00000          -1   0.00000       0.00000    
      6424 OAC      39       OAC      LPO22    LPD     -0.383000       0.00000          -1   0.00000       0.00000    
      6425 OAC      40       OAC      C1       CD2O2A    3.18170       11.6110           0  -1.01600      0.899000    
      6426 OAC      40       OAC      DC1      DRUD     -2.47370      0.400000           0   0.00000       0.00000    
      6427 OAC      40       OAC      C2       CD33A     2.98790       11.6110           0  -1.68100       1.41400    
      6428 OAC      40       OAC      DC2      DRUD     -3.18190      0.400000           0   0.00000       0.00000    
      6429 OAC      40       OAC      H1       HDA3A    0.400000E-02   1.00800           0   0.00000       0.00000    
      6430 OAC      40       OAC      H2       HDA3A    0.400000E-02   1.00800           0   0.00000       0.00000    
      6431 OAC      40       OAC      H3       HDA3A    0.400000E-02   1.00800           0   0.00000       0.00000    
      6432 OAC      40       OAC      O1       OD2C2A    2.05480       15.5994           0 -0.699000       2.39900    
      6433 OAC      40       OAC      DO1      DRUD     -2.05180      0.400000           0   0.00000       0.00000    
      6434 OAC      40       OAC      O2       OD2C2A    2.05480       15.5994           0 -0.699000       2.39900    
      6435 OAC      40       OAC      DO2      DRUD     -2.05180      0.400000           0   0.00000       0.00000    
      6436 OAC      40       OAC      H        DUMH      0.00000       1.00800           0   0.00000       0.00000    
      6437 OAC      40       OAC      LPO11    LPD     -0.383000       0.00000          -1   0.00000       0.00000    
      6438 OAC      40       OAC      LPO12    LPD     -0.383000       0.00000          -1   0.00000       0.00000    
      6439 OAC      40       OAC      LPO21    LPD     -0.383000       0.00000          -1   0.00000       0.00000    
      6440 OAC      40       OAC      LPO22    LPD     -0.383000       0.00000          -1   0.00000       0.00000    
      6441 OAC      41       OAC      C1       CD2O2A    3.18170       11.6110           0  -1.01600      0.899000    
      6442 OAC      41       OAC      DC1      DRUD     -2.47370      0.400000           0   0.00000       0.00000    
      6443 OAC      41       OAC      C2       CD33A     2.98790       11.6110           0  -1.68100       1.41400    
      6444 OAC      41       OAC      DC2      DRUD     -3.18190      0.400000           0   0.00000       0.00000    
      6445 OAC      41       OAC      H1       HDA3A    0.400000E-02   1.00800           0   0.00000       0.00000    
      6446 OAC      41       OAC      H2       HDA3A    0.400000E-02   1.00800           0   0.00000       0.00000    
      6447 OAC      41       OAC      H3       HDA3A    0.400000E-02   1.00800           0   0.00000       0.00000    
      6448 OAC      41       OAC      O1       OD2C2A    2.05480       15.5994           0 -0.699000       2.39900    
      6449 OAC      41       OAC      DO1      DRUD     -2.05180      0.400000           0   0.00000       0.00000    
      6450 OAC      41       OAC      O2       OD2C2A    2.05480       15.5994           0 -0.699000       2.39900    
      6451 OAC      41       OAC      DO2      DRUD     -2.05180      0.400000           0   0.00000       0.00000    
      6452 OAC      41       OAC      H        DUMH      0.00000       1.00800           0   0.00000       0.00000    
      6453 OAC      41       OAC      LPO11    LPD     -0.383000       0.00000          -1   0.00000       0.00000    
      6454 OAC      41       OAC      LPO12    LPD     -0.383000       0.00000          -1   0.00000       0.00000    
      6455 OAC      41       OAC      LPO21    LPD     -0.383000       0.00000          -1   0.00000       0.00000    
      6456 OAC      41       OAC      LPO22    LPD     -0.383000       0.00000          -1   0.00000       0.00000    
      6457 OAC      42       OAC      C1       CD2O2A    3.18170       11.6110           0  -1.01600      0.899000    
      6458 OAC      42       OAC      DC1      DRUD     -2.47370      0.400000           0   0.00000       0.00000    
      6459 OAC      42       OAC      C2       CD33A     2.98790       11.6110           0  -1.68100       1.41400    
      6460 OAC      42       OAC      DC2      DRUD     -3.18190      0.400000           0   0.00000       0.00000    
      6461 OAC      42       OAC      H1       HDA3A    0.400000E-02   1.00800           0   0.00000       0.00000    
      6462 OAC      42       OAC      H2       HDA3A    0.400000E-02   1.00800           0   0.00000       0.00000    
      6463 OAC      42       OAC      H3       HDA3A    0.400000E-02   1.00800           0   0.00000       0.00000    
      6464 OAC      42       OAC      O1       OD2C2A    2.05480       15.5994           0 -0.699000       2.39900    
      6465 OAC      42       OAC      DO1      DRUD     -2.05180      0.400000           0   0.00000       0.00000    
      6466 OAC      42       OAC      O2       OD2C2A    2.05480       15.5994           0 -0.699000       2.39900    
      6467 OAC      42       OAC      DO2      DRUD     -2.05180      0.400000           0   0.00000       0.00000    
      6468 OAC      42       OAC      H        DUMH      0.00000       1.00800           0   0.00000       0.00000    
      6469 OAC      42       OAC      LPO11    LPD     -0.383000       0.00000          -1   0.00000       0.00000    
      6470 OAC      42       OAC      LPO12    LPD     -0.383000       0.00000          -1   0.00000       0.00000    
      6471 OAC      42       OAC      LPO21    LPD     -0.383000       0.00000          -1   0.00000       0.00000    
      6472 OAC      42       OAC      LPO22    LPD     -0.383000       0.00000          -1   0.00000       0.00000    
      6473 OAC      43       OAC      C1       CD2O2A    3.18170       11.6110           0  -1.01600      0.899000    
      6474 OAC      43       OAC      DC1      DRUD     -2.47370      0.400000           0   0.00000       0.00000    
      6475 OAC      43       OAC      C2       CD33A     2.98790       11.6110           0  -1.68100       1.41400    
      6476 OAC      43       OAC      DC2      DRUD     -3.18190      0.400000           0   0.00000       0.00000    
      6477 OAC      43       OAC      H1       HDA3A    0.400000E-02   1.00800           0   0.00000       0.00000    
      6478 OAC      43       OAC      H2       HDA3A    0.400000E-02   1.00800           0   0.00000       0.00000    
      6479 OAC      43       OAC      H3       HDA3A    0.400000E-02   1.00800           0   0.00000       0.00000    
      6480 OAC      43       OAC      O1       OD2C2A    2.05480       15.5994           0 -0.699000       2.39900    
      6481 OAC      43       OAC      DO1      DRUD     -2.05180      0.400000           0   0.00000       0.00000    
      6482 OAC      43       OAC      O2       OD2C2A    2.05480       15.5994           0 -0.699000       2.39900    
      6483 OAC      43       OAC      DO2      DRUD     -2.05180      0.400000           0   0.00000       0.00000    
      6484 OAC      43       OAC      H        DUMH      0.00000       1.00800           0   0.00000       0.00000    
      6485 OAC      43       OAC      LPO11    LPD     -0.383000       0.00000          -1   0.00000       0.00000    
      6486 OAC      43       OAC      LPO12    LPD     -0.383000       0.00000          -1   0.00000       0.00000    
      6487 OAC      43       OAC      LPO21    LPD     -0.383000       0.00000          -1   0.00000       0.00000    
      6488 OAC      43       OAC      LPO22    LPD     -0.383000       0.00000          -1   0.00000       0.00000    
      6489 OAC      44       OAC      C1       CD2O2A    3.18170       11.6110           0  -1.01600      0.899000    
      6490 OAC      44       OAC      DC1      DRUD     -2.47370      0.400000           0   0.00000       0.00000    
      6491 OAC      44       OAC      C2       CD33A     2.98790       11.6110           0  -1.68100       1.41400    
      6492 OAC      44       OAC      DC2      DRUD     -3.18190      0.400000           0   0.00000       0.00000    
      6493 OAC      44       OAC      H1       HDA3A    0.400000E-02   1.00800           0   0.00000       0.00000    
      6494 OAC      44       OAC      H2       HDA3A    0.400000E-02   1.00800           0   0.00000       0.00000    
      6495 OAC      44       OAC      H3       HDA3A    0.400000E-02   1.00800           0   0.00000       0.00000    
      6496 OAC      44       OAC      O1       OD2C2A    2.05480       15.5994           0 -0.699000       2.39900    
      6497 OAC      44       OAC      DO1      DRUD     -2.05180      0.400000           0   0.00000       0.00000    
      6498 OAC      44       OAC      O2       OD2C2A    2.05480       15.5994           0 -0.699000       2.39900    
      6499 OAC      44       OAC      DO2      DRUD     -2.05180      0.400000           0   0.00000       0.00000    
      6500 OAC      44       OAC      H        DUMH      0.00000       1.00800           0   0.00000       0.00000    
      6501 OAC      44       OAC      LPO11    LPD     -0.383000       0.00000          -1   0.00000       0.00000    
      6502 OAC      44       OAC      LPO12    LPD     -0.383000       0.00000          -1   0.00000       0.00000    
      6503 OAC      44       OAC      LPO21    LPD     -0.383000       0.00000          -1   0.00000       0.00000    
      6504 OAC      44       OAC      LPO22    LPD     -0.383000       0.00000          -1   0.00000       0.00000    
      6505 OAC      45       OAC      C1       CD2O2A    3.18170       11.6110           0  -1.01600      0.899000    
      6506 OAC      45       OAC      DC1      DRUD     -2.47370      0.400000           0   0.00000       0.00000    
      6507 OAC      45       OAC      C2       CD33A     2.98790       11.6110           0  -1.68100       1.41400    
      6508 OAC      45       OAC      DC2      DRUD     -3.18190      0.400000           0   0.00000       0.00000    
      6509 OAC      45       OAC      H1       HDA3A    0.400000E-02   1.00800           0   0.00000       0.00000    
      6510 OAC      45       OAC      H2       HDA3A    0.400000E-02   1.00800           0   0.00000       0.00000    
      6511 OAC      45       OAC      H3       HDA3A    0.400000E-02   1.00800           0   0.00000       0.00000    
      6512 OAC      45       OAC      O1       OD2C2A    2.05480       15.5994           0 -0.699000       2.39900    
      6513 OAC      45       OAC      DO1      DRUD     -2.05180      0.400000           0   0.00000       0.00000    
      6514 OAC      45       OAC      O2       OD2C2A    2.05480       15.5994           0 -0.699000       2.39900    
      6515 OAC      45       OAC      DO2      DRUD     -2.05180      0.400000           0   0.00000       0.00000    
      6516 OAC      45       OAC      H        DUMH      0.00000       1.00800           0   0.00000       0.00000    
      6517 OAC      45       OAC      LPO11    LPD     -0.383000       0.00000          -1   0.00000       0.00000    
      6518 OAC      45       OAC      LPO12    LPD     -0.383000       0.00000          -1   0.00000       0.00000    
      6519 OAC      45       OAC      LPO21    LPD     -0.383000       0.00000          -1   0.00000       0.00000    
      6520 OAC      45       OAC      LPO22    LPD     -0.383000       0.00000          -1   0.00000       0.00000    
      6521 OAC      46       OAC      C1       CD2O2A    3.18170       11.6110           0  -1.01600      0.899000    
      6522 OAC      46       OAC      DC1      DRUD     -2.47370      0.400000           0   0.00000       0.00000    
      6523 OAC      46       OAC      C2       CD33A     2.98790       11.6110           0  -1.68100       1.41400    
      6524 OAC      46       OAC      DC2      DRUD     -3.18190      0.400000           0   0.00000       0.00000    
      6525 OAC      46       OAC      H1       HDA3A    0.400000E-02   1.00800           0   0.00000       0.00000    
      6526 OAC      46       OAC      H2       HDA3A    0.400000E-02   1.00800           0   0.00000       0.00000    
      6527 OAC      46       OAC      H3       HDA3A    0.400000E-02   1.00800           0   0.00000       0.00000    
      6528 OAC      46       OAC      O1       OD2C2A    2.05480       15.5994           0 -0.699000       2.39900    
      6529 OAC      46       OAC      DO1      DRUD     -2.05180      0.400000           0   0.00000       0.00000    
      6530 OAC      46       OAC      O2       OD2C2A    2.05480       15.5994           0 -0.699000       2.39900    
      6531 OAC      46       OAC      DO2      DRUD     -2.05180      0.400000           0   0.00000       0.00000    
      6532 OAC      46       OAC      H        DUMH      0.00000       1.00800           0   0.00000       0.00000    
      6533 OAC      46       OAC      LPO11    LPD     -0.383000       0.00000          -1   0.00000       0.00000    
      6534 OAC      46       OAC      LPO12    LPD     -0.383000       0.00000          -1   0.00000       0.00000    
      6535 OAC      46       OAC      LPO21    LPD     -0.383000       0.00000          -1   0.00000       0.00000    
      6536 OAC      46       OAC      LPO22    LPD     -0.383000       0.00000          -1   0.00000       0.00000    
      6537 OAC      47       OAC      C1       CD2O2A    3.18170       11.6110           0  -1.01600      0.899000    
      6538 OAC      47       OAC      DC1      DRUD     -2.47370      0.400000           0   0.00000       0.00000    
      6539 OAC      47       OAC      C2       CD33A     2.98790       11.6110           0  -1.68100       1.41400    
      6540 OAC      47       OAC      DC2      DRUD     -3.18190      0.400000           0   0.00000       0.00000    
      6541 OAC      47       OAC      H1       HDA3A    0.400000E-02   1.00800           0   0.00000       0.00000    
      6542 OAC      47       OAC      H2       HDA3A    0.400000E-02   1.00800           0   0.00000       0.00000    
      6543 OAC      47       OAC      H3       HDA3A    0.400000E-02   1.00800           0   0.00000       0.00000    
      6544 OAC      47       OAC      O1       OD2C2A    2.05480       15.5994           0 -0.699000       2.39900    
      6545 OAC      47       OAC      DO1      DRUD     -2.05180      0.400000           0   0.00000       0.00000    
      6546 OAC      47       OAC      O2       OD2C2A    2.05480       15.5994           0 -0.699000       2.39900    
      6547 OAC      47       OAC      DO2      DRUD     -2.05180      0.400000           0   0.00000       0.00000    
      6548 OAC      47       OAC      H        DUMH      0.00000       1.00800           0   0.00000       0.00000    
      6549 OAC      47       OAC      LPO11    LPD     -0.383000       0.00000          -1   0.00000       0.00000    
      6550 OAC      47       OAC      LPO12    LPD     -0.383000       0.00000          -1   0.00000       0.00000    
      6551 OAC      47       OAC      LPO21    LPD     -0.383000       0.00000          -1   0.00000       0.00000    
      6552 OAC      47       OAC      LPO22    LPD     -0.383000       0.00000          -1   0.00000       0.00000    
      6553 OAC      48       OAC      C1       CD2O2A    3.18170       11.6110           0  -1.01600      0.899000    
      6554 OAC      48       OAC      DC1      DRUD     -2.47370      0.400000           0   0.00000       0.00000    
      6555 OAC      48       OAC      C2       CD33A     2.98790       11.6110           0  -1.68100       1.41400    
      6556 OAC      48       OAC      DC2      DRUD     -3.18190      0.400000           0   0.00000       0.00000    
      6557 OAC      48       OAC      H1       HDA3A    0.400000E-02   1.00800           0   0.00000       0.00000    
      6558 OAC      48       OAC      H2       HDA3A    0.400000E-02   1.00800           0   0.00000       0.00000    
      6559 OAC      48       OAC      H3       HDA3A    0.400000E-02   1.00800           0   0.00000       0.00000    
      6560 OAC      48       OAC      O1       OD2C2A    2.05480       15.5994           0 -0.699000       2.39900    
      6561 OAC      48       OAC      DO1      DRUD     -2.05180      0.400000           0   0.00000       0.00000    
      6562 OAC      48       OAC      O2       OD2C2A    2.05480       15.5994           0 -0.699000       2.39900    
      6563 OAC      48       OAC      DO2      DRUD     -2.05180      0.400000           0   0.00000       0.00000    
      6564 OAC      48       OAC      H        DUMH      0.00000       1.00800           0   0.00000       0.00000    
      6565 OAC      48       OAC      LPO11    LPD     -0.383000       0.00000          -1   0.00000       0.00000    
      6566 OAC      48       OAC      LPO12    LPD     -0.383000       0.00000          -1   0.00000       0.00000    
      6567 OAC      48       OAC      LPO21    LPD     -0.383000       0.00000          -1   0.00000       0.00000    
      6568 OAC      48       OAC      LPO22    LPD     -0.383000       0.00000          -1   0.00000       0.00000    
      6569 OAC      49       OAC      C1       CD2O2A    3.18170       11.6110           0  -1.01600      0.899000    
      6570 OAC      49       OAC      DC1      DRUD     -2.47370      0.400000           0   0.00000       0.00000    
      6571 OAC      49       OAC      C2       CD33A     2.98790       11.6110           0  -1.68100       1.41400    
      6572 OAC      49       OAC      DC2      DRUD     -3.18190      0.400000           0   0.00000       0.00000    
      6573 OAC      49       OAC      H1       HDA3A    0.400000E-02   1.00800           0   0.00000       0.00000    
      6574 OAC      49       OAC      H2       HDA3A    0.400000E-02   1.00800           0   0.00000       0.00000    
      6575 OAC      49       OAC      H3       HDA3A    0.400000E-02   1.00800           0   0.00000       0.00000    
      6576 OAC      49       OAC      O1       OD2C2A    2.05480       15.5994           0 -0.699000       2.39900    
      6577 OAC      49       OAC      DO1      DRUD     -2.05180      0.400000           0   0.00000       0.00000    
      6578 OAC      49       OAC      O2       OD2C2A    2.05480       15.5994           0 -0.699000       2.39900    
      6579 OAC      49       OAC      DO2      DRUD     -2.05180      0.400000           0   0.00000       0.00000    
      6580 OAC      49       OAC      H        DUMH      0.00000       1.00800           0   0.00000       0.00000    
      6581 OAC      49       OAC      LPO11    LPD     -0.383000       0.00000          -1   0.00000       0.00000    
      6582 OAC      49       OAC      LPO12    LPD     -0.383000       0.00000          -1   0.00000       0.00000    
      6583 OAC      49       OAC      LPO21    LPD     -0.383000       0.00000          -1   0.00000       0.00000    
      6584 OAC      49       OAC      LPO22    LPD     -0.383000       0.00000          -1   0.00000       0.00000    
      6585 OAC      50       OAC      C1       CD2O2A    3.18170       11.6110           0  -1.01600      0.899000    
      6586 OAC      50       OAC      DC1      DRUD     -2.47370      0.400000           0   0.00000       0.00000    
      6587 OAC      50       OAC      C2       CD33A     2.98790       11.6110           0  -1.68100       1.41400    
      6588 OAC      50       OAC      DC2      DRUD     -3.18190      0.400000           0   0.00000       0.00000    
      6589 OAC      50       OAC      H1       HDA3A    0.400000E-02   1.00800           0   0.00000       0.00000    
      6590 OAC      50       OAC      H2       HDA3A    0.400000E-02   1.00800           0   0.00000       0.00000    
      6591 OAC      50       OAC      H3       HDA3A    0.400000E-02   1.00800           0   0.00000       0.00000    
      6592 OAC      50       OAC      O1       OD2C2A    2.05480       15.5994           0 -0.699000       2.39900    
      6593 OAC      50       OAC      DO1      DRUD     -2.05180      0.400000           0   0.00000       0.00000    
      6594 OAC      50       OAC      O2       OD2C2A    2.05480       15.5994           0 -0.699000       2.39900    
      6595 OAC      50       OAC      DO2      DRUD     -2.05180      0.400000           0   0.00000       0.00000    
      6596 OAC      50       OAC      H        DUMH      0.00000       1.00800           0   0.00000       0.00000    
      6597 OAC      50       OAC      LPO11    LPD     -0.383000       0.00000          -1   0.00000       0.00000    
      6598 OAC      50       OAC      LPO12    LPD     -0.383000       0.00000          -1   0.00000       0.00000    
      6599 OAC      50       OAC      LPO21    LPD     -0.383000       0.00000          -1   0.00000       0.00000    
      6600 OAC      50       OAC      LPO22    LPD     -0.383000       0.00000          -1   0.00000       0.00000    
      6601 OAC      51       OAC      C1       CD2O2A    3.18170       11.6110           0  -1.01600      0.899000    
      6602 OAC      51       OAC      DC1      DRUD     -2.47370      0.400000           0   0.00000       0.00000    
      6603 OAC      51       OAC      C2       CD33A     2.98790       11.6110           0  -1.68100       1.41400    
      6604 OAC      51       OAC      DC2      DRUD     -3.18190      0.400000           0   0.00000       0.00000    
      6605 OAC      51       OAC      H1       HDA3A    0.400000E-02   1.00800           0   0.00000       0.00000    
      6606 OAC      51       OAC      H2       HDA3A    0.400000E-02   1.00800           0   0.00000       0.00000    
      6607 OAC      51       OAC      H3       HDA3A    0.400000E-02   1.00800           0   0.00000       0.00000    
      6608 OAC      51       OAC      O1       OD2C2A    2.05480       15.5994           0 -0.699000       2.39900    
      6609 OAC      51       OAC      DO1      DRUD     -2.05180      0.400000           0   0.00000       0.00000    
      6610 OAC      51       OAC      O2       OD2C2A    2.05480       15.5994           0 -0.699000       2.39900    
      6611 OAC      51       OAC      DO2      DRUD     -2.05180      0.400000           0   0.00000       0.00000    
      6612 OAC      51       OAC      H        DUMH      0.00000       1.00800           0   0.00000       0.00000    
      6613 OAC      51       OAC      LPO11    LPD     -0.383000       0.00000          -1   0.00000       0.00000    
      6614 OAC      51       OAC      LPO12    LPD     -0.383000       0.00000          -1   0.00000       0.00000    
      6615 OAC      51       OAC      LPO21    LPD     -0.383000       0.00000          -1   0.00000       0.00000    
      6616 OAC      51       OAC      LPO22    LPD     -0.383000       0.00000          -1   0.00000       0.00000    
      6617 OAC      52       OAC      C1       CD2O2A    3.18170       11.6110           0  -1.01600      0.899000    
      6618 OAC      52       OAC      DC1      DRUD     -2.47370      0.400000           0   0.00000       0.00000    
      6619 OAC      52       OAC      C2       CD33A     2.98790       11.6110           0  -1.68100       1.41400    
      6620 OAC      52       OAC      DC2      DRUD     -3.18190      0.400000           0   0.00000       0.00000    
      6621 OAC      52       OAC      H1       HDA3A    0.400000E-02   1.00800           0   0.00000       0.00000    
      6622 OAC      52       OAC      H2       HDA3A    0.400000E-02   1.00800           0   0.00000       0.00000    
      6623 OAC      52       OAC      H3       HDA3A    0.400000E-02   1.00800           0   0.00000       0.00000    
      6624 OAC      52       OAC      O1       OD2C2A    2.05480       15.5994           0 -0.699000       2.39900    
      6625 OAC      52       OAC      DO1      DRUD     -2.05180      0.400000           0   0.00000       0.00000    
      6626 OAC      52       OAC      O2       OD2C2A    2.05480       15.5994           0 -0.699000       2.39900    
      6627 OAC      52       OAC      DO2      DRUD     -2.05180      0.400000           0   0.00000       0.00000    
      6628 OAC      52       OAC      H        DUMH      0.00000       1.00800           0   0.00000       0.00000    
      6629 OAC      52       OAC      LPO11    LPD     -0.383000       0.00000          -1   0.00000       0.00000    
      6630 OAC      52       OAC      LPO12    LPD     -0.383000       0.00000          -1   0.00000       0.00000    
      6631 OAC      52       OAC      LPO21    LPD     -0.383000       0.00000          -1   0.00000       0.00000    
      6632 OAC      52       OAC      LPO22    LPD     -0.383000       0.00000          -1   0.00000       0.00000    
      6633 OAC      53       OAC      C1       CD2O2A    3.18170       11.6110           0  -1.01600      0.899000    
      6634 OAC      53       OAC      DC1      DRUD     -2.47370      0.400000           0   0.00000       0.00000    
      6635 OAC      53       OAC      C2       CD33A     2.98790       11.6110           0  -1.68100       1.41400    
      6636 OAC      53       OAC      DC2      DRUD     -3.18190      0.400000           0   0.00000       0.00000    
      6637 OAC      53       OAC      H1       HDA3A    0.400000E-02   1.00800           0   0.00000       0.00000    
      6638 OAC      53       OAC      H2       HDA3A    0.400000E-02   1.00800           0   0.00000       0.00000    
      6639 OAC      53       OAC      H3       HDA3A    0.400000E-02   1.00800           0   0.00000       0.00000    
      6640 OAC      53       OAC      O1       OD2C2A    2.05480       15.5994           0 -0.699000       2.39900    
      6641 OAC      53       OAC      DO1      DRUD     -2.05180      0.400000           0   0.00000       0.00000    
      6642 OAC      53       OAC      O2       OD2C2A    2.05480       15.5994           0 -0.699000       2.39900    
      6643 OAC      53       OAC      DO2      DRUD     -2.05180      0.400000           0   0.00000       0.00000    
      6644 OAC      53       OAC      H        DUMH      0.00000       1.00800           0   0.00000       0.00000    
      6645 OAC      53       OAC      LPO11    LPD     -0.383000       0.00000          -1   0.00000       0.00000    
      6646 OAC      53       OAC      LPO12    LPD     -0.383000       0.00000          -1   0.00000       0.00000    
      6647 OAC      53       OAC      LPO21    LPD     -0.383000       0.00000          -1   0.00000       0.00000    
      6648 OAC      53       OAC      LPO22    LPD     -0.383000       0.00000          -1   0.00000       0.00000    
      6649 OAC      54       OAC      C1       CD2O2A    3.18170       11.6110           0  -1.01600      0.899000    
      6650 OAC      54       OAC      DC1      DRUD     -2.47370      0.400000           0   0.00000       0.00000    
      6651 OAC      54       OAC      C2       CD33A     2.98790       11.6110           0  -1.68100       1.41400    
      6652 OAC      54       OAC      DC2      DRUD     -3.18190      0.400000           0   0.00000       0.00000    
      6653 OAC      54       OAC      H1       HDA3A    0.400000E-02   1.00800           0   0.00000       0.00000    
      6654 OAC      54       OAC      H2       HDA3A    0.400000E-02   1.00800           0   0.00000       0.00000    
      6655 OAC      54       OAC      H3       HDA3A    0.400000E-02   1.00800           0   0.00000       0.00000    
      6656 OAC      54       OAC      O1       OD2C2A    2.05480       15.5994           0 -0.699000       2.39900    
      6657 OAC      54       OAC      DO1      DRUD     -2.05180      0.400000           0   0.00000       0.00000    
      6658 OAC      54       OAC      O2       OD2C2A    2.05480       15.5994           0 -0.699000       2.39900    
      6659 OAC      54       OAC      DO2      DRUD     -2.05180      0.400000           0   0.00000       0.00000    
      6660 OAC      54       OAC      H        DUMH      0.00000       1.00800           0   0.00000       0.00000    
      6661 OAC      54       OAC      LPO11    LPD     -0.383000       0.00000          -1   0.00000       0.00000    
      6662 OAC      54       OAC      LPO12    LPD     -0.383000       0.00000          -1   0.00000       0.00000    
      6663 OAC      54       OAC      LPO21    LPD     -0.383000       0.00000          -1   0.00000       0.00000    
      6664 OAC      54       OAC      LPO22    LPD     -0.383000       0.00000          -1   0.00000       0.00000    
      6665 OAC      55       OAC      C1       CD2O2A    3.18170       11.6110           0  -1.01600      0.899000    
      6666 OAC      55       OAC      DC1      DRUD     -2.47370      0.400000           0   0.00000       0.00000    
      6667 OAC      55       OAC      C2       CD33A     2.98790       11.6110           0  -1.68100       1.41400    
      6668 OAC      55       OAC      DC2      DRUD     -3.18190      0.400000           0   0.00000       0.00000    
      6669 OAC      55       OAC      H1       HDA3A    0.400000E-02   1.00800           0   0.00000       0.00000    
      6670 OAC      55       OAC      H2       HDA3A    0.400000E-02   1.00800           0   0.00000       0.00000    
      6671 OAC      55       OAC      H3       HDA3A    0.400000E-02   1.00800           0   0.00000       0.00000    
      6672 OAC      55       OAC      O1       OD2C2A    2.05480       15.5994           0 -0.699000       2.39900    
      6673 OAC      55       OAC      DO1      DRUD     -2.05180      0.400000           0   0.00000       0.00000    
      6674 OAC      55       OAC      O2       OD2C2A    2.05480       15.5994           0 -0.699000       2.39900    
      6675 OAC      55       OAC      DO2      DRUD     -2.05180      0.400000           0   0.00000       0.00000    
      6676 OAC      55       OAC      H        DUMH      0.00000       1.00800           0   0.00000       0.00000    
      6677 OAC      55       OAC      LPO11    LPD     -0.383000       0.00000          -1   0.00000       0.00000    
      6678 OAC      55       OAC      LPO12    LPD     -0.383000       0.00000          -1   0.00000       0.00000    
      6679 OAC      55       OAC      LPO21    LPD     -0.383000       0.00000          -1   0.00000       0.00000    
      6680 OAC      55       OAC      LPO22    LPD     -0.383000       0.00000          -1   0.00000       0.00000    
      6681 OAC      56       OAC      C1       CD2O2A    3.18170       11.6110           0  -1.01600      0.899000    
      6682 OAC      56       OAC      DC1      DRUD     -2.47370      0.400000           0   0.00000       0.00000    
      6683 OAC      56       OAC      C2       CD33A     2.98790       11.6110           0  -1.68100       1.41400    
      6684 OAC      56       OAC      DC2      DRUD     -3.18190      0.400000           0   0.00000       0.00000    
      6685 OAC      56       OAC      H1       HDA3A    0.400000E-02   1.00800           0   0.00000       0.00000    
      6686 OAC      56       OAC      H2       HDA3A    0.400000E-02   1.00800           0   0.00000       0.00000    
      6687 OAC      56       OAC      H3       HDA3A    0.400000E-02   1.00800           0   0.00000       0.00000    
      6688 OAC      56       OAC      O1       OD2C2A    2.05480       15.5994           0 -0.699000       2.39900    
      6689 OAC      56       OAC      DO1      DRUD     -2.05180      0.400000           0   0.00000       0.00000    
      6690 OAC      56       OAC      O2       OD2C2A    2.05480       15.5994           0 -0.699000       2.39900    
      6691 OAC      56       OAC      DO2      DRUD     -2.05180      0.400000           0   0.00000       0.00000    
      6692 OAC      56       OAC      H        DUMH      0.00000       1.00800           0   0.00000       0.00000    
      6693 OAC      56       OAC      LPO11    LPD     -0.383000       0.00000          -1   0.00000       0.00000    
      6694 OAC      56       OAC      LPO12    LPD     -0.383000       0.00000          -1   0.00000       0.00000    
      6695 OAC      56       OAC      LPO21    LPD     -0.383000       0.00000          -1   0.00000       0.00000    
      6696 OAC      56       OAC      LPO22    LPD     -0.383000       0.00000          -1   0.00000       0.00000    
      6697 OAC      57       OAC      C1       CD2O2A    3.18170       11.6110           0  -1.01600      0.899000    
      6698 OAC      57       OAC      DC1      DRUD     -2.47370      0.400000           0   0.00000       0.00000    
      6699 OAC      57       OAC      C2       CD33A     2.98790       11.6110           0  -1.68100       1.41400    
      6700 OAC      57       OAC      DC2      DRUD     -3.18190      0.400000           0   0.00000       0.00000    
      6701 OAC      57       OAC      H1       HDA3A    0.400000E-02   1.00800           0   0.00000       0.00000    
      6702 OAC      57       OAC      H2       HDA3A    0.400000E-02   1.00800           0   0.00000       0.00000    
      6703 OAC      57       OAC      H3       HDA3A    0.400000E-02   1.00800           0   0.00000       0.00000    
      6704 OAC      57       OAC      O1       OD2C2A    2.05480       15.5994           0 -0.699000       2.39900    
      6705 OAC      57       OAC      DO1      DRUD     -2.05180      0.400000           0   0.00000       0.00000    
      6706 OAC      57       OAC      O2       OD2C2A    2.05480       15.5994           0 -0.699000       2.39900    
      6707 OAC      57       OAC      DO2      DRUD     -2.05180      0.400000           0   0.00000       0.00000    
      6708 OAC      57       OAC      H        DUMH      0.00000       1.00800           0   0.00000       0.00000    
      6709 OAC      57       OAC      LPO11    LPD     -0.383000       0.00000          -1   0.00000       0.00000    
      6710 OAC      57       OAC      LPO12    LPD     -0.383000       0.00000          -1   0.00000       0.00000    
      6711 OAC      57       OAC      LPO21    LPD     -0.383000       0.00000          -1   0.00000       0.00000    
      6712 OAC      57       OAC      LPO22    LPD     -0.383000       0.00000          -1   0.00000       0.00000    
      6713 OAC      58       OAC      C1       CD2O2A    3.18170       11.6110           0  -1.01600      0.899000    
      6714 OAC      58       OAC      DC1      DRUD     -2.47370      0.400000           0   0.00000       0.00000    
      6715 OAC      58       OAC      C2       CD33A     2.98790       11.6110           0  -1.68100       1.41400    
      6716 OAC      58       OAC      DC2      DRUD     -3.18190      0.400000           0   0.00000       0.00000    
      6717 OAC      58       OAC      H1       HDA3A    0.400000E-02   1.00800           0   0.00000       0.00000    
      6718 OAC      58       OAC      H2       HDA3A    0.400000E-02   1.00800           0   0.00000       0.00000    
      6719 OAC      58       OAC      H3       HDA3A    0.400000E-02   1.00800           0   0.00000       0.00000    
      6720 OAC      58       OAC      O1       OD2C2A    2.05480       15.5994           0 -0.699000       2.39900    
      6721 OAC      58       OAC      DO1      DRUD     -2.05180      0.400000           0   0.00000       0.00000    
      6722 OAC      58       OAC      O2       OD2C2A    2.05480       15.5994           0 -0.699000       2.39900    
      6723 OAC      58       OAC      DO2      DRUD     -2.05180      0.400000           0   0.00000       0.00000    
      6724 OAC      58       OAC      H        DUMH      0.00000       1.00800           0   0.00000       0.00000    
      6725 OAC      58       OAC      LPO11    LPD     -0.383000       0.00000          -1   0.00000       0.00000    
      6726 OAC      58       OAC      LPO12    LPD     -0.383000       0.00000          -1   0.00000       0.00000    
      6727 OAC      58       OAC      LPO21    LPD     -0.383000       0.00000          -1   0.00000       0.00000    
      6728 OAC      58       OAC      LPO22    LPD     -0.383000       0.00000          -1   0.00000       0.00000    
      6729 OAC      59       OAC      C1       CD2O2A    3.18170       11.6110           0  -1.01600      0.899000    
      6730 OAC      59       OAC      DC1      DRUD     -2.47370      0.400000           0   0.00000       0.00000    
      6731 OAC      59       OAC      C2       CD33A     2.98790       11.6110           0  -1.68100       1.41400    
      6732 OAC      59       OAC      DC2      DRUD     -3.18190      0.400000           0   0.00000       0.00000    
      6733 OAC      59       OAC      H1       HDA3A    0.400000E-02   1.00800           0   0.00000       0.00000    
      6734 OAC      59       OAC      H2       HDA3A    0.400000E-02   1.00800           0   0.00000       0.00000    
      6735 OAC      59       OAC      H3       HDA3A    0.400000E-02   1.00800           0   0.00000       0.00000    
      6736 OAC      59       OAC      O1       OD2C2A    2.05480       15.5994           0 -0.699000       2.39900    
      6737 OAC      59       OAC      DO1      DRUD     -2.05180      0.400000           0   0.00000       0.00000    
      6738 OAC      59       OAC      O2       OD2C2A    2.05480       15.5994           0 -0.699000       2.39900    
      6739 OAC      59       OAC      DO2      DRUD     -2.05180      0.400000           0   0.00000       0.00000    
      6740 OAC      59       OAC      H        DUMH      0.00000       1.00800           0   0.00000       0.00000    
      6741 OAC      59       OAC      LPO11    LPD     -0.383000       0.00000          -1   0.00000       0.00000    
      6742 OAC      59       OAC      LPO12    LPD     -0.383000       0.00000          -1   0.00000       0.00000    
      6743 OAC      59       OAC      LPO21    LPD     -0.383000       0.00000          -1   0.00000       0.00000    
      6744 OAC      59       OAC      LPO22    LPD     -0.383000       0.00000          -1   0.00000       0.00000    
      6745 OAC      60       OAC      C1       CD2O2A    3.18170       11.6110           0  -1.01600      0.899000    
      6746 OAC      60       OAC      DC1      DRUD     -2.47370      0.400000           0   0.00000       0.00000    
      6747 OAC      60       OAC      C2       CD33A     2.98790       11.6110           0  -1.68100       1.41400    
      6748 OAC      60       OAC      DC2      DRUD     -3.18190      0.400000           0   0.00000       0.00000    
      6749 OAC      60       OAC      H1       HDA3A    0.400000E-02   1.00800           0   0.00000       0.00000    
      6750 OAC      60       OAC      H2       HDA3A    0.400000E-02   1.00800           0   0.00000       0.00000    
      6751 OAC      60       OAC      H3       HDA3A    0.400000E-02   1.00800           0   0.00000       0.00000    
      6752 OAC      60       OAC      O1       OD2C2A    2.05480       15.5994           0 -0.699000       2.39900    
      6753 OAC      60       OAC      DO1      DRUD     -2.05180      0.400000           0   0.00000       0.00000    
      6754 OAC      60       OAC      O2       OD2C2A    2.05480       15.5994           0 -0.699000       2.39900    
      6755 OAC      60       OAC      DO2      DRUD     -2.05180      0.400000           0   0.00000       0.00000    
      6756 OAC      60       OAC      H        DUMH      0.00000       1.00800           0   0.00000       0.00000    
      6757 OAC      60       OAC      LPO11    LPD     -0.383000       0.00000          -1   0.00000       0.00000    
      6758 OAC      60       OAC      LPO12    LPD     -0.383000       0.00000          -1   0.00000       0.00000    
      6759 OAC      60       OAC      LPO21    LPD     -0.383000       0.00000          -1   0.00000       0.00000    
      6760 OAC      60       OAC      LPO22    LPD     -0.383000       0.00000          -1   0.00000       0.00000    
      6761 OAC      61       OAC      C1       CD2O2A    3.18170       11.6110           0  -1.01600      0.899000    
      6762 OAC      61       OAC      DC1      DRUD     -2.47370      0.400000           0   0.00000       0.00000    
      6763 OAC      61       OAC      C2       CD33A     2.98790       11.6110           0  -1.68100       1.41400    
      6764 OAC      61       OAC      DC2      DRUD     -3.18190      0.400000           0   0.00000       0.00000    
      6765 OAC      61       OAC      H1       HDA3A    0.400000E-02   1.00800           0   0.00000       0.00000    
      6766 OAC      61       OAC      H2       HDA3A    0.400000E-02   1.00800           0   0.00000       0.00000    
      6767 OAC      61       OAC      H3       HDA3A    0.400000E-02   1.00800           0   0.00000       0.00000    
      6768 OAC      61       OAC      O1       OD2C2A    2.05480       15.5994           0 -0.699000       2.39900    
      6769 OAC      61       OAC      DO1      DRUD     -2.05180      0.400000           0   0.00000       0.00000    
      6770 OAC      61       OAC      O2       OD2C2A    2.05480       15.5994           0 -0.699000       2.39900    
      6771 OAC      61       OAC      DO2      DRUD     -2.05180      0.400000           0   0.00000       0.00000    
      6772 OAC      61       OAC      H        DUMH      0.00000       1.00800           0   0.00000       0.00000    
      6773 OAC      61       OAC      LPO11    LPD     -0.383000       0.00000          -1   0.00000       0.00000    
      6774 OAC      61       OAC      LPO12    LPD     -0.383000       0.00000          -1   0.00000       0.00000    
      6775 OAC      61       OAC      LPO21    LPD     -0.383000       0.00000          -1   0.00000       0.00000    
      6776 OAC      61       OAC      LPO22    LPD     -0.383000       0.00000          -1   0.00000       0.00000    
      6777 OAC      62       OAC      C1       CD2O2A    3.18170       11.6110           0  -1.01600      0.899000    
      6778 OAC      62       OAC      DC1      DRUD     -2.47370      0.400000           0   0.00000       0.00000    
      6779 OAC      62       OAC      C2       CD33A     2.98790       11.6110           0  -1.68100       1.41400    
      6780 OAC      62       OAC      DC2      DRUD     -3.18190      0.400000           0   0.00000       0.00000    
      6781 OAC      62       OAC      H1       HDA3A    0.400000E-02   1.00800           0   0.00000       0.00000    
      6782 OAC      62       OAC      H2       HDA3A    0.400000E-02   1.00800           0   0.00000       0.00000    
      6783 OAC      62       OAC      H3       HDA3A    0.400000E-02   1.00800           0   0.00000       0.00000    
      6784 OAC      62       OAC      O1       OD2C2A    2.05480       15.5994           0 -0.699000       2.39900    
      6785 OAC      62       OAC      DO1      DRUD     -2.05180      0.400000           0   0.00000       0.00000    
      6786 OAC      62       OAC      O2       OD2C2A    2.05480       15.5994           0 -0.699000       2.39900    
      6787 OAC      62       OAC      DO2      DRUD     -2.05180      0.400000           0   0.00000       0.00000    
      6788 OAC      62       OAC      H        DUMH      0.00000       1.00800           0   0.00000       0.00000    
      6789 OAC      62       OAC      LPO11    LPD     -0.383000       0.00000          -1   0.00000       0.00000    
      6790 OAC      62       OAC      LPO12    LPD     -0.383000       0.00000          -1   0.00000       0.00000    
      6791 OAC      62       OAC      LPO21    LPD     -0.383000       0.00000          -1   0.00000       0.00000    
      6792 OAC      62       OAC      LPO22    LPD     -0.383000       0.00000          -1   0.00000       0.00000    
      6793 OAC      63       OAC      C1       CD2O2A    3.18170       11.6110           0  -1.01600      0.899000    
      6794 OAC      63       OAC      DC1      DRUD     -2.47370      0.400000           0   0.00000       0.00000    
      6795 OAC      63       OAC      C2       CD33A     2.98790       11.6110           0  -1.68100       1.41400    
      6796 OAC      63       OAC      DC2      DRUD     -3.18190      0.400000           0   0.00000       0.00000    
      6797 OAC      63       OAC      H1       HDA3A    0.400000E-02   1.00800           0   0.00000       0.00000    
      6798 OAC      63       OAC      H2       HDA3A    0.400000E-02   1.00800           0   0.00000       0.00000    
      6799 OAC      63       OAC      H3       HDA3A    0.400000E-02   1.00800           0   0.00000       0.00000    
      6800 OAC      63       OAC      O1       OD2C2A    2.05480       15.5994           0 -0.699000       2.39900    
      6801 OAC      63       OAC      DO1      DRUD     -2.05180      0.400000           0   0.00000       0.00000    
      6802 OAC      63       OAC      O2       OD2C2A    2.05480       15.5994           0 -0.699000       2.39900    
      6803 OAC      63       OAC      DO2      DRUD     -2.05180      0.400000           0   0.00000       0.00000    
      6804 OAC      63       OAC      H        DUMH      0.00000       1.00800           0   0.00000       0.00000    
      6805 OAC      63       OAC      LPO11    LPD     -0.383000       0.00000          -1   0.00000       0.00000    
      6806 OAC      63       OAC      LPO12    LPD     -0.383000       0.00000          -1   0.00000       0.00000    
      6807 OAC      63       OAC      LPO21    LPD     -0.383000       0.00000          -1   0.00000       0.00000    
      6808 OAC      63       OAC      LPO22    LPD     -0.383000       0.00000          -1   0.00000       0.00000    
      6809 OAC      64       OAC      C1       CD2O2A    3.18170       11.6110           0  -1.01600      0.899000    
      6810 OAC      64       OAC      DC1      DRUD     -2.47370      0.400000           0   0.00000       0.00000    
      6811 OAC      64       OAC      C2       CD33A     2.98790       11.6110           0  -1.68100       1.41400    
      6812 OAC      64       OAC      DC2      DRUD     -3.18190      0.400000           0   0.00000       0.00000    
      6813 OAC      64       OAC      H1       HDA3A    0.400000E-02   1.00800           0   0.00000       0.00000    
      6814 OAC      64       OAC      H2       HDA3A    0.400000E-02   1.00800           0   0.00000       0.00000    
      6815 OAC      64       OAC      H3       HDA3A    0.400000E-02   1.00800           0   0.00000       0.00000    
      6816 OAC      64       OAC      O1       OD2C2A    2.05480       15.5994           0 -0.699000       2.39900    
      6817 OAC      64       OAC      DO1      DRUD     -2.05180      0.400000           0   0.00000       0.00000    
      6818 OAC      64       OAC      O2       OD2C2A    2.05480       15.5994           0 -0.699000       2.39900    
      6819 OAC      64       OAC      DO2      DRUD     -2.05180      0.400000           0   0.00000       0.00000    
      6820 OAC      64       OAC      H        DUMH      0.00000       1.00800           0   0.00000       0.00000    
      6821 OAC      64       OAC      LPO11    LPD     -0.383000       0.00000          -1   0.00000       0.00000    
      6822 OAC      64       OAC      LPO12    LPD     -0.383000       0.00000          -1   0.00000       0.00000    
      6823 OAC      64       OAC      LPO21    LPD     -0.383000       0.00000          -1   0.00000       0.00000    
      6824 OAC      64       OAC      LPO22    LPD     -0.383000       0.00000          -1   0.00000       0.00000    
      6825 OAC      65       OAC      C1       CD2O2A    3.18170       11.6110           0  -1.01600      0.899000    
      6826 OAC      65       OAC      DC1      DRUD     -2.47370      0.400000           0   0.00000       0.00000    
      6827 OAC      65       OAC      C2       CD33A     2.98790       11.6110           0  -1.68100       1.41400    
      6828 OAC      65       OAC      DC2      DRUD     -3.18190      0.400000           0   0.00000       0.00000    
      6829 OAC      65       OAC      H1       HDA3A    0.400000E-02   1.00800           0   0.00000       0.00000    
      6830 OAC      65       OAC      H2       HDA3A    0.400000E-02   1.00800           0   0.00000       0.00000    
      6831 OAC      65       OAC      H3       HDA3A    0.400000E-02   1.00800           0   0.00000       0.00000    
      6832 OAC      65       OAC      O1       OD2C2A    2.05480       15.5994           0 -0.699000       2.39900    
      6833 OAC      65       OAC      DO1      DRUD     -2.05180      0.400000           0   0.00000       0.00000    
      6834 OAC      65       OAC      O2       OD2C2A    2.05480       15.5994           0 -0.699000       2.39900    
      6835 OAC      65       OAC      DO2      DRUD     -2.05180      0.400000           0   0.00000       0.00000    
      6836 OAC      65       OAC      H        DUMH      0.00000       1.00800           0   0.00000       0.00000    
      6837 OAC      65       OAC      LPO11    LPD     -0.383000       0.00000          -1   0.00000       0.00000    
      6838 OAC      65       OAC      LPO12    LPD     -0.383000       0.00000          -1   0.00000       0.00000    
      6839 OAC      65       OAC      LPO21    LPD     -0.383000       0.00000          -1   0.00000       0.00000    
      6840 OAC      65       OAC      LPO22    LPD     -0.383000       0.00000          -1   0.00000       0.00000    
      6841 OAC      66       OAC      C1       CD2O2A    3.18170       11.6110           0  -1.01600      0.899000    
      6842 OAC      66       OAC      DC1      DRUD     -2.47370      0.400000           0   0.00000       0.00000    
      6843 OAC      66       OAC      C2       CD33A     2.98790       11.6110           0  -1.68100       1.41400    
      6844 OAC      66       OAC      DC2      DRUD     -3.18190      0.400000           0   0.00000       0.00000    
      6845 OAC      66       OAC      H1       HDA3A    0.400000E-02   1.00800           0   0.00000       0.00000    
      6846 OAC      66       OAC      H2       HDA3A    0.400000E-02   1.00800           0   0.00000       0.00000    
      6847 OAC      66       OAC      H3       HDA3A    0.400000E-02   1.00800           0   0.00000       0.00000    
      6848 OAC      66       OAC      O1       OD2C2A    2.05480       15.5994           0 -0.699000       2.39900    
      6849 OAC      66       OAC      DO1      DRUD     -2.05180      0.400000           0   0.00000       0.00000    
      6850 OAC      66       OAC      O2       OD2C2A    2.05480       15.5994           0 -0.699000       2.39900    
      6851 OAC      66       OAC      DO2      DRUD     -2.05180      0.400000           0   0.00000       0.00000    
      6852 OAC      66       OAC      H        DUMH      0.00000       1.00800           0   0.00000       0.00000    
      6853 OAC      66       OAC      LPO11    LPD     -0.383000       0.00000          -1   0.00000       0.00000    
      6854 OAC      66       OAC      LPO12    LPD     -0.383000       0.00000          -1   0.00000       0.00000    
      6855 OAC      66       OAC      LPO21    LPD     -0.383000       0.00000          -1   0.00000       0.00000    
      6856 OAC      66       OAC      LPO22    LPD     -0.383000       0.00000          -1   0.00000       0.00000    
      6857 OAC      67       OAC      C1       CD2O2A    3.18170       11.6110           0  -1.01600      0.899000    
      6858 OAC      67       OAC      DC1      DRUD     -2.47370      0.400000           0   0.00000       0.00000    
      6859 OAC      67       OAC      C2       CD33A     2.98790       11.6110           0  -1.68100       1.41400    
      6860 OAC      67       OAC      DC2      DRUD     -3.18190      0.400000           0   0.00000       0.00000    
      6861 OAC      67       OAC      H1       HDA3A    0.400000E-02   1.00800           0   0.00000       0.00000    
      6862 OAC      67       OAC      H2       HDA3A    0.400000E-02   1.00800           0   0.00000       0.00000    
      6863 OAC      67       OAC      H3       HDA3A    0.400000E-02   1.00800           0   0.00000       0.00000    
      6864 OAC      67       OAC      O1       OD2C2A    2.05480       15.5994           0 -0.699000       2.39900    
      6865 OAC      67       OAC      DO1      DRUD     -2.05180      0.400000           0   0.00000       0.00000    
      6866 OAC      67       OAC      O2       OD2C2A    2.05480       15.5994           0 -0.699000       2.39900    
      6867 OAC      67       OAC      DO2      DRUD     -2.05180      0.400000           0   0.00000       0.00000    
      6868 OAC      67       OAC      H        DUMH      0.00000       1.00800           0   0.00000       0.00000    
      6869 OAC      67       OAC      LPO11    LPD     -0.383000       0.00000          -1   0.00000       0.00000    
      6870 OAC      67       OAC      LPO12    LPD     -0.383000       0.00000          -1   0.00000       0.00000    
      6871 OAC      67       OAC      LPO21    LPD     -0.383000       0.00000          -1   0.00000       0.00000    
      6872 OAC      67       OAC      LPO22    LPD     -0.383000       0.00000          -1   0.00000       0.00000    
      6873 OAC      68       OAC      C1       CD2O2A    3.18170       11.6110           0  -1.01600      0.899000    
      6874 OAC      68       OAC      DC1      DRUD     -2.47370      0.400000           0   0.00000       0.00000    
      6875 OAC      68       OAC      C2       CD33A     2.98790       11.6110           0  -1.68100       1.41400    
      6876 OAC      68       OAC      DC2      DRUD     -3.18190      0.400000           0   0.00000       0.00000    
      6877 OAC      68       OAC      H1       HDA3A    0.400000E-02   1.00800           0   0.00000       0.00000    
      6878 OAC      68       OAC      H2       HDA3A    0.400000E-02   1.00800           0   0.00000       0.00000    
      6879 OAC      68       OAC      H3       HDA3A    0.400000E-02   1.00800           0   0.00000       0.00000    
      6880 OAC      68       OAC      O1       OD2C2A    2.05480       15.5994           0 -0.699000       2.39900    
      6881 OAC      68       OAC      DO1      DRUD     -2.05180      0.400000           0   0.00000       0.00000    
      6882 OAC      68       OAC      O2       OD2C2A    2.05480       15.5994           0 -0.699000       2.39900    
      6883 OAC      68       OAC      DO2      DRUD     -2.05180      0.400000           0   0.00000       0.00000    
      6884 OAC      68       OAC      H        DUMH      0.00000       1.00800           0   0.00000       0.00000    
      6885 OAC      68       OAC      LPO11    LPD     -0.383000       0.00000          -1   0.00000       0.00000    
      6886 OAC      68       OAC      LPO12    LPD     -0.383000       0.00000          -1   0.00000       0.00000    
      6887 OAC      68       OAC      LPO21    LPD     -0.383000       0.00000          -1   0.00000       0.00000    
      6888 OAC      68       OAC      LPO22    LPD     -0.383000       0.00000          -1   0.00000       0.00000    
      6889 OAC      69       OAC      C1       CD2O2A    3.18170       11.6110           0  -1.01600      0.899000    
      6890 OAC      69       OAC      DC1      DRUD     -2.47370      0.400000           0   0.00000       0.00000    
      6891 OAC      69       OAC      C2       CD33A     2.98790       11.6110           0  -1.68100       1.41400    
      6892 OAC      69       OAC      DC2      DRUD     -3.18190      0.400000           0   0.00000       0.00000    
      6893 OAC      69       OAC      H1       HDA3A    0.400000E-02   1.00800           0   0.00000       0.00000    
      6894 OAC      69       OAC      H2       HDA3A    0.400000E-02   1.00800           0   0.00000       0.00000    
      6895 OAC      69       OAC      H3       HDA3A    0.400000E-02   1.00800           0   0.00000       0.00000    
      6896 OAC      69       OAC      O1       OD2C2A    2.05480       15.5994           0 -0.699000       2.39900    
      6897 OAC      69       OAC      DO1      DRUD     -2.05180      0.400000           0   0.00000       0.00000    
      6898 OAC      69       OAC      O2       OD2C2A    2.05480       15.5994           0 -0.699000       2.39900    
      6899 OAC      69       OAC      DO2      DRUD     -2.05180      0.400000           0   0.00000       0.00000    
      6900 OAC      69       OAC      H        DUMH      0.00000       1.00800           0   0.00000       0.00000    
      6901 OAC      69       OAC      LPO11    LPD     -0.383000       0.00000          -1   0.00000       0.00000    
      6902 OAC      69       OAC      LPO12    LPD     -0.383000       0.00000          -1   0.00000       0.00000    
      6903 OAC      69       OAC      LPO21    LPD     -0.383000       0.00000          -1   0.00000       0.00000    
      6904 OAC      69       OAC      LPO22    LPD     -0.383000       0.00000          -1   0.00000       0.00000    
      6905 OAC      70       OAC      C1       CD2O2A    3.18170       11.6110           0  -1.01600      0.899000    
      6906 OAC      70       OAC      DC1      DRUD     -2.47370      0.400000           0   0.00000       0.00000    
      6907 OAC      70       OAC      C2       CD33A     2.98790       11.6110           0  -1.68100       1.41400    
      6908 OAC      70       OAC      DC2      DRUD     -3.18190      0.400000           0   0.00000       0.00000    
      6909 OAC      70       OAC      H1       HDA3A    0.400000E-02   1.00800           0   0.00000       0.00000    
      6910 OAC      70       OAC      H2       HDA3A    0.400000E-02   1.00800           0   0.00000       0.00000    
      6911 OAC      70       OAC      H3       HDA3A    0.400000E-02   1.00800           0   0.00000       0.00000    
      6912 OAC      70       OAC      O1       OD2C2A    2.05480       15.5994           0 -0.699000       2.39900    
      6913 OAC      70       OAC      DO1      DRUD     -2.05180      0.400000           0   0.00000       0.00000    
      6914 OAC      70       OAC      O2       OD2C2A    2.05480       15.5994           0 -0.699000       2.39900    
      6915 OAC      70       OAC      DO2      DRUD     -2.05180      0.400000           0   0.00000       0.00000    
      6916 OAC      70       OAC      H        DUMH      0.00000       1.00800           0   0.00000       0.00000    
      6917 OAC      70       OAC      LPO11    LPD     -0.383000       0.00000          -1   0.00000       0.00000    
      6918 OAC      70       OAC      LPO12    LPD     -0.383000       0.00000          -1   0.00000       0.00000    
      6919 OAC      70       OAC      LPO21    LPD     -0.383000       0.00000          -1   0.00000       0.00000    
      6920 OAC      70       OAC      LPO22    LPD     -0.383000       0.00000          -1   0.00000       0.00000    
      6921 OAC      71       OAC      C1       CD2O2A    3.18170       11.6110           0  -1.01600      0.899000    
      6922 OAC      71       OAC      DC1      DRUD     -2.47370      0.400000           0   0.00000       0.00000    
      6923 OAC      71       OAC      C2       CD33A     2.98790       11.6110           0  -1.68100       1.41400    
      6924 OAC      71       OAC      DC2      DRUD     -3.18190      0.400000           0   0.00000       0.00000    
      6925 OAC      71       OAC      H1       HDA3A    0.400000E-02   1.00800           0   0.00000       0.00000    
      6926 OAC      71       OAC      H2       HDA3A    0.400000E-02   1.00800           0   0.00000       0.00000    
      6927 OAC      71       OAC      H3       HDA3A    0.400000E-02   1.00800           0   0.00000       0.00000    
      6928 OAC      71       OAC      O1       OD2C2A    2.05480       15.5994           0 -0.699000       2.39900    
      6929 OAC      71       OAC      DO1      DRUD     -2.05180      0.400000           0   0.00000       0.00000    
      6930 OAC      71       OAC      O2       OD2C2A    2.05480       15.5994           0 -0.699000       2.39900    
      6931 OAC      71       OAC      DO2      DRUD     -2.05180      0.400000           0   0.00000       0.00000    
      6932 OAC      71       OAC      H        DUMH      0.00000       1.00800           0   0.00000       0.00000    
      6933 OAC      71       OAC      LPO11    LPD     -0.383000       0.00000          -1   0.00000       0.00000    
      6934 OAC      71       OAC      LPO12    LPD     -0.383000       0.00000          -1   0.00000       0.00000    
      6935 OAC      71       OAC      LPO21    LPD     -0.383000       0.00000          -1   0.00000       0.00000    
      6936 OAC      71       OAC      LPO22    LPD     -0.383000       0.00000          -1   0.00000       0.00000    
      6937 OAC      72       OAC      C1       CD2O2A    3.18170       11.6110           0  -1.01600      0.899000    
      6938 OAC      72       OAC      DC1      DRUD     -2.47370      0.400000           0   0.00000       0.00000    
      6939 OAC      72       OAC      C2       CD33A     2.98790       11.6110           0  -1.68100       1.41400    
      6940 OAC      72       OAC      DC2      DRUD     -3.18190      0.400000           0   0.00000       0.00000    
      6941 OAC      72       OAC      H1       HDA3A    0.400000E-02   1.00800           0   0.00000       0.00000    
      6942 OAC      72       OAC      H2       HDA3A    0.400000E-02   1.00800           0   0.00000       0.00000    
      6943 OAC      72       OAC      H3       HDA3A    0.400000E-02   1.00800           0   0.00000       0.00000    
      6944 OAC      72       OAC      O1       OD2C2A    2.05480       15.5994           0 -0.699000       2.39900    
      6945 OAC      72       OAC      DO1      DRUD     -2.05180      0.400000           0   0.00000       0.00000    
      6946 OAC      72       OAC      O2       OD2C2A    2.05480       15.5994           0 -0.699000       2.39900    
      6947 OAC      72       OAC      DO2      DRUD     -2.05180      0.400000           0   0.00000       0.00000    
      6948 OAC      72       OAC      H        DUMH      0.00000       1.00800           0   0.00000       0.00000    
      6949 OAC      72       OAC      LPO11    LPD     -0.383000       0.00000          -1   0.00000       0.00000    
      6950 OAC      72       OAC      LPO12    LPD     -0.383000       0.00000          -1   0.00000       0.00000    
      6951 OAC      72       OAC      LPO21    LPD     -0.383000       0.00000          -1   0.00000       0.00000    
      6952 OAC      72       OAC      LPO22    LPD     -0.383000       0.00000          -1   0.00000       0.00000    
      6953 OAC      73       OAC      C1       CD2O2A    3.18170       11.6110           0  -1.01600      0.899000    
      6954 OAC      73       OAC      DC1      DRUD     -2.47370      0.400000           0   0.00000       0.00000    
      6955 OAC      73       OAC      C2       CD33A     2.98790       11.6110           0  -1.68100       1.41400    
      6956 OAC      73       OAC      DC2      DRUD     -3.18190      0.400000           0   0.00000       0.00000    
      6957 OAC      73       OAC      H1       HDA3A    0.400000E-02   1.00800           0   0.00000       0.00000    
      6958 OAC      73       OAC      H2       HDA3A    0.400000E-02   1.00800           0   0.00000       0.00000    
      6959 OAC      73       OAC      H3       HDA3A    0.400000E-02   1.00800           0   0.00000       0.00000    
      6960 OAC      73       OAC      O1       OD2C2A    2.05480       15.5994           0 -0.699000       2.39900    
      6961 OAC      73       OAC      DO1      DRUD     -2.05180      0.400000           0   0.00000       0.00000    
      6962 OAC      73       OAC      O2       OD2C2A    2.05480       15.5994           0 -0.699000       2.39900    
      6963 OAC      73       OAC      DO2      DRUD     -2.05180      0.400000           0   0.00000       0.00000    
      6964 OAC      73       OAC      H        DUMH      0.00000       1.00800           0   0.00000       0.00000    
      6965 OAC      73       OAC      LPO11    LPD     -0.383000       0.00000          -1   0.00000       0.00000    
      6966 OAC      73       OAC      LPO12    LPD     -0.383000       0.00000          -1   0.00000       0.00000    
      6967 OAC      73       OAC      LPO21    LPD     -0.383000       0.00000          -1   0.00000       0.00000    
      6968 OAC      73       OAC      LPO22    LPD     -0.383000       0.00000          -1   0.00000       0.00000    
      6969 OAC      74       OAC      C1       CD2O2A    3.18170       11.6110           0  -1.01600      0.899000    
      6970 OAC      74       OAC      DC1      DRUD     -2.47370      0.400000           0   0.00000       0.00000    
      6971 OAC      74       OAC      C2       CD33A     2.98790       11.6110           0  -1.68100       1.41400    
      6972 OAC      74       OAC      DC2      DRUD     -3.18190      0.400000           0   0.00000       0.00000    
      6973 OAC      74       OAC      H1       HDA3A    0.400000E-02   1.00800           0   0.00000       0.00000    
      6974 OAC      74       OAC      H2       HDA3A    0.400000E-02   1.00800           0   0.00000       0.00000    
      6975 OAC      74       OAC      H3       HDA3A    0.400000E-02   1.00800           0   0.00000       0.00000    
      6976 OAC      74       OAC      O1       OD2C2A    2.05480       15.5994           0 -0.699000       2.39900    
      6977 OAC      74       OAC      DO1      DRUD     -2.05180      0.400000           0   0.00000       0.00000    
      6978 OAC      74       OAC      O2       OD2C2A    2.05480       15.5994           0 -0.699000       2.39900    
      6979 OAC      74       OAC      DO2      DRUD     -2.05180      0.400000           0   0.00000       0.00000    
      6980 OAC      74       OAC      H        DUMH      0.00000       1.00800           0   0.00000       0.00000    
      6981 OAC      74       OAC      LPO11    LPD     -0.383000       0.00000          -1   0.00000       0.00000    
      6982 OAC      74       OAC      LPO12    LPD     -0.383000       0.00000          -1   0.00000       0.00000    
      6983 OAC      74       OAC      LPO21    LPD     -0.383000       0.00000          -1   0.00000       0.00000    
      6984 OAC      74       OAC      LPO22    LPD     -0.383000       0.00000          -1   0.00000       0.00000    
      6985 OAC      75       OAC      C1       CD2O2A    3.18170       11.6110           0  -1.01600      0.899000    
      6986 OAC      75       OAC      DC1      DRUD     -2.47370      0.400000           0   0.00000       0.00000    
      6987 OAC      75       OAC      C2       CD33A     2.98790       11.6110           0  -1.68100       1.41400    
      6988 OAC      75       OAC      DC2      DRUD     -3.18190      0.400000           0   0.00000       0.00000    
      6989 OAC      75       OAC      H1       HDA3A    0.400000E-02   1.00800           0   0.00000       0.00000    
      6990 OAC      75       OAC      H2       HDA3A    0.400000E-02   1.00800           0   0.00000       0.00000    
      6991 OAC      75       OAC      H3       HDA3A    0.400000E-02   1.00800           0   0.00000       0.00000    
      6992 OAC      75       OAC      O1       OD2C2A    2.05480       15.5994           0 -0.699000       2.39900    
      6993 OAC      75       OAC      DO1      DRUD     -2.05180      0.400000           0   0.00000       0.00000    
      6994 OAC      75       OAC      O2       OD2C2A    2.05480       15.5994           0 -0.699000       2.39900    
      6995 OAC      75       OAC      DO2      DRUD     -2.05180      0.400000           0   0.00000       0.00000    
      6996 OAC      75       OAC      H        DUMH      0.00000       1.00800           0   0.00000       0.00000    
      6997 OAC      75       OAC      LPO11    LPD     -0.383000       0.00000          -1   0.00000       0.00000    
      6998 OAC      75       OAC      LPO12    LPD     -0.383000       0.00000          -1   0.00000       0.00000    
      6999 OAC      75       OAC      LPO21    LPD     -0.383000       0.00000          -1   0.00000       0.00000    
      7000 OAC      75       OAC      LPO22    LPD     -0.383000       0.00000          -1   0.00000       0.00000    
      7001 OAC      76       OAC      C1       CD2O2A    3.18170       11.6110           0  -1.01600      0.899000    
      7002 OAC      76       OAC      DC1      DRUD     -2.47370      0.400000           0   0.00000       0.00000    
      7003 OAC      76       OAC      C2       CD33A     2.98790       11.6110           0  -1.68100       1.41400    
      7004 OAC      76       OAC      DC2      DRUD     -3.18190      0.400000           0   0.00000       0.00000    
      7005 OAC      76       OAC      H1       HDA3A    0.400000E-02   1.00800           0   0.00000       0.00000    
      7006 OAC      76       OAC      H2       HDA3A    0.400000E-02   1.00800           0   0.00000       0.00000    
      7007 OAC      76       OAC      H3       HDA3A    0.400000E-02   1.00800           0   0.00000       0.00000    
      7008 OAC      76       OAC      O1       OD2C2A    2.05480       15.5994           0 -0.699000       2.39900    
      7009 OAC      76       OAC      DO1      DRUD     -2.05180      0.400000           0   0.00000       0.00000    
      7010 OAC      76       OAC      O2       OD2C2A    2.05480       15.5994           0 -0.699000       2.39900    
      7011 OAC      76       OAC      DO2      DRUD     -2.05180      0.400000           0   0.00000       0.00000    
      7012 OAC      76       OAC      H        DUMH      0.00000       1.00800           0   0.00000       0.00000    
      7013 OAC      76       OAC      LPO11    LPD     -0.383000       0.00000          -1   0.00000       0.00000    
      7014 OAC      76       OAC      LPO12    LPD     -0.383000       0.00000          -1   0.00000       0.00000    
      7015 OAC      76       OAC      LPO21    LPD     -0.383000       0.00000          -1   0.00000       0.00000    
      7016 OAC      76       OAC      LPO22    LPD     -0.383000       0.00000          -1   0.00000       0.00000    
      7017 OAC      77       OAC      C1       CD2O2A    3.18170       11.6110           0  -1.01600      0.899000    
      7018 OAC      77       OAC      DC1      DRUD     -2.47370      0.400000           0   0.00000       0.00000    
      7019 OAC      77       OAC      C2       CD33A     2.98790       11.6110           0  -1.68100       1.41400    
      7020 OAC      77       OAC      DC2      DRUD     -3.18190      0.400000           0   0.00000       0.00000    
      7021 OAC      77       OAC      H1       HDA3A    0.400000E-02   1.00800           0   0.00000       0.00000    
      7022 OAC      77       OAC      H2       HDA3A    0.400000E-02   1.00800           0   0.00000       0.00000    
      7023 OAC      77       OAC      H3       HDA3A    0.400000E-02   1.00800           0   0.00000       0.00000    
      7024 OAC      77       OAC      O1       OD2C2A    2.05480       15.5994           0 -0.699000       2.39900    
      7025 OAC      77       OAC      DO1      DRUD     -2.05180      0.400000           0   0.00000       0.00000    
      7026 OAC      77       OAC      O2       OD2C2A    2.05480       15.5994           0 -0.699000       2.39900    
      7027 OAC      77       OAC      DO2      DRUD     -2.05180      0.400000           0   0.00000       0.00000    
      7028 OAC      77       OAC      H        DUMH      0.00000       1.00800           0   0.00000       0.00000    
      7029 OAC      77       OAC      LPO11    LPD     -0.383000       0.00000          -1   0.00000       0.00000    
      7030 OAC      77       OAC      LPO12    LPD     -0.383000       0.00000          -1   0.00000       0.00000    
      7031 OAC      77       OAC      LPO21    LPD     -0.383000       0.00000          -1   0.00000       0.00000    
      7032 OAC      77       OAC      LPO22    LPD     -0.383000       0.00000          -1   0.00000       0.00000    
      7033 OAC      78       OAC      C1       CD2O2A    3.18170       11.6110           0  -1.01600      0.899000    
      7034 OAC      78       OAC      DC1      DRUD     -2.47370      0.400000           0   0.00000       0.00000    
      7035 OAC      78       OAC      C2       CD33A     2.98790       11.6110           0  -1.68100       1.41400    
      7036 OAC      78       OAC      DC2      DRUD     -3.18190      0.400000           0   0.00000       0.00000    
      7037 OAC      78       OAC      H1       HDA3A    0.400000E-02   1.00800           0   0.00000       0.00000    
      7038 OAC      78       OAC      H2       HDA3A    0.400000E-02   1.00800           0   0.00000       0.00000    
      7039 OAC      78       OAC      H3       HDA3A    0.400000E-02   1.00800           0   0.00000       0.00000    
      7040 OAC      78       OAC      O1       OD2C2A    2.05480       15.5994           0 -0.699000       2.39900    
      7041 OAC      78       OAC      DO1      DRUD     -2.05180      0.400000           0   0.00000       0.00000    
      7042 OAC      78       OAC      O2       OD2C2A    2.05480       15.5994           0 -0.699000       2.39900    
      7043 OAC      78       OAC      DO2      DRUD     -2.05180      0.400000           0   0.00000       0.00000    
      7044 OAC      78       OAC      H        DUMH      0.00000       1.00800           0   0.00000       0.00000    
      7045 OAC      78       OAC      LPO11    LPD     -0.383000       0.00000          -1   0.00000       0.00000    
      7046 OAC      78       OAC      LPO12    LPD     -0.383000       0.00000          -1   0.00000       0.00000    
      7047 OAC      78       OAC      LPO21    LPD     -0.383000       0.00000          -1   0.00000       0.00000    
      7048 OAC      78       OAC      LPO22    LPD     -0.383000       0.00000          -1   0.00000       0.00000    
      7049 OAC      79       OAC      C1       CD2O2A    3.18170       11.6110           0  -1.01600      0.899000    
      7050 OAC      79       OAC      DC1      DRUD     -2.47370      0.400000           0   0.00000       0.00000    
      7051 OAC      79       OAC      C2       CD33A     2.98790       11.6110           0  -1.68100       1.41400    
      7052 OAC      79       OAC      DC2      DRUD     -3.18190      0.400000           0   0.00000       0.00000    
      7053 OAC      79       OAC      H1       HDA3A    0.400000E-02   1.00800           0   0.00000       0.00000    
      7054 OAC      79       OAC      H2       HDA3A    0.400000E-02   1.00800           0   0.00000       0.00000    
      7055 OAC      79       OAC      H3       HDA3A    0.400000E-02   1.00800           0   0.00000       0.00000    
      7056 OAC      79       OAC      O1       OD2C2A    2.05480       15.5994           0 -0.699000       2.39900    
      7057 OAC      79       OAC      DO1      DRUD     -2.05180      0.400000           0   0.00000       0.00000    
      7058 OAC      79       OAC      O2       OD2C2A    2.05480       15.5994           0 -0.699000       2.39900    
      7059 OAC      79       OAC      DO2      DRUD     -2.05180      0.400000           0   0.00000       0.00000    
      7060 OAC      79       OAC      H        DUMH      0.00000       1.00800           0   0.00000       0.00000    
      7061 OAC      79       OAC      LPO11    LPD     -0.383000       0.00000          -1   0.00000       0.00000    
      7062 OAC      79       OAC      LPO12    LPD     -0.383000       0.00000          -1   0.00000       0.00000    
      7063 OAC      79       OAC      LPO21    LPD     -0.383000       0.00000          -1   0.00000       0.00000    
      7064 OAC      79       OAC      LPO22    LPD     -0.383000       0.00000          -1   0.00000       0.00000    
      7065 OAC      80       OAC      C1       CD2O2A    3.18170       11.6110           0  -1.01600      0.899000    
      7066 OAC      80       OAC      DC1      DRUD     -2.47370      0.400000           0   0.00000       0.00000    
      7067 OAC      80       OAC      C2       CD33A     2.98790       11.6110           0  -1.68100       1.41400    
      7068 OAC      80       OAC      DC2      DRUD     -3.18190      0.400000           0   0.00000       0.00000    
      7069 OAC      80       OAC      H1       HDA3A    0.400000E-02   1.00800           0   0.00000       0.00000    
      7070 OAC      80       OAC      H2       HDA3A    0.400000E-02   1.00800           0   0.00000       0.00000    
      7071 OAC      80       OAC      H3       HDA3A    0.400000E-02   1.00800           0   0.00000       0.00000    
      7072 OAC      80       OAC      O1       OD2C2A    2.05480       15.5994           0 -0.699000       2.39900    
      7073 OAC      80       OAC      DO1      DRUD     -2.05180      0.400000           0   0.00000       0.00000    
      7074 OAC      80       OAC      O2       OD2C2A    2.05480       15.5994           0 -0.699000       2.39900    
      7075 OAC      80       OAC      DO2      DRUD     -2.05180      0.400000           0   0.00000       0.00000    
      7076 OAC      80       OAC      H        DUMH      0.00000       1.00800           0   0.00000       0.00000    
      7077 OAC      80       OAC      LPO11    LPD     -0.383000       0.00000          -1   0.00000       0.00000    
      7078 OAC      80       OAC      LPO12    LPD     -0.383000       0.00000          -1   0.00000       0.00000    
      7079 OAC      80       OAC      LPO21    LPD     -0.383000       0.00000          -1   0.00000       0.00000    
      7080 OAC      80       OAC      LPO22    LPD     -0.383000       0.00000          -1   0.00000       0.00000    
      7081 OAC      81       OAC      C1       CD2O2A    3.18170       11.6110           0  -1.01600      0.899000    
      7082 OAC      81       OAC      DC1      DRUD     -2.47370      0.400000           0   0.00000       0.00000    
      7083 OAC      81       OAC      C2       CD33A     2.98790       11.6110           0  -1.68100       1.41400    
      7084 OAC      81       OAC      DC2      DRUD     -3.18190      0.400000           0   0.00000       0.00000    
      7085 OAC      81       OAC      H1       HDA3A    0.400000E-02   1.00800           0   0.00000       0.00000    
      7086 OAC      81       OAC      H2       HDA3A    0.400000E-02   1.00800           0   0.00000       0.00000    
      7087 OAC      81       OAC      H3       HDA3A    0.400000E-02   1.00800           0   0.00000       0.00000    
      7088 OAC      81       OAC      O1       OD2C2A    2.05480       15.5994           0 -0.699000       2.39900    
      7089 OAC      81       OAC      DO1      DRUD     -2.05180      0.400000           0   0.00000       0.00000    
      7090 OAC      81       OAC      O2       OD2C2A    2.05480       15.5994           0 -0.699000       2.39900    
      7091 OAC      81       OAC      DO2      DRUD     -2.05180      0.400000           0   0.00000       0.00000    
      7092 OAC      81       OAC      H        DUMH      0.00000       1.00800           0   0.00000       0.00000    
      7093 OAC      81       OAC      LPO11    LPD     -0.383000       0.00000          -1   0.00000       0.00000    
      7094 OAC      81       OAC      LPO12    LPD     -0.383000       0.00000          -1   0.00000       0.00000    
      7095 OAC      81       OAC      LPO21    LPD     -0.383000       0.00000          -1   0.00000       0.00000    
      7096 OAC      81       OAC      LPO22    LPD     -0.383000       0.00000          -1   0.00000       0.00000    
      7097 OAC      82       OAC      C1       CD2O2A    3.18170       11.6110           0  -1.01600      0.899000    
      7098 OAC      82       OAC      DC1      DRUD     -2.47370      0.400000           0   0.00000       0.00000    
      7099 OAC      82       OAC      C2       CD33A     2.98790       11.6110           0  -1.68100       1.41400    
      7100 OAC      82       OAC      DC2      DRUD     -3.18190      0.400000           0   0.00000       0.00000    
      7101 OAC      82       OAC      H1       HDA3A    0.400000E-02   1.00800           0   0.00000       0.00000    
      7102 OAC      82       OAC      H2       HDA3A    0.400000E-02   1.00800           0   0.00000       0.00000    
      7103 OAC      82       OAC      H3       HDA3A    0.400000E-02   1.00800           0   0.00000       0.00000    
      7104 OAC      82       OAC      O1       OD2C2A    2.05480       15.5994           0 -0.699000       2.39900    
      7105 OAC      82       OAC      DO1      DRUD     -2.05180      0.400000           0   0.00000       0.00000    
      7106 OAC      82       OAC      O2       OD2C2A    2.05480       15.5994           0 -0.699000       2.39900    
      7107 OAC      82       OAC      DO2      DRUD     -2.05180      0.400000           0   0.00000       0.00000    
      7108 OAC      82       OAC      H        DUMH      0.00000       1.00800           0   0.00000       0.00000    
      7109 OAC      82       OAC      LPO11    LPD     -0.383000       0.00000          -1   0.00000       0.00000    
      7110 OAC      82       OAC      LPO12    LPD     -0.383000       0.00000          -1   0.00000       0.00000    
      7111 OAC      82       OAC      LPO21    LPD     -0.383000       0.00000          -1   0.00000       0.00000    
      7112 OAC      82       OAC      LPO22    LPD     -0.383000       0.00000          -1   0.00000       0.00000    
      7113 OAC      83       OAC      C1       CD2O2A    3.18170       11.6110           0  -1.01600      0.899000    
      7114 OAC      83       OAC      DC1      DRUD     -2.47370      0.400000           0   0.00000       0.00000    
      7115 OAC      83       OAC      C2       CD33A     2.98790       11.6110           0  -1.68100       1.41400    
      7116 OAC      83       OAC      DC2      DRUD     -3.18190      0.400000           0   0.00000       0.00000    
      7117 OAC      83       OAC      H1       HDA3A    0.400000E-02   1.00800           0   0.00000       0.00000    
      7118 OAC      83       OAC      H2       HDA3A    0.400000E-02   1.00800           0   0.00000       0.00000    
      7119 OAC      83       OAC      H3       HDA3A    0.400000E-02   1.00800           0   0.00000       0.00000    
      7120 OAC      83       OAC      O1       OD2C2A    2.05480       15.5994           0 -0.699000       2.39900    
      7121 OAC      83       OAC      DO1      DRUD     -2.05180      0.400000           0   0.00000       0.00000    
      7122 OAC      83       OAC      O2       OD2C2A    2.05480       15.5994           0 -0.699000       2.39900    
      7123 OAC      83       OAC      DO2      DRUD     -2.05180      0.400000           0   0.00000       0.00000    
      7124 OAC      83       OAC      H        DUMH      0.00000       1.00800           0   0.00000       0.00000    
      7125 OAC      83       OAC      LPO11    LPD     -0.383000       0.00000          -1   0.00000       0.00000    
      7126 OAC      83       OAC      LPO12    LPD     -0.383000       0.00000          -1   0.00000       0.00000    
      7127 OAC      83       OAC      LPO21    LPD     -0.383000       0.00000          -1   0.00000       0.00000    
      7128 OAC      83       OAC      LPO22    LPD     -0.383000       0.00000          -1   0.00000       0.00000    
      7129 OAC      84       OAC      C1       CD2O2A    3.18170       11.6110           0  -1.01600      0.899000    
      7130 OAC      84       OAC      DC1      DRUD     -2.47370      0.400000           0   0.00000       0.00000    
      7131 OAC      84       OAC      C2       CD33A     2.98790       11.6110           0  -1.68100       1.41400    
      7132 OAC      84       OAC      DC2      DRUD     -3.18190      0.400000           0   0.00000       0.00000    
      7133 OAC      84       OAC      H1       HDA3A    0.400000E-02   1.00800           0   0.00000       0.00000    
      7134 OAC      84       OAC      H2       HDA3A    0.400000E-02   1.00800           0   0.00000       0.00000    
      7135 OAC      84       OAC      H3       HDA3A    0.400000E-02   1.00800           0   0.00000       0.00000    
      7136 OAC      84       OAC      O1       OD2C2A    2.05480       15.5994           0 -0.699000       2.39900    
      7137 OAC      84       OAC      DO1      DRUD     -2.05180      0.400000           0   0.00000       0.00000    
      7138 OAC      84       OAC      O2       OD2C2A    2.05480       15.5994           0 -0.699000       2.39900    
      7139 OAC      84       OAC      DO2      DRUD     -2.05180      0.400000           0   0.00000       0.00000    
      7140 OAC      84       OAC      H        DUMH      0.00000       1.00800           0   0.00000       0.00000    
      7141 OAC      84       OAC      LPO11    LPD     -0.383000       0.00000          -1   0.00000       0.00000    
      7142 OAC      84       OAC      LPO12    LPD     -0.383000       0.00000          -1   0.00000       0.00000    
      7143 OAC      84       OAC      LPO21    LPD     -0.383000       0.00000          -1   0.00000       0.00000    
      7144 OAC      84       OAC      LPO22    LPD     -0.383000       0.00000          -1   0.00000       0.00000    
      7145 OAC      85       OAC      C1       CD2O2A    3.18170       11.6110           0  -1.01600      0.899000    
      7146 OAC      85       OAC      DC1      DRUD     -2.47370      0.400000           0   0.00000       0.00000    
      7147 OAC      85       OAC      C2       CD33A     2.98790       11.6110           0  -1.68100       1.41400    
      7148 OAC      85       OAC      DC2      DRUD     -3.18190      0.400000           0   0.00000       0.00000    
      7149 OAC      85       OAC      H1       HDA3A    0.400000E-02   1.00800           0   0.00000       0.00000    
      7150 OAC      85       OAC      H2       HDA3A    0.400000E-02   1.00800           0   0.00000       0.00000    
      7151 OAC      85       OAC      H3       HDA3A    0.400000E-02   1.00800           0   0.00000       0.00000    
      7152 OAC      85       OAC      O1       OD2C2A    2.05480       15.5994           0 -0.699000       2.39900    
      7153 OAC      85       OAC      DO1      DRUD     -2.05180      0.400000           0   0.00000       0.00000    
      7154 OAC      85       OAC      O2       OD2C2A    2.05480       15.5994           0 -0.699000       2.39900    
      7155 OAC      85       OAC      DO2      DRUD     -2.05180      0.400000           0   0.00000       0.00000    
      7156 OAC      85       OAC      H        DUMH      0.00000       1.00800           0   0.00000       0.00000    
      7157 OAC      85       OAC      LPO11    LPD     -0.383000       0.00000          -1   0.00000       0.00000    
      7158 OAC      85       OAC      LPO12    LPD     -0.383000       0.00000          -1   0.00000       0.00000    
      7159 OAC      85       OAC      LPO21    LPD     -0.383000       0.00000          -1   0.00000       0.00000    
      7160 OAC      85       OAC      LPO22    LPD     -0.383000       0.00000          -1   0.00000       0.00000    
      7161 OAC      86       OAC      C1       CD2O2A    3.18170       11.6110           0  -1.01600      0.899000    
      7162 OAC      86       OAC      DC1      DRUD     -2.47370      0.400000           0   0.00000       0.00000    
      7163 OAC      86       OAC      C2       CD33A     2.98790       11.6110           0  -1.68100       1.41400    
      7164 OAC      86       OAC      DC2      DRUD     -3.18190      0.400000           0   0.00000       0.00000    
      7165 OAC      86       OAC      H1       HDA3A    0.400000E-02   1.00800           0   0.00000       0.00000    
      7166 OAC      86       OAC      H2       HDA3A    0.400000E-02   1.00800           0   0.00000       0.00000    
      7167 OAC      86       OAC      H3       HDA3A    0.400000E-02   1.00800           0   0.00000       0.00000    
      7168 OAC      86       OAC      O1       OD2C2A    2.05480       15.5994           0 -0.699000       2.39900    
      7169 OAC      86       OAC      DO1      DRUD     -2.05180      0.400000           0   0.00000       0.00000    
      7170 OAC      86       OAC      O2       OD2C2A    2.05480       15.5994           0 -0.699000       2.39900    
      7171 OAC      86       OAC      DO2      DRUD     -2.05180      0.400000           0   0.00000       0.00000    
      7172 OAC      86       OAC      H        DUMH      0.00000       1.00800           0   0.00000       0.00000    
      7173 OAC      86       OAC      LPO11    LPD     -0.383000       0.00000          -1   0.00000       0.00000    
      7174 OAC      86       OAC      LPO12    LPD     -0.383000       0.00000          -1   0.00000       0.00000    
      7175 OAC      86       OAC      LPO21    LPD     -0.383000       0.00000          -1   0.00000       0.00000    
      7176 OAC      86       OAC      LPO22    LPD     -0.383000       0.00000          -1   0.00000       0.00000    
      7177 OAC      87       OAC      C1       CD2O2A    3.18170       11.6110           0  -1.01600      0.899000    
      7178 OAC      87       OAC      DC1      DRUD     -2.47370      0.400000           0   0.00000       0.00000    
      7179 OAC      87       OAC      C2       CD33A     2.98790       11.6110           0  -1.68100       1.41400    
      7180 OAC      87       OAC      DC2      DRUD     -3.18190      0.400000           0   0.00000       0.00000    
      7181 OAC      87       OAC      H1       HDA3A    0.400000E-02   1.00800           0   0.00000       0.00000    
      7182 OAC      87       OAC      H2       HDA3A    0.400000E-02   1.00800           0   0.00000       0.00000    
      7183 OAC      87       OAC      H3       HDA3A    0.400000E-02   1.00800           0   0.00000       0.00000    
      7184 OAC      87       OAC      O1       OD2C2A    2.05480       15.5994           0 -0.699000       2.39900    
      7185 OAC      87       OAC      DO1      DRUD     -2.05180      0.400000           0   0.00000       0.00000    
      7186 OAC      87       OAC      O2       OD2C2A    2.05480       15.5994           0 -0.699000       2.39900    
      7187 OAC      87       OAC      DO2      DRUD     -2.05180      0.400000           0   0.00000       0.00000    
      7188 OAC      87       OAC      H        DUMH      0.00000       1.00800           0   0.00000       0.00000    
      7189 OAC      87       OAC      LPO11    LPD     -0.383000       0.00000          -1   0.00000       0.00000    
      7190 OAC      87       OAC      LPO12    LPD     -0.383000       0.00000          -1   0.00000       0.00000    
      7191 OAC      87       OAC      LPO21    LPD     -0.383000       0.00000          -1   0.00000       0.00000    
      7192 OAC      87       OAC      LPO22    LPD     -0.383000       0.00000          -1   0.00000       0.00000    
      7193 OAC      88       OAC      C1       CD2O2A    3.18170       11.6110           0  -1.01600      0.899000    
      7194 OAC      88       OAC      DC1      DRUD     -2.47370      0.400000           0   0.00000       0.00000    
      7195 OAC      88       OAC      C2       CD33A     2.98790       11.6110           0  -1.68100       1.41400    
      7196 OAC      88       OAC      DC2      DRUD     -3.18190      0.400000           0   0.00000       0.00000    
      7197 OAC      88       OAC      H1       HDA3A    0.400000E-02   1.00800           0   0.00000       0.00000    
      7198 OAC      88       OAC      H2       HDA3A    0.400000E-02   1.00800           0   0.00000       0.00000    
      7199 OAC      88       OAC      H3       HDA3A    0.400000E-02   1.00800           0   0.00000       0.00000    
      7200 OAC      88       OAC      O1       OD2C2A    2.05480       15.5994           0 -0.699000       2.39900    
      7201 OAC      88       OAC      DO1      DRUD     -2.05180      0.400000           0   0.00000       0.00000    
      7202 OAC      88       OAC      O2       OD2C2A    2.05480       15.5994           0 -0.699000       2.39900    
      7203 OAC      88       OAC      DO2      DRUD     -2.05180      0.400000           0   0.00000       0.00000    
      7204 OAC      88       OAC      H        DUMH      0.00000       1.00800           0   0.00000       0.00000    
      7205 OAC      88       OAC      LPO11    LPD     -0.383000       0.00000          -1   0.00000       0.00000    
      7206 OAC      88       OAC      LPO12    LPD     -0.383000       0.00000          -1   0.00000       0.00000    
      7207 OAC      88       OAC      LPO21    LPD     -0.383000       0.00000          -1   0.00000       0.00000    
      7208 OAC      88       OAC      LPO22    LPD     -0.383000       0.00000          -1   0.00000       0.00000    
      7209 OAC      89       OAC      C1       CD2O2A    3.18170       11.6110           0  -1.01600      0.899000    
      7210 OAC      89       OAC      DC1      DRUD     -2.47370      0.400000           0   0.00000       0.00000    
      7211 OAC      89       OAC      C2       CD33A     2.98790       11.6110           0  -1.68100       1.41400    
      7212 OAC      89       OAC      DC2      DRUD     -3.18190      0.400000           0   0.00000       0.00000    
      7213 OAC      89       OAC      H1       HDA3A    0.400000E-02   1.00800           0   0.00000       0.00000    
      7214 OAC      89       OAC      H2       HDA3A    0.400000E-02   1.00800           0   0.00000       0.00000    
      7215 OAC      89       OAC      H3       HDA3A    0.400000E-02   1.00800           0   0.00000       0.00000    
      7216 OAC      89       OAC      O1       OD2C2A    2.05480       15.5994           0 -0.699000       2.39900    
      7217 OAC      89       OAC      DO1      DRUD     -2.05180      0.400000           0   0.00000       0.00000    
      7218 OAC      89       OAC      O2       OD2C2A    2.05480       15.5994           0 -0.699000       2.39900    
      7219 OAC      89       OAC      DO2      DRUD     -2.05180      0.400000           0   0.00000       0.00000    
      7220 OAC      89       OAC      H        DUMH      0.00000       1.00800           0   0.00000       0.00000    
      7221 OAC      89       OAC      LPO11    LPD     -0.383000       0.00000          -1   0.00000       0.00000    
      7222 OAC      89       OAC      LPO12    LPD     -0.383000       0.00000          -1   0.00000       0.00000    
      7223 OAC      89       OAC      LPO21    LPD     -0.383000       0.00000          -1   0.00000       0.00000    
      7224 OAC      89       OAC      LPO22    LPD     -0.383000       0.00000          -1   0.00000       0.00000    
      7225 OAC      90       OAC      C1       CD2O2A    3.18170       11.6110           0  -1.01600      0.899000    
      7226 OAC      90       OAC      DC1      DRUD     -2.47370      0.400000           0   0.00000       0.00000    
      7227 OAC      90       OAC      C2       CD33A     2.98790       11.6110           0  -1.68100       1.41400    
      7228 OAC      90       OAC      DC2      DRUD     -3.18190      0.400000           0   0.00000       0.00000    
      7229 OAC      90       OAC      H1       HDA3A    0.400000E-02   1.00800           0   0.00000       0.00000    
      7230 OAC      90       OAC      H2       HDA3A    0.400000E-02   1.00800           0   0.00000       0.00000    
      7231 OAC      90       OAC      H3       HDA3A    0.400000E-02   1.00800           0   0.00000       0.00000    
      7232 OAC      90       OAC      O1       OD2C2A    2.05480       15.5994           0 -0.699000       2.39900    
      7233 OAC      90       OAC      DO1      DRUD     -2.05180      0.400000           0   0.00000       0.00000    
      7234 OAC      90       OAC      O2       OD2C2A    2.05480       15.5994           0 -0.699000       2.39900    
      7235 OAC      90       OAC      DO2      DRUD     -2.05180      0.400000           0   0.00000       0.00000    
      7236 OAC      90       OAC      H        DUMH      0.00000       1.00800           0   0.00000       0.00000    
      7237 OAC      90       OAC      LPO11    LPD     -0.383000       0.00000          -1   0.00000       0.00000    
      7238 OAC      90       OAC      LPO12    LPD     -0.383000       0.00000          -1   0.00000       0.00000    
      7239 OAC      90       OAC      LPO21    LPD     -0.383000       0.00000          -1   0.00000       0.00000    
      7240 OAC      90       OAC      LPO22    LPD     -0.383000       0.00000          -1   0.00000       0.00000    
      7241 IM1      1        IM1      C1       CD33G     2.39060       11.6110           0  -1.08100       1.00000    
      7242 IM1      1        IM1      DC1      DRUD     -2.55160      0.400000           0   0.00000       0.00000    
      7243 IM1      1        IM1      H1       HDA3A    0.940000E-01   1.00800           0   0.00000       0.00000    
      7244 IM1      1        IM1      H2       HDA3A    0.940000E-01   1.00800           0   0.00000       0.00000    
      7245 IM1      1        IM1      H3       HDA3A    0.940000E-01   1.00800           0   0.00000       0.00000    
      7246 IM1      1        IM1      N1       ND2R5A    2.67030       13.6070           0  -1.06300       1.30000    
      7247 IM1      1        IM1      DN1      DRUD     -2.53030      0.400000           0   0.00000       0.00000    
      7248 IM1      1        IM1      C2       CD2R5A    2.51190       11.6110           0  -1.37800       1.30000    
      7249 IM1      1        IM1      DC2      DRUD     -2.88090      0.400000           0   0.00000       0.00000    
      7250 IM1      1        IM1      H4       HDR5A    0.150000       1.00800           0   0.00000       0.00000    
      7251 IM1      1        IM1      C3       CD2R5A    3.06890       11.6110           0  -1.37800       1.30000    
      7252 IM1      1        IM1      DC3      DRUD     -2.88090      0.400000           0   0.00000       0.00000    
      7253 IM1      1        IM1      H5       HDR5A    0.530000E-01   1.00800           0   0.00000       0.00000    
      7254 IM1      1        IM1      C4       CD2R5B    2.40440       11.6110           0 -0.868000       1.30000    
      7255 IM1      1        IM1      DC4      DRUD     -2.28640      0.400000           0   0.00000       0.00000    
      7256 IM1      1        IM1      H6       HDR5B    0.730000E-01   1.00800           0   0.00000       0.00000    
      7257 IM1      1        IM1      N2       ND2R5B    2.24930       13.6070           0 -0.840000       1.00000    
      7258 IM1      1        IM1      DN2      DRUD     -2.24930      0.400000           0   0.00000       0.00000    
      7259 IM1      1        IM1      H7       DUMH      0.00000       1.00800           0   0.00000       0.00000    
      7260 IM1      1        IM1      LPN21    LPD     -0.474000       0.00000          -1   0.00000       0.00000    
      7261 IM1      2        IM1      C1       CD33G     2.39060       11.6110           0  -1.08100       1.00000    
      7262 IM1      2        IM1      DC1      DRUD     -2.55160      0.400000           0   0.00000       0.00000    
      7263 IM1      2        IM1      H1       HDA3A    0.940000E-01   1.00800           0   0.00000       0.00000    
      7264 IM1      2        IM1      H2       HDA3A    0.940000E-01   1.00800           0   0.00000       0.00000    
      7265 IM1      2        IM1      H3       HDA3A    0.940000E-01   1.00800           0   0.00000       0.00000    
      7266 IM1      2        IM1      N1       ND2R5A    2.67030       13.6070           0  -1.06300       1.30000    
      7267 IM1      2        IM1      DN1      DRUD     -2.53030      0.400000           0   0.00000       0.00000    
      7268 IM1      2        IM1      C2       CD2R5A    2.51190       11.6110           0  -1.37800       1.30000    
      7269 IM1      2        IM1      DC2      DRUD     -2.88090      0.400000           0   0.00000       0.00000    
      7270 IM1      2        IM1      H4       HDR5A    0.150000       1.00800           0   0.00000       0.00000    
      7271 IM1      2        IM1      C3       CD2R5A    3.06890       11.6110           0  -1.37800       1.30000    
      7272 IM1      2        IM1      DC3      DRUD     -2.88090      0.400000           0   0.00000       0.00000    
      7273 IM1      2        IM1      H5       HDR5A    0.530000E-01   1.00800           0   0.00000       0.00000    
      7274 IM1      2        IM1      C4       CD2R5B    2.40440       11.6110           0 -0.868000       1.30000    
      7275 IM1      2        IM1      DC4      DRUD     -2.28640      0.400000           0   0.00000       0.00000    
      7276 IM1      2        IM1      H6       HDR5B    0.730000E-01   1.00800           0   0.00000       0.00000    
      7277 IM1      2        IM1      N2       ND2R5B    2.24930       13.6070           0 -0.840000       1.00000    
      7278 IM1      2        IM1      DN2      DRUD     -2.24930      0.400000           0   0.00000       0.00000    
      7279 IM1      2        IM1      H7       DUMH      0.00000       1.00800           0   0.00000       0.00000    
      7280 IM1      2        IM1      LPN21    LPD     -0.474000       0.00000          -1   0.00000       0.00000    
      7281 IM1      3        IM1      C1       CD33G     2.39060       11.6110           0  -1.08100       1.00000    
      7282 IM1      3        IM1      DC1      DRUD     -2.55160      0.400000           0   0.00000       0.00000    
      7283 IM1      3        IM1      H1       HDA3A    0.940000E-01   1.00800           0   0.00000       0.00000    
      7284 IM1      3        IM1      H2       HDA3A    0.940000E-01   1.00800           0   0.00000       0.00000    
      7285 IM1      3        IM1      H3       HDA3A    0.940000E-01   1.00800           0   0.00000       0.00000    
      7286 IM1      3        IM1      N1       ND2R5A    2.67030       13.6070           0  -1.06300       1.30000    
      7287 IM1      3        IM1      DN1      DRUD     -2.53030      0.400000           0   0.00000       0.00000    
      7288 IM1      3        IM1      C2       CD2R5A    2.51190       11.6110           0  -1.37800       1.30000    
      7289 IM1      3        IM1      DC2      DRUD     -2.88090      0.400000           0   0.00000       0.00000    
      7290 IM1      3        IM1      H4       HDR5A    0.150000       1.00800           0   0.00000       0.00000    
      7291 IM1      3        IM1      C3       CD2R5A    3.06890       11.6110           0  -1.37800       1.30000    
      7292 IM1      3        IM1      DC3      DRUD     -2.88090      0.400000           0   0.00000       0.00000    
      7293 IM1      3        IM1      H5       HDR5A    0.530000E-01   1.00800           0   0.00000       0.00000    
      7294 IM1      3        IM1      C4       CD2R5B    2.40440       11.6110           0 -0.868000       1.30000    
      7295 IM1      3        IM1      DC4      DRUD     -2.28640      0.400000           0   0.00000       0.00000    
      7296 IM1      3        IM1      H6       HDR5B    0.730000E-01   1.00800           0   0.00000       0.00000    
      7297 IM1      3        IM1      N2       ND2R5B    2.24930       13.6070           0 -0.840000       1.00000    
      7298 IM1      3        IM1      DN2      DRUD     -2.24930      0.400000           0   0.00000       0.00000    
      7299 IM1      3        IM1      H7       DUMH      0.00000       1.00800           0   0.00000       0.00000    
      7300 IM1      3        IM1      LPN21    LPD     -0.474000       0.00000          -1   0.00000       0.00000    
      7301 IM1      4        IM1      C1       CD33G     2.39060       11.6110           0  -1.08100       1.00000    
      7302 IM1      4        IM1      DC1      DRUD     -2.55160      0.400000           0   0.00000       0.00000    
      7303 IM1      4        IM1      H1       HDA3A    0.940000E-01   1.00800           0   0.00000       0.00000    
      7304 IM1      4        IM1      H2       HDA3A    0.940000E-01   1.00800           0   0.00000       0.00000    
      7305 IM1      4        IM1      H3       HDA3A    0.940000E-01   1.00800           0   0.00000       0.00000    
      7306 IM1      4        IM1      N1       ND2R5A    2.67030       13.6070           0  -1.06300       1.30000    
      7307 IM1      4        IM1      DN1      DRUD     -2.53030      0.400000           0   0.00000       0.00000    
      7308 IM1      4        IM1      C2       CD2R5A    2.51190       11.6110           0  -1.37800       1.30000    
      7309 IM1      4        IM1      DC2      DRUD     -2.88090      0.400000           0   0.00000       0.00000    
      7310 IM1      4        IM1      H4       HDR5A    0.150000       1.00800           0   0.00000       0.00000    
      7311 IM1      4        IM1      C3       CD2R5A    3.06890       11.6110           0  -1.37800       1.30000    
      7312 IM1      4        IM1      DC3      DRUD     -2.88090      0.400000           0   0.00000       0.00000    
      7313 IM1      4        IM1      H5       HDR5A    0.530000E-01   1.00800           0   0.00000       0.00000    
      7314 IM1      4        IM1      C4       CD2R5B    2.40440       11.6110           0 -0.868000       1.30000    
      7315 IM1      4        IM1      DC4      DRUD     -2.28640      0.400000           0   0.00000       0.00000    
      7316 IM1      4        IM1      H6       HDR5B    0.730000E-01   1.00800           0   0.00000       0.00000    
      7317 IM1      4        IM1      N2       ND2R5B    2.24930       13.6070           0 -0.840000       1.00000    
      7318 IM1      4        IM1      DN2      DRUD     -2.24930      0.400000           0   0.00000       0.00000    
      7319 IM1      4        IM1      H7       DUMH      0.00000       1.00800           0   0.00000       0.00000    
      7320 IM1      4        IM1      LPN21    LPD     -0.474000       0.00000          -1   0.00000       0.00000    
      7321 IM1      5        IM1      C1       CD33G     2.39060       11.6110           0  -1.08100       1.00000    
      7322 IM1      5        IM1      DC1      DRUD     -2.55160      0.400000           0   0.00000       0.00000    
      7323 IM1      5        IM1      H1       HDA3A    0.940000E-01   1.00800           0   0.00000       0.00000    
      7324 IM1      5        IM1      H2       HDA3A    0.940000E-01   1.00800           0   0.00000       0.00000    
      7325 IM1      5        IM1      H3       HDA3A    0.940000E-01   1.00800           0   0.00000       0.00000    
      7326 IM1      5        IM1      N1       ND2R5A    2.67030       13.6070           0  -1.06300       1.30000    
      7327 IM1      5        IM1      DN1      DRUD     -2.53030      0.400000           0   0.00000       0.00000    
      7328 IM1      5        IM1      C2       CD2R5A    2.51190       11.6110           0  -1.37800       1.30000    
      7329 IM1      5        IM1      DC2      DRUD     -2.88090      0.400000           0   0.00000       0.00000    
      7330 IM1      5        IM1      H4       HDR5A    0.150000       1.00800           0   0.00000       0.00000    
      7331 IM1      5        IM1      C3       CD2R5A    3.06890       11.6110           0  -1.37800       1.30000    
      7332 IM1      5        IM1      DC3      DRUD     -2.88090      0.400000           0   0.00000       0.00000    
      7333 IM1      5        IM1      H5       HDR5A    0.530000E-01   1.00800           0   0.00000       0.00000    
      7334 IM1      5        IM1      C4       CD2R5B    2.40440       11.6110           0 -0.868000       1.30000    
      7335 IM1      5        IM1      DC4      DRUD     -2.28640      0.400000           0   0.00000       0.00000    
      7336 IM1      5        IM1      H6       HDR5B    0.730000E-01   1.00800           0   0.00000       0.00000    
      7337 IM1      5        IM1      N2       ND2R5B    2.24930       13.6070           0 -0.840000       1.00000    
      7338 IM1      5        IM1      DN2      DRUD     -2.24930      0.400000           0   0.00000       0.00000    
      7339 IM1      5        IM1      H7       DUMH      0.00000       1.00800           0   0.00000       0.00000    
      7340 IM1      5        IM1      LPN21    LPD     -0.474000       0.00000          -1   0.00000       0.00000    
      7341 IM1      6        IM1      C1       CD33G     2.39060       11.6110           0  -1.08100       1.00000    
      7342 IM1      6        IM1      DC1      DRUD     -2.55160      0.400000           0   0.00000       0.00000    
      7343 IM1      6        IM1      H1       HDA3A    0.940000E-01   1.00800           0   0.00000       0.00000    
      7344 IM1      6        IM1      H2       HDA3A    0.940000E-01   1.00800           0   0.00000       0.00000    
      7345 IM1      6        IM1      H3       HDA3A    0.940000E-01   1.00800           0   0.00000       0.00000    
      7346 IM1      6        IM1      N1       ND2R5A    2.67030       13.6070           0  -1.06300       1.30000    
      7347 IM1      6        IM1      DN1      DRUD     -2.53030      0.400000           0   0.00000       0.00000    
      7348 IM1      6        IM1      C2       CD2R5A    2.51190       11.6110           0  -1.37800       1.30000    
      7349 IM1      6        IM1      DC2      DRUD     -2.88090      0.400000           0   0.00000       0.00000    
      7350 IM1      6        IM1      H4       HDR5A    0.150000       1.00800           0   0.00000       0.00000    
      7351 IM1      6        IM1      C3       CD2R5A    3.06890       11.6110           0  -1.37800       1.30000    
      7352 IM1      6        IM1      DC3      DRUD     -2.88090      0.400000           0   0.00000       0.00000    
      7353 IM1      6        IM1      H5       HDR5A    0.530000E-01   1.00800           0   0.00000       0.00000    
      7354 IM1      6        IM1      C4       CD2R5B    2.40440       11.6110           0 -0.868000       1.30000    
      7355 IM1      6        IM1      DC4      DRUD     -2.28640      0.400000           0   0.00000       0.00000    
      7356 IM1      6        IM1      H6       HDR5B    0.730000E-01   1.00800           0   0.00000       0.00000    
      7357 IM1      6        IM1      N2       ND2R5B    2.24930       13.6070           0 -0.840000       1.00000    
      7358 IM1      6        IM1      DN2      DRUD     -2.24930      0.400000           0   0.00000       0.00000    
      7359 IM1      6        IM1      H7       DUMH      0.00000       1.00800           0   0.00000       0.00000    
      7360 IM1      6        IM1      LPN21    LPD     -0.474000       0.00000          -1   0.00000       0.00000    
      7361 IM1      7        IM1      C1       CD33G     2.39060       11.6110           0  -1.08100       1.00000    
      7362 IM1      7        IM1      DC1      DRUD     -2.55160      0.400000           0   0.00000       0.00000    
      7363 IM1      7        IM1      H1       HDA3A    0.940000E-01   1.00800           0   0.00000       0.00000    
      7364 IM1      7        IM1      H2       HDA3A    0.940000E-01   1.00800           0   0.00000       0.00000    
      7365 IM1      7        IM1      H3       HDA3A    0.940000E-01   1.00800           0   0.00000       0.00000    
      7366 IM1      7        IM1      N1       ND2R5A    2.67030       13.6070           0  -1.06300       1.30000    
      7367 IM1      7        IM1      DN1      DRUD     -2.53030      0.400000           0   0.00000       0.00000    
      7368 IM1      7        IM1      C2       CD2R5A    2.51190       11.6110           0  -1.37800       1.30000    
      7369 IM1      7        IM1      DC2      DRUD     -2.88090      0.400000           0   0.00000       0.00000    
      7370 IM1      7        IM1      H4       HDR5A    0.150000       1.00800           0   0.00000       0.00000    
      7371 IM1      7        IM1      C3       CD2R5A    3.06890       11.6110           0  -1.37800       1.30000    
      7372 IM1      7        IM1      DC3      DRUD     -2.88090      0.400000           0   0.00000       0.00000    
      7373 IM1      7        IM1      H5       HDR5A    0.530000E-01   1.00800           0   0.00000       0.00000    
      7374 IM1      7        IM1      C4       CD2R5B    2.40440       11.6110           0 -0.868000       1.30000    
      7375 IM1      7        IM1      DC4      DRUD     -2.28640      0.400000           0   0.00000       0.00000    
      7376 IM1      7        IM1      H6       HDR5B    0.730000E-01   1.00800           0   0.00000       0.00000    
      7377 IM1      7        IM1      N2       ND2R5B    2.24930       13.6070           0 -0.840000       1.00000    
      7378 IM1      7        IM1      DN2      DRUD     -2.24930      0.400000           0   0.00000       0.00000    
      7379 IM1      7        IM1      H7       DUMH      0.00000       1.00800           0   0.00000       0.00000    
      7380 IM1      7        IM1      LPN21    LPD     -0.474000       0.00000          -1   0.00000       0.00000    
      7381 IM1      8        IM1      C1       CD33G     2.39060       11.6110           0  -1.08100       1.00000    
      7382 IM1      8        IM1      DC1      DRUD     -2.55160      0.400000           0   0.00000       0.00000    
      7383 IM1      8        IM1      H1       HDA3A    0.940000E-01   1.00800           0   0.00000       0.00000    
      7384 IM1      8        IM1      H2       HDA3A    0.940000E-01   1.00800           0   0.00000       0.00000    
      7385 IM1      8        IM1      H3       HDA3A    0.940000E-01   1.00800           0   0.00000       0.00000    
      7386 IM1      8        IM1      N1       ND2R5A    2.67030       13.6070           0  -1.06300       1.30000    
      7387 IM1      8        IM1      DN1      DRUD     -2.53030      0.400000           0   0.00000       0.00000    
      7388 IM1      8        IM1      C2       CD2R5A    2.51190       11.6110           0  -1.37800       1.30000    
      7389 IM1      8        IM1      DC2      DRUD     -2.88090      0.400000           0   0.00000       0.00000    
      7390 IM1      8        IM1      H4       HDR5A    0.150000       1.00800           0   0.00000       0.00000    
      7391 IM1      8        IM1      C3       CD2R5A    3.06890       11.6110           0  -1.37800       1.30000    
      7392 IM1      8        IM1      DC3      DRUD     -2.88090      0.400000           0   0.00000       0.00000    
      7393 IM1      8        IM1      H5       HDR5A    0.530000E-01   1.00800           0   0.00000       0.00000    
      7394 IM1      8        IM1      C4       CD2R5B    2.40440       11.6110           0 -0.868000       1.30000    
      7395 IM1      8        IM1      DC4      DRUD     -2.28640      0.400000           0   0.00000       0.00000    
      7396 IM1      8        IM1      H6       HDR5B    0.730000E-01   1.00800           0   0.00000       0.00000    
      7397 IM1      8        IM1      N2       ND2R5B    2.24930       13.6070           0 -0.840000       1.00000    
      7398 IM1      8        IM1      DN2      DRUD     -2.24930      0.400000           0   0.00000       0.00000    
      7399 IM1      8        IM1      H7       DUMH      0.00000       1.00800           0   0.00000       0.00000    
      7400 IM1      8        IM1      LPN21    LPD     -0.474000       0.00000          -1   0.00000       0.00000    
      7401 IM1      9        IM1      C1       CD33G     2.39060       11.6110           0  -1.08100       1.00000    
      7402 IM1      9        IM1      DC1      DRUD     -2.55160      0.400000           0   0.00000       0.00000    
      7403 IM1      9        IM1      H1       HDA3A    0.940000E-01   1.00800           0   0.00000       0.00000    
      7404 IM1      9        IM1      H2       HDA3A    0.940000E-01   1.00800           0   0.00000       0.00000    
      7405 IM1      9        IM1      H3       HDA3A    0.940000E-01   1.00800           0   0.00000       0.00000    
      7406 IM1      9        IM1      N1       ND2R5A    2.67030       13.6070           0  -1.06300       1.30000    
      7407 IM1      9        IM1      DN1      DRUD     -2.53030      0.400000           0   0.00000       0.00000    
      7408 IM1      9        IM1      C2       CD2R5A    2.51190       11.6110           0  -1.37800       1.30000    
      7409 IM1      9        IM1      DC2      DRUD     -2.88090      0.400000           0   0.00000       0.00000    
      7410 IM1      9        IM1      H4       HDR5A    0.150000       1.00800           0   0.00000       0.00000    
      7411 IM1      9        IM1      C3       CD2R5A    3.06890       11.6110           0  -1.37800       1.30000    
      7412 IM1      9        IM1      DC3      DRUD     -2.88090      0.400000           0   0.00000       0.00000    
      7413 IM1      9        IM1      H5       HDR5A    0.530000E-01   1.00800           0   0.00000       0.00000    
      7414 IM1      9        IM1      C4       CD2R5B    2.40440       11.6110           0 -0.868000       1.30000    
      7415 IM1      9        IM1      DC4      DRUD     -2.28640      0.400000           0   0.00000       0.00000    
      7416 IM1      9        IM1      H6       HDR5B    0.730000E-01   1.00800           0   0.00000       0.00000    
      7417 IM1      9        IM1      N2       ND2R5B    2.24930       13.6070           0 -0.840000       1.00000    
      7418 IM1      9        IM1      DN2      DRUD     -2.24930      0.400000           0   0.00000       0.00000    
      7419 IM1      9        IM1      H7       DUMH      0.00000       1.00800           0   0.00000       0.00000    
      7420 IM1      9        IM1      LPN21    LPD     -0.474000       0.00000          -1   0.00000       0.00000    
      7421 IM1      10       IM1      C1       CD33G     2.39060       11.6110           0  -1.08100       1.00000    
      7422 IM1      10       IM1      DC1      DRUD     -2.55160      0.400000           0   0.00000       0.00000    
      7423 IM1      10       IM1      H1       HDA3A    0.940000E-01   1.00800           0   0.00000       0.00000    
      7424 IM1      10       IM1      H2       HDA3A    0.940000E-01   1.00800           0   0.00000       0.00000    
      7425 IM1      10       IM1      H3       HDA3A    0.940000E-01   1.00800           0   0.00000       0.00000    
      7426 IM1      10       IM1      N1       ND2R5A    2.67030       13.6070           0  -1.06300       1.30000    
      7427 IM1      10       IM1      DN1      DRUD     -2.53030      0.400000           0   0.00000       0.00000    
      7428 IM1      10       IM1      C2       CD2R5A    2.51190       11.6110           0  -1.37800       1.30000    
      7429 IM1      10       IM1      DC2      DRUD     -2.88090      0.400000           0   0.00000       0.00000    
      7430 IM1      10       IM1      H4       HDR5A    0.150000       1.00800           0   0.00000       0.00000    
      7431 IM1      10       IM1      C3       CD2R5A    3.06890       11.6110           0  -1.37800       1.30000    
      7432 IM1      10       IM1      DC3      DRUD     -2.88090      0.400000           0   0.00000       0.00000    
      7433 IM1      10       IM1      H5       HDR5A    0.530000E-01   1.00800           0   0.00000       0.00000    
      7434 IM1      10       IM1      C4       CD2R5B    2.40440       11.6110           0 -0.868000       1.30000    
      7435 IM1      10       IM1      DC4      DRUD     -2.28640      0.400000           0   0.00000       0.00000    
      7436 IM1      10       IM1      H6       HDR5B    0.730000E-01   1.00800           0   0.00000       0.00000    
      7437 IM1      10       IM1      N2       ND2R5B    2.24930       13.6070           0 -0.840000       1.00000    
      7438 IM1      10       IM1      DN2      DRUD     -2.24930      0.400000           0   0.00000       0.00000    
      7439 IM1      10       IM1      H7       DUMH      0.00000       1.00800           0   0.00000       0.00000    
      7440 IM1      10       IM1      LPN21    LPD     -0.474000       0.00000          -1   0.00000       0.00000    
      7441 IM1      11       IM1      C1       CD33G     2.39060       11.6110           0  -1.08100       1.00000    
      7442 IM1      11       IM1      DC1      DRUD     -2.55160      0.400000           0   0.00000       0.00000    
      7443 IM1      11       IM1      H1       HDA3A    0.940000E-01   1.00800           0   0.00000       0.00000    
      7444 IM1      11       IM1      H2       HDA3A    0.940000E-01   1.00800           0   0.00000       0.00000    
      7445 IM1      11       IM1      H3       HDA3A    0.940000E-01   1.00800           0   0.00000       0.00000    
      7446 IM1      11       IM1      N1       ND2R5A    2.67030       13.6070           0  -1.06300       1.30000    
      7447 IM1      11       IM1      DN1      DRUD     -2.53030      0.400000           0   0.00000       0.00000    
      7448 IM1      11       IM1      C2       CD2R5A    2.51190       11.6110           0  -1.37800       1.30000    
      7449 IM1      11       IM1      DC2      DRUD     -2.88090      0.400000           0   0.00000       0.00000    
      7450 IM1      11       IM1      H4       HDR5A    0.150000       1.00800           0   0.00000       0.00000    
      7451 IM1      11       IM1      C3       CD2R5A    3.06890       11.6110           0  -1.37800       1.30000    
      7452 IM1      11       IM1      DC3      DRUD     -2.88090      0.400000           0   0.00000       0.00000    
      7453 IM1      11       IM1      H5       HDR5A    0.530000E-01   1.00800           0   0.00000       0.00000    
      7454 IM1      11       IM1      C4       CD2R5B    2.40440       11.6110           0 -0.868000       1.30000    
      7455 IM1      11       IM1      DC4      DRUD     -2.28640      0.400000           0   0.00000       0.00000    
      7456 IM1      11       IM1      H6       HDR5B    0.730000E-01   1.00800           0   0.00000       0.00000    
      7457 IM1      11       IM1      N2       ND2R5B    2.24930       13.6070           0 -0.840000       1.00000    
      7458 IM1      11       IM1      DN2      DRUD     -2.24930      0.400000           0   0.00000       0.00000    
      7459 IM1      11       IM1      H7       DUMH      0.00000       1.00800           0   0.00000       0.00000    
      7460 IM1      11       IM1      LPN21    LPD     -0.474000       0.00000          -1   0.00000       0.00000    
      7461 IM1      12       IM1      C1       CD33G     2.39060       11.6110           0  -1.08100       1.00000    
      7462 IM1      12       IM1      DC1      DRUD     -2.55160      0.400000           0   0.00000       0.00000    
      7463 IM1      12       IM1      H1       HDA3A    0.940000E-01   1.00800           0   0.00000       0.00000    
      7464 IM1      12       IM1      H2       HDA3A    0.940000E-01   1.00800           0   0.00000       0.00000    
      7465 IM1      12       IM1      H3       HDA3A    0.940000E-01   1.00800           0   0.00000       0.00000    
      7466 IM1      12       IM1      N1       ND2R5A    2.67030       13.6070           0  -1.06300       1.30000    
      7467 IM1      12       IM1      DN1      DRUD     -2.53030      0.400000           0   0.00000       0.00000    
      7468 IM1      12       IM1      C2       CD2R5A    2.51190       11.6110           0  -1.37800       1.30000    
      7469 IM1      12       IM1      DC2      DRUD     -2.88090      0.400000           0   0.00000       0.00000    
      7470 IM1      12       IM1      H4       HDR5A    0.150000       1.00800           0   0.00000       0.00000    
      7471 IM1      12       IM1      C3       CD2R5A    3.06890       11.6110           0  -1.37800       1.30000    
      7472 IM1      12       IM1      DC3      DRUD     -2.88090      0.400000           0   0.00000       0.00000    
      7473 IM1      12       IM1      H5       HDR5A    0.530000E-01   1.00800           0   0.00000       0.00000    
      7474 IM1      12       IM1      C4       CD2R5B    2.40440       11.6110           0 -0.868000       1.30000    
      7475 IM1      12       IM1      DC4      DRUD     -2.28640      0.400000           0   0.00000       0.00000    
      7476 IM1      12       IM1      H6       HDR5B    0.730000E-01   1.00800           0   0.00000       0.00000    
      7477 IM1      12       IM1      N2       ND2R5B    2.24930       13.6070           0 -0.840000       1.00000    
      7478 IM1      12       IM1      DN2      DRUD     -2.24930      0.400000           0   0.00000       0.00000    
      7479 IM1      12       IM1      H7       DUMH      0.00000       1.00800           0   0.00000       0.00000    
      7480 IM1      12       IM1      LPN21    LPD     -0.474000       0.00000          -1   0.00000       0.00000    
      7481 IM1      13       IM1      C1       CD33G     2.39060       11.6110           0  -1.08100       1.00000    
      7482 IM1      13       IM1      DC1      DRUD     -2.55160      0.400000           0   0.00000       0.00000    
      7483 IM1      13       IM1      H1       HDA3A    0.940000E-01   1.00800           0   0.00000       0.00000    
      7484 IM1      13       IM1      H2       HDA3A    0.940000E-01   1.00800           0   0.00000       0.00000    
      7485 IM1      13       IM1      H3       HDA3A    0.940000E-01   1.00800           0   0.00000       0.00000    
      7486 IM1      13       IM1      N1       ND2R5A    2.67030       13.6070           0  -1.06300       1.30000    
      7487 IM1      13       IM1      DN1      DRUD     -2.53030      0.400000           0   0.00000       0.00000    
      7488 IM1      13       IM1      C2       CD2R5A    2.51190       11.6110           0  -1.37800       1.30000    
      7489 IM1      13       IM1      DC2      DRUD     -2.88090      0.400000           0   0.00000       0.00000    
      7490 IM1      13       IM1      H4       HDR5A    0.150000       1.00800           0   0.00000       0.00000    
      7491 IM1      13       IM1      C3       CD2R5A    3.06890       11.6110           0  -1.37800       1.30000    
      7492 IM1      13       IM1      DC3      DRUD     -2.88090      0.400000           0   0.00000       0.00000    
      7493 IM1      13       IM1      H5       HDR5A    0.530000E-01   1.00800           0   0.00000       0.00000    
      7494 IM1      13       IM1      C4       CD2R5B    2.40440       11.6110           0 -0.868000       1.30000    
      7495 IM1      13       IM1      DC4      DRUD     -2.28640      0.400000           0   0.00000       0.00000    
      7496 IM1      13       IM1      H6       HDR5B    0.730000E-01   1.00800           0   0.00000       0.00000    
      7497 IM1      13       IM1      N2       ND2R5B    2.24930       13.6070           0 -0.840000       1.00000    
      7498 IM1      13       IM1      DN2      DRUD     -2.24930      0.400000           0   0.00000       0.00000    
      7499 IM1      13       IM1      H7       DUMH      0.00000       1.00800           0   0.00000       0.00000    
      7500 IM1      13       IM1      LPN21    LPD     -0.474000       0.00000          -1   0.00000       0.00000    
      7501 IM1      14       IM1      C1       CD33G     2.39060       11.6110           0  -1.08100       1.00000    
      7502 IM1      14       IM1      DC1      DRUD     -2.55160      0.400000           0   0.00000       0.00000    
      7503 IM1      14       IM1      H1       HDA3A    0.940000E-01   1.00800           0   0.00000       0.00000    
      7504 IM1      14       IM1      H2       HDA3A    0.940000E-01   1.00800           0   0.00000       0.00000    
      7505 IM1      14       IM1      H3       HDA3A    0.940000E-01   1.00800           0   0.00000       0.00000    
      7506 IM1      14       IM1      N1       ND2R5A    2.67030       13.6070           0  -1.06300       1.30000    
      7507 IM1      14       IM1      DN1      DRUD     -2.53030      0.400000           0   0.00000       0.00000    
      7508 IM1      14       IM1      C2       CD2R5A    2.51190       11.6110           0  -1.37800       1.30000    
      7509 IM1      14       IM1      DC2      DRUD     -2.88090      0.400000           0   0.00000       0.00000    
      7510 IM1      14       IM1      H4       HDR5A    0.150000       1.00800           0   0.00000       0.00000    
      7511 IM1      14       IM1      C3       CD2R5A    3.06890       11.6110           0  -1.37800       1.30000    
      7512 IM1      14       IM1      DC3      DRUD     -2.88090      0.400000           0   0.00000       0.00000    
      7513 IM1      14       IM1      H5       HDR5A    0.530000E-01   1.00800           0   0.00000       0.00000    
      7514 IM1      14       IM1      C4       CD2R5B    2.40440       11.6110           0 -0.868000       1.30000    
      7515 IM1      14       IM1      DC4      DRUD     -2.28640      0.400000           0   0.00000       0.00000    
      7516 IM1      14       IM1      H6       HDR5B    0.730000E-01   1.00800           0   0.00000       0.00000    
      7517 IM1      14       IM1      N2       ND2R5B    2.24930       13.6070           0 -0.840000       1.00000    
      7518 IM1      14       IM1      DN2      DRUD     -2.24930      0.400000           0   0.00000       0.00000    
      7519 IM1      14       IM1      H7       DUMH      0.00000       1.00800           0   0.00000       0.00000    
      7520 IM1      14       IM1      LPN21    LPD     -0.474000       0.00000          -1   0.00000       0.00000    
      7521 IM1      15       IM1      C1       CD33G     2.39060       11.6110           0  -1.08100       1.00000    
      7522 IM1      15       IM1      DC1      DRUD     -2.55160      0.400000           0   0.00000       0.00000    
      7523 IM1      15       IM1      H1       HDA3A    0.940000E-01   1.00800           0   0.00000       0.00000    
      7524 IM1      15       IM1      H2       HDA3A    0.940000E-01   1.00800           0   0.00000       0.00000    
      7525 IM1      15       IM1      H3       HDA3A    0.940000E-01   1.00800           0   0.00000       0.00000    
      7526 IM1      15       IM1      N1       ND2R5A    2.67030       13.6070           0  -1.06300       1.30000    
      7527 IM1      15       IM1      DN1      DRUD     -2.53030      0.400000           0   0.00000       0.00000    
      7528 IM1      15       IM1      C2       CD2R5A    2.51190       11.6110           0  -1.37800       1.30000    
      7529 IM1      15       IM1      DC2      DRUD     -2.88090      0.400000           0   0.00000       0.00000    
      7530 IM1      15       IM1      H4       HDR5A    0.150000       1.00800           0   0.00000       0.00000    
      7531 IM1      15       IM1      C3       CD2R5A    3.06890       11.6110           0  -1.37800       1.30000    
      7532 IM1      15       IM1      DC3      DRUD     -2.88090      0.400000           0   0.00000       0.00000    
      7533 IM1      15       IM1      H5       HDR5A    0.530000E-01   1.00800           0   0.00000       0.00000    
      7534 IM1      15       IM1      C4       CD2R5B    2.40440       11.6110           0 -0.868000       1.30000    
      7535 IM1      15       IM1      DC4      DRUD     -2.28640      0.400000           0   0.00000       0.00000    
      7536 IM1      15       IM1      H6       HDR5B    0.730000E-01   1.00800           0   0.00000       0.00000    
      7537 IM1      15       IM1      N2       ND2R5B    2.24930       13.6070           0 -0.840000       1.00000    
      7538 IM1      15       IM1      DN2      DRUD     -2.24930      0.400000           0   0.00000       0.00000    
      7539 IM1      15       IM1      H7       DUMH      0.00000       1.00800           0   0.00000       0.00000    
      7540 IM1      15       IM1      LPN21    LPD     -0.474000       0.00000          -1   0.00000       0.00000    
      7541 IM1      16       IM1      C1       CD33G     2.39060       11.6110           0  -1.08100       1.00000    
      7542 IM1      16       IM1      DC1      DRUD     -2.55160      0.400000           0   0.00000       0.00000    
      7543 IM1      16       IM1      H1       HDA3A    0.940000E-01   1.00800           0   0.00000       0.00000    
      7544 IM1      16       IM1      H2       HDA3A    0.940000E-01   1.00800           0   0.00000       0.00000    
      7545 IM1      16       IM1      H3       HDA3A    0.940000E-01   1.00800           0   0.00000       0.00000    
      7546 IM1      16       IM1      N1       ND2R5A    2.67030       13.6070           0  -1.06300       1.30000    
      7547 IM1      16       IM1      DN1      DRUD     -2.53030      0.400000           0   0.00000       0.00000    
      7548 IM1      16       IM1      C2       CD2R5A    2.51190       11.6110           0  -1.37800       1.30000    
      7549 IM1      16       IM1      DC2      DRUD     -2.88090      0.400000           0   0.00000       0.00000    
      7550 IM1      16       IM1      H4       HDR5A    0.150000       1.00800           0   0.00000       0.00000    
      7551 IM1      16       IM1      C3       CD2R5A    3.06890       11.6110           0  -1.37800       1.30000    
      7552 IM1      16       IM1      DC3      DRUD     -2.88090      0.400000           0   0.00000       0.00000    
      7553 IM1      16       IM1      H5       HDR5A    0.530000E-01   1.00800           0   0.00000       0.00000    
      7554 IM1      16       IM1      C4       CD2R5B    2.40440       11.6110           0 -0.868000       1.30000    
      7555 IM1      16       IM1      DC4      DRUD     -2.28640      0.400000           0   0.00000       0.00000    
      7556 IM1      16       IM1      H6       HDR5B    0.730000E-01   1.00800           0   0.00000       0.00000    
      7557 IM1      16       IM1      N2       ND2R5B    2.24930       13.6070           0 -0.840000       1.00000    
      7558 IM1      16       IM1      DN2      DRUD     -2.24930      0.400000           0   0.00000       0.00000    
      7559 IM1      16       IM1      H7       DUMH      0.00000       1.00800           0   0.00000       0.00000    
      7560 IM1      16       IM1      LPN21    LPD     -0.474000       0.00000          -1   0.00000       0.00000    
      7561 IM1      17       IM1      C1       CD33G     2.39060       11.6110           0  -1.08100       1.00000    
      7562 IM1      17       IM1      DC1      DRUD     -2.55160      0.400000           0   0.00000       0.00000    
      7563 IM1      17       IM1      H1       HDA3A    0.940000E-01   1.00800           0   0.00000       0.00000    
      7564 IM1      17       IM1      H2       HDA3A    0.940000E-01   1.00800           0   0.00000       0.00000    
      7565 IM1      17       IM1      H3       HDA3A    0.940000E-01   1.00800           0   0.00000       0.00000    
      7566 IM1      17       IM1      N1       ND2R5A    2.67030       13.6070           0  -1.06300       1.30000    
      7567 IM1      17       IM1      DN1      DRUD     -2.53030      0.400000           0   0.00000       0.00000    
      7568 IM1      17       IM1      C2       CD2R5A    2.51190       11.6110           0  -1.37800       1.30000    
      7569 IM1      17       IM1      DC2      DRUD     -2.88090      0.400000           0   0.00000       0.00000    
      7570 IM1      17       IM1      H4       HDR5A    0.150000       1.00800           0   0.00000       0.00000    
      7571 IM1      17       IM1      C3       CD2R5A    3.06890       11.6110           0  -1.37800       1.30000    
      7572 IM1      17       IM1      DC3      DRUD     -2.88090      0.400000           0   0.00000       0.00000    
      7573 IM1      17       IM1      H5       HDR5A    0.530000E-01   1.00800           0   0.00000       0.00000    
      7574 IM1      17       IM1      C4       CD2R5B    2.40440       11.6110           0 -0.868000       1.30000    
      7575 IM1      17       IM1      DC4      DRUD     -2.28640      0.400000           0   0.00000       0.00000    
      7576 IM1      17       IM1      H6       HDR5B    0.730000E-01   1.00800           0   0.00000       0.00000    
      7577 IM1      17       IM1      N2       ND2R5B    2.24930       13.6070           0 -0.840000       1.00000    
      7578 IM1      17       IM1      DN2      DRUD     -2.24930      0.400000           0   0.00000       0.00000    
      7579 IM1      17       IM1      H7       DUMH      0.00000       1.00800           0   0.00000       0.00000    
      7580 IM1      17       IM1      LPN21    LPD     -0.474000       0.00000          -1   0.00000       0.00000    
      7581 IM1      18       IM1      C1       CD33G     2.39060       11.6110           0  -1.08100       1.00000    
      7582 IM1      18       IM1      DC1      DRUD     -2.55160      0.400000           0   0.00000       0.00000    
      7583 IM1      18       IM1      H1       HDA3A    0.940000E-01   1.00800           0   0.00000       0.00000    
      7584 IM1      18       IM1      H2       HDA3A    0.940000E-01   1.00800           0   0.00000       0.00000    
      7585 IM1      18       IM1      H3       HDA3A    0.940000E-01   1.00800           0   0.00000       0.00000    
      7586 IM1      18       IM1      N1       ND2R5A    2.67030       13.6070           0  -1.06300       1.30000    
      7587 IM1      18       IM1      DN1      DRUD     -2.53030      0.400000           0   0.00000       0.00000    
      7588 IM1      18       IM1      C2       CD2R5A    2.51190       11.6110           0  -1.37800       1.30000    
      7589 IM1      18       IM1      DC2      DRUD     -2.88090      0.400000           0   0.00000       0.00000    
      7590 IM1      18       IM1      H4       HDR5A    0.150000       1.00800           0   0.00000       0.00000    
      7591 IM1      18       IM1      C3       CD2R5A    3.06890       11.6110           0  -1.37800       1.30000    
      7592 IM1      18       IM1      DC3      DRUD     -2.88090      0.400000           0   0.00000       0.00000    
      7593 IM1      18       IM1      H5       HDR5A    0.530000E-01   1.00800           0   0.00000       0.00000    
      7594 IM1      18       IM1      C4       CD2R5B    2.40440       11.6110           0 -0.868000       1.30000    
      7595 IM1      18       IM1      DC4      DRUD     -2.28640      0.400000           0   0.00000       0.00000    
      7596 IM1      18       IM1      H6       HDR5B    0.730000E-01   1.00800           0   0.00000       0.00000    
      7597 IM1      18       IM1      N2       ND2R5B    2.24930       13.6070           0 -0.840000       1.00000    
      7598 IM1      18       IM1      DN2      DRUD     -2.24930      0.400000           0   0.00000       0.00000    
      7599 IM1      18       IM1      H7       DUMH      0.00000       1.00800           0   0.00000       0.00000    
      7600 IM1      18       IM1      LPN21    LPD     -0.474000       0.00000          -1   0.00000       0.00000    
      7601 IM1      19       IM1      C1       CD33G     2.39060       11.6110           0  -1.08100       1.00000    
      7602 IM1      19       IM1      DC1      DRUD     -2.55160      0.400000           0   0.00000       0.00000    
      7603 IM1      19       IM1      H1       HDA3A    0.940000E-01   1.00800           0   0.00000       0.00000    
      7604 IM1      19       IM1      H2       HDA3A    0.940000E-01   1.00800           0   0.00000       0.00000    
      7605 IM1      19       IM1      H3       HDA3A    0.940000E-01   1.00800           0   0.00000       0.00000    
      7606 IM1      19       IM1      N1       ND2R5A    2.67030       13.6070           0  -1.06300       1.30000    
      7607 IM1      19       IM1      DN1      DRUD     -2.53030      0.400000           0   0.00000       0.00000    
      7608 IM1      19       IM1      C2       CD2R5A    2.51190       11.6110           0  -1.37800       1.30000    
      7609 IM1      19       IM1      DC2      DRUD     -2.88090      0.400000           0   0.00000       0.00000    
      7610 IM1      19       IM1      H4       HDR5A    0.150000       1.00800           0   0.00000       0.00000    
      7611 IM1      19       IM1      C3       CD2R5A    3.06890       11.6110           0  -1.37800       1.30000    
      7612 IM1      19       IM1      DC3      DRUD     -2.88090      0.400000           0   0.00000       0.00000    
      7613 IM1      19       IM1      H5       HDR5A    0.530000E-01   1.00800           0   0.00000       0.00000    
      7614 IM1      19       IM1      C4       CD2R5B    2.40440       11.6110           0 -0.868000       1.30000    
      7615 IM1      19       IM1      DC4      DRUD     -2.28640      0.400000           0   0.00000       0.00000    
      7616 IM1      19       IM1      H6       HDR5B    0.730000E-01   1.00800           0   0.00000       0.00000    
      7617 IM1      19       IM1      N2       ND2R5B    2.24930       13.6070           0 -0.840000       1.00000    
      7618 IM1      19       IM1      DN2      DRUD     -2.24930      0.400000           0   0.00000       0.00000    
      7619 IM1      19       IM1      H7       DUMH      0.00000       1.00800           0   0.00000       0.00000    
      7620 IM1      19       IM1      LPN21    LPD     -0.474000       0.00000          -1   0.00000       0.00000    
      7621 IM1      20       IM1      C1       CD33G     2.39060       11.6110           0  -1.08100       1.00000    
      7622 IM1      20       IM1      DC1      DRUD     -2.55160      0.400000           0   0.00000       0.00000    
      7623 IM1      20       IM1      H1       HDA3A    0.940000E-01   1.00800           0   0.00000       0.00000    
      7624 IM1      20       IM1      H2       HDA3A    0.940000E-01   1.00800           0   0.00000       0.00000    
      7625 IM1      20       IM1      H3       HDA3A    0.940000E-01   1.00800           0   0.00000       0.00000    
      7626 IM1      20       IM1      N1       ND2R5A    2.67030       13.6070           0  -1.06300       1.30000    
      7627 IM1      20       IM1      DN1      DRUD     -2.53030      0.400000           0   0.00000       0.00000    
      7628 IM1      20       IM1      C2       CD2R5A    2.51190       11.6110           0  -1.37800       1.30000    
      7629 IM1      20       IM1      DC2      DRUD     -2.88090      0.400000           0   0.00000       0.00000    
      7630 IM1      20       IM1      H4       HDR5A    0.150000       1.00800           0   0.00000       0.00000    
      7631 IM1      20       IM1      C3       CD2R5A    3.06890       11.6110           0  -1.37800       1.30000    
      7632 IM1      20       IM1      DC3      DRUD     -2.88090      0.400000           0   0.00000       0.00000    
      7633 IM1      20       IM1      H5       HDR5A    0.530000E-01   1.00800           0   0.00000       0.00000    
      7634 IM1      20       IM1      C4       CD2R5B    2.40440       11.6110           0 -0.868000       1.30000    
      7635 IM1      20       IM1      DC4      DRUD     -2.28640      0.400000           0   0.00000       0.00000    
      7636 IM1      20       IM1      H6       HDR5B    0.730000E-01   1.00800           0   0.00000       0.00000    
      7637 IM1      20       IM1      N2       ND2R5B    2.24930       13.6070           0 -0.840000       1.00000    
      7638 IM1      20       IM1      DN2      DRUD     -2.24930      0.400000           0   0.00000       0.00000    
      7639 IM1      20       IM1      H7       DUMH      0.00000       1.00800           0   0.00000       0.00000    
      7640 IM1      20       IM1      LPN21    LPD     -0.474000       0.00000          -1   0.00000       0.00000    
      7641 IM1      21       IM1      C1       CD33G     2.39060       11.6110           0  -1.08100       1.00000    
      7642 IM1      21       IM1      DC1      DRUD     -2.55160      0.400000           0   0.00000       0.00000    
      7643 IM1      21       IM1      H1       HDA3A    0.940000E-01   1.00800           0   0.00000       0.00000    
      7644 IM1      21       IM1      H2       HDA3A    0.940000E-01   1.00800           0   0.00000       0.00000    
      7645 IM1      21       IM1      H3       HDA3A    0.940000E-01   1.00800           0   0.00000       0.00000    
      7646 IM1      21       IM1      N1       ND2R5A    2.67030       13.6070           0  -1.06300       1.30000    
      7647 IM1      21       IM1      DN1      DRUD     -2.53030      0.400000           0   0.00000       0.00000    
      7648 IM1      21       IM1      C2       CD2R5A    2.51190       11.6110           0  -1.37800       1.30000    
      7649 IM1      21       IM1      DC2      DRUD     -2.88090      0.400000           0   0.00000       0.00000    
      7650 IM1      21       IM1      H4       HDR5A    0.150000       1.00800           0   0.00000       0.00000    
      7651 IM1      21       IM1      C3       CD2R5A    3.06890       11.6110           0  -1.37800       1.30000    
      7652 IM1      21       IM1      DC3      DRUD     -2.88090      0.400000           0   0.00000       0.00000    
      7653 IM1      21       IM1      H5       HDR5A    0.530000E-01   1.00800           0   0.00000       0.00000    
      7654 IM1      21       IM1      C4       CD2R5B    2.40440       11.6110           0 -0.868000       1.30000    
      7655 IM1      21       IM1      DC4      DRUD     -2.28640      0.400000           0   0.00000       0.00000    
      7656 IM1      21       IM1      H6       HDR5B    0.730000E-01   1.00800           0   0.00000       0.00000    
      7657 IM1      21       IM1      N2       ND2R5B    2.24930       13.6070           0 -0.840000       1.00000    
      7658 IM1      21       IM1      DN2      DRUD     -2.24930      0.400000           0   0.00000       0.00000    
      7659 IM1      21       IM1      H7       DUMH      0.00000       1.00800           0   0.00000       0.00000    
      7660 IM1      21       IM1      LPN21    LPD     -0.474000       0.00000          -1   0.00000       0.00000    
      7661 IM1      22       IM1      C1       CD33G     2.39060       11.6110           0  -1.08100       1.00000    
      7662 IM1      22       IM1      DC1      DRUD     -2.55160      0.400000           0   0.00000       0.00000    
      7663 IM1      22       IM1      H1       HDA3A    0.940000E-01   1.00800           0   0.00000       0.00000    
      7664 IM1      22       IM1      H2       HDA3A    0.940000E-01   1.00800           0   0.00000       0.00000    
      7665 IM1      22       IM1      H3       HDA3A    0.940000E-01   1.00800           0   0.00000       0.00000    
      7666 IM1      22       IM1      N1       ND2R5A    2.67030       13.6070           0  -1.06300       1.30000    
      7667 IM1      22       IM1      DN1      DRUD     -2.53030      0.400000           0   0.00000       0.00000    
      7668 IM1      22       IM1      C2       CD2R5A    2.51190       11.6110           0  -1.37800       1.30000    
      7669 IM1      22       IM1      DC2      DRUD     -2.88090      0.400000           0   0.00000       0.00000    
      7670 IM1      22       IM1      H4       HDR5A    0.150000       1.00800           0   0.00000       0.00000    
      7671 IM1      22       IM1      C3       CD2R5A    3.06890       11.6110           0  -1.37800       1.30000    
      7672 IM1      22       IM1      DC3      DRUD     -2.88090      0.400000           0   0.00000       0.00000    
      7673 IM1      22       IM1      H5       HDR5A    0.530000E-01   1.00800           0   0.00000       0.00000    
      7674 IM1      22       IM1      C4       CD2R5B    2.40440       11.6110           0 -0.868000       1.30000    
      7675 IM1      22       IM1      DC4      DRUD     -2.28640      0.400000           0   0.00000       0.00000    
      7676 IM1      22       IM1      H6       HDR5B    0.730000E-01   1.00800           0   0.00000       0.00000    
      7677 IM1      22       IM1      N2       ND2R5B    2.24930       13.6070           0 -0.840000       1.00000    
      7678 IM1      22       IM1      DN2      DRUD     -2.24930      0.400000           0   0.00000       0.00000    
      7679 IM1      22       IM1      H7       DUMH      0.00000       1.00800           0   0.00000       0.00000    
      7680 IM1      22       IM1      LPN21    LPD     -0.474000       0.00000          -1   0.00000       0.00000    
      7681 IM1      23       IM1      C1       CD33G     2.39060       11.6110           0  -1.08100       1.00000    
      7682 IM1      23       IM1      DC1      DRUD     -2.55160      0.400000           0   0.00000       0.00000    
      7683 IM1      23       IM1      H1       HDA3A    0.940000E-01   1.00800           0   0.00000       0.00000    
      7684 IM1      23       IM1      H2       HDA3A    0.940000E-01   1.00800           0   0.00000       0.00000    
      7685 IM1      23       IM1      H3       HDA3A    0.940000E-01   1.00800           0   0.00000       0.00000    
      7686 IM1      23       IM1      N1       ND2R5A    2.67030       13.6070           0  -1.06300       1.30000    
      7687 IM1      23       IM1      DN1      DRUD     -2.53030      0.400000           0   0.00000       0.00000    
      7688 IM1      23       IM1      C2       CD2R5A    2.51190       11.6110           0  -1.37800       1.30000    
      7689 IM1      23       IM1      DC2      DRUD     -2.88090      0.400000           0   0.00000       0.00000    
      7690 IM1      23       IM1      H4       HDR5A    0.150000       1.00800           0   0.00000       0.00000    
      7691 IM1      23       IM1      C3       CD2R5A    3.06890       11.6110           0  -1.37800       1.30000    
      7692 IM1      23       IM1      DC3      DRUD     -2.88090      0.400000           0   0.00000       0.00000    
      7693 IM1      23       IM1      H5       HDR5A    0.530000E-01   1.00800           0   0.00000       0.00000    
      7694 IM1      23       IM1      C4       CD2R5B    2.40440       11.6110           0 -0.868000       1.30000    
      7695 IM1      23       IM1      DC4      DRUD     -2.28640      0.400000           0   0.00000       0.00000    
      7696 IM1      23       IM1      H6       HDR5B    0.730000E-01   1.00800           0   0.00000       0.00000    
      7697 IM1      23       IM1      N2       ND2R5B    2.24930       13.6070           0 -0.840000       1.00000    
      7698 IM1      23       IM1      DN2      DRUD     -2.24930      0.400000           0   0.00000       0.00000    
      7699 IM1      23       IM1      H7       DUMH      0.00000       1.00800           0   0.00000       0.00000    
      7700 IM1      23       IM1      LPN21    LPD     -0.474000       0.00000          -1   0.00000       0.00000    
      7701 IM1      24       IM1      C1       CD33G     2.39060       11.6110           0  -1.08100       1.00000    
      7702 IM1      24       IM1      DC1      DRUD     -2.55160      0.400000           0   0.00000       0.00000    
      7703 IM1      24       IM1      H1       HDA3A    0.940000E-01   1.00800           0   0.00000       0.00000    
      7704 IM1      24       IM1      H2       HDA3A    0.940000E-01   1.00800           0   0.00000       0.00000    
      7705 IM1      24       IM1      H3       HDA3A    0.940000E-01   1.00800           0   0.00000       0.00000    
      7706 IM1      24       IM1      N1       ND2R5A    2.67030       13.6070           0  -1.06300       1.30000    
      7707 IM1      24       IM1      DN1      DRUD     -2.53030      0.400000           0   0.00000       0.00000    
      7708 IM1      24       IM1      C2       CD2R5A    2.51190       11.6110           0  -1.37800       1.30000    
      7709 IM1      24       IM1      DC2      DRUD     -2.88090      0.400000           0   0.00000       0.00000    
      7710 IM1      24       IM1      H4       HDR5A    0.150000       1.00800           0   0.00000       0.00000    
      7711 IM1      24       IM1      C3       CD2R5A    3.06890       11.6110           0  -1.37800       1.30000    
      7712 IM1      24       IM1      DC3      DRUD     -2.88090      0.400000           0   0.00000       0.00000    
      7713 IM1      24       IM1      H5       HDR5A    0.530000E-01   1.00800           0   0.00000       0.00000    
      7714 IM1      24       IM1      C4       CD2R5B    2.40440       11.6110           0 -0.868000       1.30000    
      7715 IM1      24       IM1      DC4      DRUD     -2.28640      0.400000           0   0.00000       0.00000    
      7716 IM1      24       IM1      H6       HDR5B    0.730000E-01   1.00800           0   0.00000       0.00000    
      7717 IM1      24       IM1      N2       ND2R5B    2.24930       13.6070           0 -0.840000       1.00000    
      7718 IM1      24       IM1      DN2      DRUD     -2.24930      0.400000           0   0.00000       0.00000    
      7719 IM1      24       IM1      H7       DUMH      0.00000       1.00800           0   0.00000       0.00000    
      7720 IM1      24       IM1      LPN21    LPD     -0.474000       0.00000          -1   0.00000       0.00000    
      7721 IM1      25       IM1      C1       CD33G     2.39060       11.6110           0  -1.08100       1.00000    
      7722 IM1      25       IM1      DC1      DRUD     -2.55160      0.400000           0   0.00000       0.00000    
      7723 IM1      25       IM1      H1       HDA3A    0.940000E-01   1.00800           0   0.00000       0.00000    
      7724 IM1      25       IM1      H2       HDA3A    0.940000E-01   1.00800           0   0.00000       0.00000    
      7725 IM1      25       IM1      H3       HDA3A    0.940000E-01   1.00800           0   0.00000       0.00000    
      7726 IM1      25       IM1      N1       ND2R5A    2.67030       13.6070           0  -1.06300       1.30000    
      7727 IM1      25       IM1      DN1      DRUD     -2.53030      0.400000           0   0.00000       0.00000    
      7728 IM1      25       IM1      C2       CD2R5A    2.51190       11.6110           0  -1.37800       1.30000    
      7729 IM1      25       IM1      DC2      DRUD     -2.88090      0.400000           0   0.00000       0.00000    
      7730 IM1      25       IM1      H4       HDR5A    0.150000       1.00800           0   0.00000       0.00000    
      7731 IM1      25       IM1      C3       CD2R5A    3.06890       11.6110           0  -1.37800       1.30000    
      7732 IM1      25       IM1      DC3      DRUD     -2.88090      0.400000           0   0.00000       0.00000    
      7733 IM1      25       IM1      H5       HDR5A    0.530000E-01   1.00800           0   0.00000       0.00000    
      7734 IM1      25       IM1      C4       CD2R5B    2.40440       11.6110           0 -0.868000       1.30000    
      7735 IM1      25       IM1      DC4      DRUD     -2.28640      0.400000           0   0.00000       0.00000    
      7736 IM1      25       IM1      H6       HDR5B    0.730000E-01   1.00800           0   0.00000       0.00000    
      7737 IM1      25       IM1      N2       ND2R5B    2.24930       13.6070           0 -0.840000       1.00000    
      7738 IM1      25       IM1      DN2      DRUD     -2.24930      0.400000           0   0.00000       0.00000    
      7739 IM1      25       IM1      H7       DUMH      0.00000       1.00800           0   0.00000       0.00000    
      7740 IM1      25       IM1      LPN21    LPD     -0.474000       0.00000          -1   0.00000       0.00000    
      7741 IM1      26       IM1      C1       CD33G     2.39060       11.6110           0  -1.08100       1.00000    
      7742 IM1      26       IM1      DC1      DRUD     -2.55160      0.400000           0   0.00000       0.00000    
      7743 IM1      26       IM1      H1       HDA3A    0.940000E-01   1.00800           0   0.00000       0.00000    
      7744 IM1      26       IM1      H2       HDA3A    0.940000E-01   1.00800           0   0.00000       0.00000    
      7745 IM1      26       IM1      H3       HDA3A    0.940000E-01   1.00800           0   0.00000       0.00000    
      7746 IM1      26       IM1      N1       ND2R5A    2.67030       13.6070           0  -1.06300       1.30000    
      7747 IM1      26       IM1      DN1      DRUD     -2.53030      0.400000           0   0.00000       0.00000    
      7748 IM1      26       IM1      C2       CD2R5A    2.51190       11.6110           0  -1.37800       1.30000    
      7749 IM1      26       IM1      DC2      DRUD     -2.88090      0.400000           0   0.00000       0.00000    
      7750 IM1      26       IM1      H4       HDR5A    0.150000       1.00800           0   0.00000       0.00000    
      7751 IM1      26       IM1      C3       CD2R5A    3.06890       11.6110           0  -1.37800       1.30000    
      7752 IM1      26       IM1      DC3      DRUD     -2.88090      0.400000           0   0.00000       0.00000    
      7753 IM1      26       IM1      H5       HDR5A    0.530000E-01   1.00800           0   0.00000       0.00000    
      7754 IM1      26       IM1      C4       CD2R5B    2.40440       11.6110           0 -0.868000       1.30000    
      7755 IM1      26       IM1      DC4      DRUD     -2.28640      0.400000           0   0.00000       0.00000    
      7756 IM1      26       IM1      H6       HDR5B    0.730000E-01   1.00800           0   0.00000       0.00000    
      7757 IM1      26       IM1      N2       ND2R5B    2.24930       13.6070           0 -0.840000       1.00000    
      7758 IM1      26       IM1      DN2      DRUD     -2.24930      0.400000           0   0.00000       0.00000    
      7759 IM1      26       IM1      H7       DUMH      0.00000       1.00800           0   0.00000       0.00000    
      7760 IM1      26       IM1      LPN21    LPD     -0.474000       0.00000          -1   0.00000       0.00000    
      7761 IM1      27       IM1      C1       CD33G     2.39060       11.6110           0  -1.08100       1.00000    
      7762 IM1      27       IM1      DC1      DRUD     -2.55160      0.400000           0   0.00000       0.00000    
      7763 IM1      27       IM1      H1       HDA3A    0.940000E-01   1.00800           0   0.00000       0.00000    
      7764 IM1      27       IM1      H2       HDA3A    0.940000E-01   1.00800           0   0.00000       0.00000    
      7765 IM1      27       IM1      H3       HDA3A    0.940000E-01   1.00800           0   0.00000       0.00000    
      7766 IM1      27       IM1      N1       ND2R5A    2.67030       13.6070           0  -1.06300       1.30000    
      7767 IM1      27       IM1      DN1      DRUD     -2.53030      0.400000           0   0.00000       0.00000    
      7768 IM1      27       IM1      C2       CD2R5A    2.51190       11.6110           0  -1.37800       1.30000    
      7769 IM1      27       IM1      DC2      DRUD     -2.88090      0.400000           0   0.00000       0.00000    
      7770 IM1      27       IM1      H4       HDR5A    0.150000       1.00800           0   0.00000       0.00000    
      7771 IM1      27       IM1      C3       CD2R5A    3.06890       11.6110           0  -1.37800       1.30000    
      7772 IM1      27       IM1      DC3      DRUD     -2.88090      0.400000           0   0.00000       0.00000    
      7773 IM1      27       IM1      H5       HDR5A    0.530000E-01   1.00800           0   0.00000       0.00000    
      7774 IM1      27       IM1      C4       CD2R5B    2.40440       11.6110           0 -0.868000       1.30000    
      7775 IM1      27       IM1      DC4      DRUD     -2.28640      0.400000           0   0.00000       0.00000    
      7776 IM1      27       IM1      H6       HDR5B    0.730000E-01   1.00800           0   0.00000       0.00000    
      7777 IM1      27       IM1      N2       ND2R5B    2.24930       13.6070           0 -0.840000       1.00000    
      7778 IM1      27       IM1      DN2      DRUD     -2.24930      0.400000           0   0.00000       0.00000    
      7779 IM1      27       IM1      H7       DUMH      0.00000       1.00800           0   0.00000       0.00000    
      7780 IM1      27       IM1      LPN21    LPD     -0.474000       0.00000          -1   0.00000       0.00000    
      7781 IM1      28       IM1      C1       CD33G     2.39060       11.6110           0  -1.08100       1.00000    
      7782 IM1      28       IM1      DC1      DRUD     -2.55160      0.400000           0   0.00000       0.00000    
      7783 IM1      28       IM1      H1       HDA3A    0.940000E-01   1.00800           0   0.00000       0.00000    
      7784 IM1      28       IM1      H2       HDA3A    0.940000E-01   1.00800           0   0.00000       0.00000    
      7785 IM1      28       IM1      H3       HDA3A    0.940000E-01   1.00800           0   0.00000       0.00000    
      7786 IM1      28       IM1      N1       ND2R5A    2.67030       13.6070           0  -1.06300       1.30000    
      7787 IM1      28       IM1      DN1      DRUD     -2.53030      0.400000           0   0.00000       0.00000    
      7788 IM1      28       IM1      C2       CD2R5A    2.51190       11.6110           0  -1.37800       1.30000    
      7789 IM1      28       IM1      DC2      DRUD     -2.88090      0.400000           0   0.00000       0.00000    
      7790 IM1      28       IM1      H4       HDR5A    0.150000       1.00800           0   0.00000       0.00000    
      7791 IM1      28       IM1      C3       CD2R5A    3.06890       11.6110           0  -1.37800       1.30000    
      7792 IM1      28       IM1      DC3      DRUD     -2.88090      0.400000           0   0.00000       0.00000    
      7793 IM1      28       IM1      H5       HDR5A    0.530000E-01   1.00800           0   0.00000       0.00000    
      7794 IM1      28       IM1      C4       CD2R5B    2.40440       11.6110           0 -0.868000       1.30000    
      7795 IM1      28       IM1      DC4      DRUD     -2.28640      0.400000           0   0.00000       0.00000    
      7796 IM1      28       IM1      H6       HDR5B    0.730000E-01   1.00800           0   0.00000       0.00000    
      7797 IM1      28       IM1      N2       ND2R5B    2.24930       13.6070           0 -0.840000       1.00000    
      7798 IM1      28       IM1      DN2      DRUD     -2.24930      0.400000           0   0.00000       0.00000    
      7799 IM1      28       IM1      H7       DUMH      0.00000       1.00800           0   0.00000       0.00000    
      7800 IM1      28       IM1      LPN21    LPD     -0.474000       0.00000          -1   0.00000       0.00000    
      7801 IM1      29       IM1      C1       CD33G     2.39060       11.6110           0  -1.08100       1.00000    
      7802 IM1      29       IM1      DC1      DRUD     -2.55160      0.400000           0   0.00000       0.00000    
      7803 IM1      29       IM1      H1       HDA3A    0.940000E-01   1.00800           0   0.00000       0.00000    
      7804 IM1      29       IM1      H2       HDA3A    0.940000E-01   1.00800           0   0.00000       0.00000    
      7805 IM1      29       IM1      H3       HDA3A    0.940000E-01   1.00800           0   0.00000       0.00000    
      7806 IM1      29       IM1      N1       ND2R5A    2.67030       13.6070           0  -1.06300       1.30000    
      7807 IM1      29       IM1      DN1      DRUD     -2.53030      0.400000           0   0.00000       0.00000    
      7808 IM1      29       IM1      C2       CD2R5A    2.51190       11.6110           0  -1.37800       1.30000    
      7809 IM1      29       IM1      DC2      DRUD     -2.88090      0.400000           0   0.00000       0.00000    
      7810 IM1      29       IM1      H4       HDR5A    0.150000       1.00800           0   0.00000       0.00000    
      7811 IM1      29       IM1      C3       CD2R5A    3.06890       11.6110           0  -1.37800       1.30000    
      7812 IM1      29       IM1      DC3      DRUD     -2.88090      0.400000           0   0.00000       0.00000    
      7813 IM1      29       IM1      H5       HDR5A    0.530000E-01   1.00800           0   0.00000       0.00000    
      7814 IM1      29       IM1      C4       CD2R5B    2.40440       11.6110           0 -0.868000       1.30000    
      7815 IM1      29       IM1      DC4      DRUD     -2.28640      0.400000           0   0.00000       0.00000    
      7816 IM1      29       IM1      H6       HDR5B    0.730000E-01   1.00800           0   0.00000       0.00000    
      7817 IM1      29       IM1      N2       ND2R5B    2.24930       13.6070           0 -0.840000       1.00000    
      7818 IM1      29       IM1      DN2      DRUD     -2.24930      0.400000           0   0.00000       0.00000    
      7819 IM1      29       IM1      H7       DUMH      0.00000       1.00800           0   0.00000       0.00000    
      7820 IM1      29       IM1      LPN21    LPD     -0.474000       0.00000          -1   0.00000       0.00000    
      7821 IM1      30       IM1      C1       CD33G     2.39060       11.6110           0  -1.08100       1.00000    
      7822 IM1      30       IM1      DC1      DRUD     -2.55160      0.400000           0   0.00000       0.00000    
      7823 IM1      30       IM1      H1       HDA3A    0.940000E-01   1.00800           0   0.00000       0.00000    
      7824 IM1      30       IM1      H2       HDA3A    0.940000E-01   1.00800           0   0.00000       0.00000    
      7825 IM1      30       IM1      H3       HDA3A    0.940000E-01   1.00800           0   0.00000       0.00000    
      7826 IM1      30       IM1      N1       ND2R5A    2.67030       13.6070           0  -1.06300       1.30000    
      7827 IM1      30       IM1      DN1      DRUD     -2.53030      0.400000           0   0.00000       0.00000    
      7828 IM1      30       IM1      C2       CD2R5A    2.51190       11.6110           0  -1.37800       1.30000    
      7829 IM1      30       IM1      DC2      DRUD     -2.88090      0.400000           0   0.00000       0.00000    
      7830 IM1      30       IM1      H4       HDR5A    0.150000       1.00800           0   0.00000       0.00000    
      7831 IM1      30       IM1      C3       CD2R5A    3.06890       11.6110           0  -1.37800       1.30000    
      7832 IM1      30       IM1      DC3      DRUD     -2.88090      0.400000           0   0.00000       0.00000    
      7833 IM1      30       IM1      H5       HDR5A    0.530000E-01   1.00800           0   0.00000       0.00000    
      7834 IM1      30       IM1      C4       CD2R5B    2.40440       11.6110           0 -0.868000       1.30000    
      7835 IM1      30       IM1      DC4      DRUD     -2.28640      0.400000           0   0.00000       0.00000    
      7836 IM1      30       IM1      H6       HDR5B    0.730000E-01   1.00800           0   0.00000       0.00000    
      7837 IM1      30       IM1      N2       ND2R5B    2.24930       13.6070           0 -0.840000       1.00000    
      7838 IM1      30       IM1      DN2      DRUD     -2.24930      0.400000           0   0.00000       0.00000    
      7839 IM1      30       IM1      H7       DUMH      0.00000       1.00800           0   0.00000       0.00000    
      7840 IM1      30       IM1      LPN21    LPD     -0.474000       0.00000          -1   0.00000       0.00000    
      7841 IM1      31       IM1      C1       CD33G     2.39060       11.6110           0  -1.08100       1.00000    
      7842 IM1      31       IM1      DC1      DRUD     -2.55160      0.400000           0   0.00000       0.00000    
      7843 IM1      31       IM1      H1       HDA3A    0.940000E-01   1.00800           0   0.00000       0.00000    
      7844 IM1      31       IM1      H2       HDA3A    0.940000E-01   1.00800           0   0.00000       0.00000    
      7845 IM1      31       IM1      H3       HDA3A    0.940000E-01   1.00800           0   0.00000       0.00000    
      7846 IM1      31       IM1      N1       ND2R5A    2.67030       13.6070           0  -1.06300       1.30000    
      7847 IM1      31       IM1      DN1      DRUD     -2.53030      0.400000           0   0.00000       0.00000    
      7848 IM1      31       IM1      C2       CD2R5A    2.51190       11.6110           0  -1.37800       1.30000    
      7849 IM1      31       IM1      DC2      DRUD     -2.88090      0.400000           0   0.00000       0.00000    
      7850 IM1      31       IM1      H4       HDR5A    0.150000       1.00800           0   0.00000       0.00000    
      7851 IM1      31       IM1      C3       CD2R5A    3.06890       11.6110           0  -1.37800       1.30000    
      7852 IM1      31       IM1      DC3      DRUD     -2.88090      0.400000           0   0.00000       0.00000    
      7853 IM1      31       IM1      H5       HDR5A    0.530000E-01   1.00800           0   0.00000       0.00000    
      7854 IM1      31       IM1      C4       CD2R5B    2.40440       11.6110           0 -0.868000       1.30000    
      7855 IM1      31       IM1      DC4      DRUD     -2.28640      0.400000           0   0.00000       0.00000    
      7856 IM1      31       IM1      H6       HDR5B    0.730000E-01   1.00800           0   0.00000       0.00000    
      7857 IM1      31       IM1      N2       ND2R5B    2.24930       13.6070           0 -0.840000       1.00000    
      7858 IM1      31       IM1      DN2      DRUD     -2.24930      0.400000           0   0.00000       0.00000    
      7859 IM1      31       IM1      H7       DUMH      0.00000       1.00800           0   0.00000       0.00000    
      7860 IM1      31       IM1      LPN21    LPD     -0.474000       0.00000          -1   0.00000       0.00000    
      7861 IM1      32       IM1      C1       CD33G     2.39060       11.6110           0  -1.08100       1.00000    
      7862 IM1      32       IM1      DC1      DRUD     -2.55160      0.400000           0   0.00000       0.00000    
      7863 IM1      32       IM1      H1       HDA3A    0.940000E-01   1.00800           0   0.00000       0.00000    
      7864 IM1      32       IM1      H2       HDA3A    0.940000E-01   1.00800           0   0.00000       0.00000    
      7865 IM1      32       IM1      H3       HDA3A    0.940000E-01   1.00800           0   0.00000       0.00000    
      7866 IM1      32       IM1      N1       ND2R5A    2.67030       13.6070           0  -1.06300       1.30000    
      7867 IM1      32       IM1      DN1      DRUD     -2.53030      0.400000           0   0.00000       0.00000    
      7868 IM1      32       IM1      C2       CD2R5A    2.51190       11.6110           0  -1.37800       1.30000    
      7869 IM1      32       IM1      DC2      DRUD     -2.88090      0.400000           0   0.00000       0.00000    
      7870 IM1      32       IM1      H4       HDR5A    0.150000       1.00800           0   0.00000       0.00000    
      7871 IM1      32       IM1      C3       CD2R5A    3.06890       11.6110           0  -1.37800       1.30000    
      7872 IM1      32       IM1      DC3      DRUD     -2.88090      0.400000           0   0.00000       0.00000    
      7873 IM1      32       IM1      H5       HDR5A    0.530000E-01   1.00800           0   0.00000       0.00000    
      7874 IM1      32       IM1      C4       CD2R5B    2.40440       11.6110           0 -0.868000       1.30000    
      7875 IM1      32       IM1      DC4      DRUD     -2.28640      0.400000           0   0.00000       0.00000    
      7876 IM1      32       IM1      H6       HDR5B    0.730000E-01   1.00800           0   0.00000       0.00000    
      7877 IM1      32       IM1      N2       ND2R5B    2.24930       13.6070           0 -0.840000       1.00000    
      7878 IM1      32       IM1      DN2      DRUD     -2.24930      0.400000           0   0.00000       0.00000    
      7879 IM1      32       IM1      H7       DUMH      0.00000       1.00800           0   0.00000       0.00000    
      7880 IM1      32       IM1      LPN21    LPD     -0.474000       0.00000          -1   0.00000       0.00000    
      7881 IM1      33       IM1      C1       CD33G     2.39060       11.6110           0  -1.08100       1.00000    
      7882 IM1      33       IM1      DC1      DRUD     -2.55160      0.400000           0   0.00000       0.00000    
      7883 IM1      33       IM1      H1       HDA3A    0.940000E-01   1.00800           0   0.00000       0.00000    
      7884 IM1      33       IM1      H2       HDA3A    0.940000E-01   1.00800           0   0.00000       0.00000    
      7885 IM1      33       IM1      H3       HDA3A    0.940000E-01   1.00800           0   0.00000       0.00000    
      7886 IM1      33       IM1      N1       ND2R5A    2.67030       13.6070           0  -1.06300       1.30000    
      7887 IM1      33       IM1      DN1      DRUD     -2.53030      0.400000           0   0.00000       0.00000    
      7888 IM1      33       IM1      C2       CD2R5A    2.51190       11.6110           0  -1.37800       1.30000    
      7889 IM1      33       IM1      DC2      DRUD     -2.88090      0.400000           0   0.00000       0.00000    
      7890 IM1      33       IM1      H4       HDR5A    0.150000       1.00800           0   0.00000       0.00000    
      7891 IM1      33       IM1      C3       CD2R5A    3.06890       11.6110           0  -1.37800       1.30000    
      7892 IM1      33       IM1      DC3      DRUD     -2.88090      0.400000           0   0.00000       0.00000    
      7893 IM1      33       IM1      H5       HDR5A    0.530000E-01   1.00800           0   0.00000       0.00000    
      7894 IM1      33       IM1      C4       CD2R5B    2.40440       11.6110           0 -0.868000       1.30000    
      7895 IM1      33       IM1      DC4      DRUD     -2.28640      0.400000           0   0.00000       0.00000    
      7896 IM1      33       IM1      H6       HDR5B    0.730000E-01   1.00800           0   0.00000       0.00000    
      7897 IM1      33       IM1      N2       ND2R5B    2.24930       13.6070           0 -0.840000       1.00000    
      7898 IM1      33       IM1      DN2      DRUD     -2.24930      0.400000           0   0.00000       0.00000    
      7899 IM1      33       IM1      H7       DUMH      0.00000       1.00800           0   0.00000       0.00000    
      7900 IM1      33       IM1      LPN21    LPD     -0.474000       0.00000          -1   0.00000       0.00000    
      7901 IM1      34       IM1      C1       CD33G     2.39060       11.6110           0  -1.08100       1.00000    
      7902 IM1      34       IM1      DC1      DRUD     -2.55160      0.400000           0   0.00000       0.00000    
      7903 IM1      34       IM1      H1       HDA3A    0.940000E-01   1.00800           0   0.00000       0.00000    
      7904 IM1      34       IM1      H2       HDA3A    0.940000E-01   1.00800           0   0.00000       0.00000    
      7905 IM1      34       IM1      H3       HDA3A    0.940000E-01   1.00800           0   0.00000       0.00000    
      7906 IM1      34       IM1      N1       ND2R5A    2.67030       13.6070           0  -1.06300       1.30000    
      7907 IM1      34       IM1      DN1      DRUD     -2.53030      0.400000           0   0.00000       0.00000    
      7908 IM1      34       IM1      C2       CD2R5A    2.51190       11.6110           0  -1.37800       1.30000    
      7909 IM1      34       IM1      DC2      DRUD     -2.88090      0.400000           0   0.00000       0.00000    
      7910 IM1      34       IM1      H4       HDR5A    0.150000       1.00800           0   0.00000       0.00000    
      7911 IM1      34       IM1      C3       CD2R5A    3.06890       11.6110           0  -1.37800       1.30000    
      7912 IM1      34       IM1      DC3      DRUD     -2.88090      0.400000           0   0.00000       0.00000    
      7913 IM1      34       IM1      H5       HDR5A    0.530000E-01   1.00800           0   0.00000       0.00000    
      7914 IM1      34       IM1      C4       CD2R5B    2.40440       11.6110           0 -0.868000       1.30000    
      7915 IM1      34       IM1      DC4      DRUD     -2.28640      0.400000           0   0.00000       0.00000    
      7916 IM1      34       IM1      H6       HDR5B    0.730000E-01   1.00800           0   0.00000       0.00000    
      7917 IM1      34       IM1      N2       ND2R5B    2.24930       13.6070           0 -0.840000       1.00000    
      7918 IM1      34       IM1      DN2      DRUD     -2.24930      0.400000           0   0.00000       0.00000    
      7919 IM1      34       IM1      H7       DUMH      0.00000       1.00800           0   0.00000       0.00000    
      7920 IM1      34       IM1      LPN21    LPD     -0.474000       0.00000          -1   0.00000       0.00000    
      7921 IM1      35       IM1      C1       CD33G     2.39060       11.6110           0  -1.08100       1.00000    
      7922 IM1      35       IM1      DC1      DRUD     -2.55160      0.400000           0   0.00000       0.00000    
      7923 IM1      35       IM1      H1       HDA3A    0.940000E-01   1.00800           0   0.00000       0.00000    
      7924 IM1      35       IM1      H2       HDA3A    0.940000E-01   1.00800           0   0.00000       0.00000    
      7925 IM1      35       IM1      H3       HDA3A    0.940000E-01   1.00800           0   0.00000       0.00000    
      7926 IM1      35       IM1      N1       ND2R5A    2.67030       13.6070           0  -1.06300       1.30000    
      7927 IM1      35       IM1      DN1      DRUD     -2.53030      0.400000           0   0.00000       0.00000    
      7928 IM1      35       IM1      C2       CD2R5A    2.51190       11.6110           0  -1.37800       1.30000    
      7929 IM1      35       IM1      DC2      DRUD     -2.88090      0.400000           0   0.00000       0.00000    
      7930 IM1      35       IM1      H4       HDR5A    0.150000       1.00800           0   0.00000       0.00000    
      7931 IM1      35       IM1      C3       CD2R5A    3.06890       11.6110           0  -1.37800       1.30000    
      7932 IM1      35       IM1      DC3      DRUD     -2.88090      0.400000           0   0.00000       0.00000    
      7933 IM1      35       IM1      H5       HDR5A    0.530000E-01   1.00800           0   0.00000       0.00000    
      7934 IM1      35       IM1      C4       CD2R5B    2.40440       11.6110           0 -0.868000       1.30000    
      7935 IM1      35       IM1      DC4      DRUD     -2.28640      0.400000           0   0.00000       0.00000    
      7936 IM1      35       IM1      H6       HDR5B    0.730000E-01   1.00800           0   0.00000       0.00000    
      7937 IM1      35       IM1      N2       ND2R5B    2.24930       13.6070           0 -0.840000       1.00000    
      7938 IM1      35       IM1      DN2      DRUD     -2.24930      0.400000           0   0.00000       0.00000    
      7939 IM1      35       IM1      H7       DUMH      0.00000       1.00800           0   0.00000       0.00000    
      7940 IM1      35       IM1      LPN21    LPD     -0.474000       0.00000          -1   0.00000       0.00000    
      7941 IM1      36       IM1      C1       CD33G     2.39060       11.6110           0  -1.08100       1.00000    
      7942 IM1      36       IM1      DC1      DRUD     -2.55160      0.400000           0   0.00000       0.00000    
      7943 IM1      36       IM1      H1       HDA3A    0.940000E-01   1.00800           0   0.00000       0.00000    
      7944 IM1      36       IM1      H2       HDA3A    0.940000E-01   1.00800           0   0.00000       0.00000    
      7945 IM1      36       IM1      H3       HDA3A    0.940000E-01   1.00800           0   0.00000       0.00000    
      7946 IM1      36       IM1      N1       ND2R5A    2.67030       13.6070           0  -1.06300       1.30000    
      7947 IM1      36       IM1      DN1      DRUD     -2.53030      0.400000           0   0.00000       0.00000    
      7948 IM1      36       IM1      C2       CD2R5A    2.51190       11.6110           0  -1.37800       1.30000    
      7949 IM1      36       IM1      DC2      DRUD     -2.88090      0.400000           0   0.00000       0.00000    
      7950 IM1      36       IM1      H4       HDR5A    0.150000       1.00800           0   0.00000       0.00000    
      7951 IM1      36       IM1      C3       CD2R5A    3.06890       11.6110           0  -1.37800       1.30000    
      7952 IM1      36       IM1      DC3      DRUD     -2.88090      0.400000           0   0.00000       0.00000    
      7953 IM1      36       IM1      H5       HDR5A    0.530000E-01   1.00800           0   0.00000       0.00000    
      7954 IM1      36       IM1      C4       CD2R5B    2.40440       11.6110           0 -0.868000       1.30000    
      7955 IM1      36       IM1      DC4      DRUD     -2.28640      0.400000           0   0.00000       0.00000    
      7956 IM1      36       IM1      H6       HDR5B    0.730000E-01   1.00800           0   0.00000       0.00000    
      7957 IM1      36       IM1      N2       ND2R5B    2.24930       13.6070           0 -0.840000       1.00000    
      7958 IM1      36       IM1      DN2      DRUD     -2.24930      0.400000           0   0.00000       0.00000    
      7959 IM1      36       IM1      H7       DUMH      0.00000       1.00800           0   0.00000       0.00000    
      7960 IM1      36       IM1      LPN21    LPD     -0.474000       0.00000          -1   0.00000       0.00000    
      7961 IM1      37       IM1      C1       CD33G     2.39060       11.6110           0  -1.08100       1.00000    
      7962 IM1      37       IM1      DC1      DRUD     -2.55160      0.400000           0   0.00000       0.00000    
      7963 IM1      37       IM1      H1       HDA3A    0.940000E-01   1.00800           0   0.00000       0.00000    
      7964 IM1      37       IM1      H2       HDA3A    0.940000E-01   1.00800           0   0.00000       0.00000    
      7965 IM1      37       IM1      H3       HDA3A    0.940000E-01   1.00800           0   0.00000       0.00000    
      7966 IM1      37       IM1      N1       ND2R5A    2.67030       13.6070           0  -1.06300       1.30000    
      7967 IM1      37       IM1      DN1      DRUD     -2.53030      0.400000           0   0.00000       0.00000    
      7968 IM1      37       IM1      C2       CD2R5A    2.51190       11.6110           0  -1.37800       1.30000    
      7969 IM1      37       IM1      DC2      DRUD     -2.88090      0.400000           0   0.00000       0.00000    
      7970 IM1      37       IM1      H4       HDR5A    0.150000       1.00800           0   0.00000       0.00000    
      7971 IM1      37       IM1      C3       CD2R5A    3.06890       11.6110           0  -1.37800       1.30000    
      7972 IM1      37       IM1      DC3      DRUD     -2.88090      0.400000           0   0.00000       0.00000    
      7973 IM1      37       IM1      H5       HDR5A    0.530000E-01   1.00800           0   0.00000       0.00000    
      7974 IM1      37       IM1      C4       CD2R5B    2.40440       11.6110           0 -0.868000       1.30000    
      7975 IM1      37       IM1      DC4      DRUD     -2.28640      0.400000           0   0.00000       0.00000    
      7976 IM1      37       IM1      H6       HDR5B    0.730000E-01   1.00800           0   0.00000       0.00000    
      7977 IM1      37       IM1      N2       ND2R5B    2.24930       13.6070           0 -0.840000       1.00000    
      7978 IM1      37       IM1      DN2      DRUD     -2.24930      0.400000           0   0.00000       0.00000    
      7979 IM1      37       IM1      H7       DUMH      0.00000       1.00800           0   0.00000       0.00000    
      7980 IM1      37       IM1      LPN21    LPD     -0.474000       0.00000          -1   0.00000       0.00000    
      7981 IM1      38       IM1      C1       CD33G     2.39060       11.6110           0  -1.08100       1.00000    
      7982 IM1      38       IM1      DC1      DRUD     -2.55160      0.400000           0   0.00000       0.00000    
      7983 IM1      38       IM1      H1       HDA3A    0.940000E-01   1.00800           0   0.00000       0.00000    
      7984 IM1      38       IM1      H2       HDA3A    0.940000E-01   1.00800           0   0.00000       0.00000    
      7985 IM1      38       IM1      H3       HDA3A    0.940000E-01   1.00800           0   0.00000       0.00000    
      7986 IM1      38       IM1      N1       ND2R5A    2.67030       13.6070           0  -1.06300       1.30000    
      7987 IM1      38       IM1      DN1      DRUD     -2.53030      0.400000           0   0.00000       0.00000    
      7988 IM1      38       IM1      C2       CD2R5A    2.51190       11.6110           0  -1.37800       1.30000    
      7989 IM1      38       IM1      DC2      DRUD     -2.88090      0.400000           0   0.00000       0.00000    
      7990 IM1      38       IM1      H4       HDR5A    0.150000       1.00800           0   0.00000       0.00000    
      7991 IM1      38       IM1      C3       CD2R5A    3.06890       11.6110           0  -1.37800       1.30000    
      7992 IM1      38       IM1      DC3      DRUD     -2.88090      0.400000           0   0.00000       0.00000    
      7993 IM1      38       IM1      H5       HDR5A    0.530000E-01   1.00800           0   0.00000       0.00000    
      7994 IM1      38       IM1      C4       CD2R5B    2.40440       11.6110           0 -0.868000       1.30000    
      7995 IM1      38       IM1      DC4      DRUD     -2.28640      0.400000           0   0.00000       0.00000    
      7996 IM1      38       IM1      H6       HDR5B    0.730000E-01   1.00800           0   0.00000       0.00000    
      7997 IM1      38       IM1      N2       ND2R5B    2.24930       13.6070           0 -0.840000       1.00000    
      7998 IM1      38       IM1      DN2      DRUD     -2.24930      0.400000           0   0.00000       0.00000    
      7999 IM1      38       IM1      H7       DUMH      0.00000       1.00800           0   0.00000       0.00000    
      8000 IM1      38       IM1      LPN21    LPD     -0.474000       0.00000          -1   0.00000       0.00000    
      8001 IM1      39       IM1      C1       CD33G     2.39060       11.6110           0  -1.08100       1.00000    
      8002 IM1      39       IM1      DC1      DRUD     -2.55160      0.400000           0   0.00000       0.00000    
      8003 IM1      39       IM1      H1       HDA3A    0.940000E-01   1.00800           0   0.00000       0.00000    
      8004 IM1      39       IM1      H2       HDA3A    0.940000E-01   1.00800           0   0.00000       0.00000    
      8005 IM1      39       IM1      H3       HDA3A    0.940000E-01   1.00800           0   0.00000       0.00000    
      8006 IM1      39       IM1      N1       ND2R5A    2.67030       13.6070           0  -1.06300       1.30000    
      8007 IM1      39       IM1      DN1      DRUD     -2.53030      0.400000           0   0.00000       0.00000    
      8008 IM1      39       IM1      C2       CD2R5A    2.51190       11.6110           0  -1.37800       1.30000    
      8009 IM1      39       IM1      DC2      DRUD     -2.88090      0.400000           0   0.00000       0.00000    
      8010 IM1      39       IM1      H4       HDR5A    0.150000       1.00800           0   0.00000       0.00000    
      8011 IM1      39       IM1      C3       CD2R5A    3.06890       11.6110           0  -1.37800       1.30000    
      8012 IM1      39       IM1      DC3      DRUD     -2.88090      0.400000           0   0.00000       0.00000    
      8013 IM1      39       IM1      H5       HDR5A    0.530000E-01   1.00800           0   0.00000       0.00000    
      8014 IM1      39       IM1      C4       CD2R5B    2.40440       11.6110           0 -0.868000       1.30000    
      8015 IM1      39       IM1      DC4      DRUD     -2.28640      0.400000           0   0.00000       0.00000    
      8016 IM1      39       IM1      H6       HDR5B    0.730000E-01   1.00800           0   0.00000       0.00000    
      8017 IM1      39       IM1      N2       ND2R5B    2.24930       13.6070           0 -0.840000       1.00000    
      8018 IM1      39       IM1      DN2      DRUD     -2.24930      0.400000           0   0.00000       0.00000    
      8019 IM1      39       IM1      H7       DUMH      0.00000       1.00800           0   0.00000       0.00000    
      8020 IM1      39       IM1      LPN21    LPD     -0.474000       0.00000          -1   0.00000       0.00000    
      8021 IM1      40       IM1      C1       CD33G     2.39060       11.6110           0  -1.08100       1.00000    
      8022 IM1      40       IM1      DC1      DRUD     -2.55160      0.400000           0   0.00000       0.00000    
      8023 IM1      40       IM1      H1       HDA3A    0.940000E-01   1.00800           0   0.00000       0.00000    
      8024 IM1      40       IM1      H2       HDA3A    0.940000E-01   1.00800           0   0.00000       0.00000    
      8025 IM1      40       IM1      H3       HDA3A    0.940000E-01   1.00800           0   0.00000       0.00000    
      8026 IM1      40       IM1      N1       ND2R5A    2.67030       13.6070           0  -1.06300       1.30000    
      8027 IM1      40       IM1      DN1      DRUD     -2.53030      0.400000           0   0.00000       0.00000    
      8028 IM1      40       IM1      C2       CD2R5A    2.51190       11.6110           0  -1.37800       1.30000    
      8029 IM1      40       IM1      DC2      DRUD     -2.88090      0.400000           0   0.00000       0.00000    
      8030 IM1      40       IM1      H4       HDR5A    0.150000       1.00800           0   0.00000       0.00000    
      8031 IM1      40       IM1      C3       CD2R5A    3.06890       11.6110           0  -1.37800       1.30000    
      8032 IM1      40       IM1      DC3      DRUD     -2.88090      0.400000           0   0.00000       0.00000    
      8033 IM1      40       IM1      H5       HDR5A    0.530000E-01   1.00800           0   0.00000       0.00000    
      8034 IM1      40       IM1      C4       CD2R5B    2.40440       11.6110           0 -0.868000       1.30000    
      8035 IM1      40       IM1      DC4      DRUD     -2.28640      0.400000           0   0.00000       0.00000    
      8036 IM1      40       IM1      H6       HDR5B    0.730000E-01   1.00800           0   0.00000       0.00000    
      8037 IM1      40       IM1      N2       ND2R5B    2.24930       13.6070           0 -0.840000       1.00000    
      8038 IM1      40       IM1      DN2      DRUD     -2.24930      0.400000           0   0.00000       0.00000    
      8039 IM1      40       IM1      H7       DUMH      0.00000       1.00800           0   0.00000       0.00000    
      8040 IM1      40       IM1      LPN21    LPD     -0.474000       0.00000          -1   0.00000       0.00000    
      8041 IM1      41       IM1      C1       CD33G     2.39060       11.6110           0  -1.08100       1.00000    
      8042 IM1      41       IM1      DC1      DRUD     -2.55160      0.400000           0   0.00000       0.00000    
      8043 IM1      41       IM1      H1       HDA3A    0.940000E-01   1.00800           0   0.00000       0.00000    
      8044 IM1      41       IM1      H2       HDA3A    0.940000E-01   1.00800           0   0.00000       0.00000    
      8045 IM1      41       IM1      H3       HDA3A    0.940000E-01   1.00800           0   0.00000       0.00000    
      8046 IM1      41       IM1      N1       ND2R5A    2.67030       13.6070           0  -1.06300       1.30000    
      8047 IM1      41       IM1      DN1      DRUD     -2.53030      0.400000           0   0.00000       0.00000    
      8048 IM1      41       IM1      C2       CD2R5A    2.51190       11.6110           0  -1.37800       1.30000    
      8049 IM1      41       IM1      DC2      DRUD     -2.88090      0.400000           0   0.00000       0.00000    
      8050 IM1      41       IM1      H4       HDR5A    0.150000       1.00800           0   0.00000       0.00000    
      8051 IM1      41       IM1      C3       CD2R5A    3.06890       11.6110           0  -1.37800       1.30000    
      8052 IM1      41       IM1      DC3      DRUD     -2.88090      0.400000           0   0.00000       0.00000    
      8053 IM1      41       IM1      H5       HDR5A    0.530000E-01   1.00800           0   0.00000       0.00000    
      8054 IM1      41       IM1      C4       CD2R5B    2.40440       11.6110           0 -0.868000       1.30000    
      8055 IM1      41       IM1      DC4      DRUD     -2.28640      0.400000           0   0.00000       0.00000    
      8056 IM1      41       IM1      H6       HDR5B    0.730000E-01   1.00800           0   0.00000       0.00000    
      8057 IM1      41       IM1      N2       ND2R5B    2.24930       13.6070           0 -0.840000       1.00000    
      8058 IM1      41       IM1      DN2      DRUD     -2.24930      0.400000           0   0.00000       0.00000    
      8059 IM1      41       IM1      H7       DUMH      0.00000       1.00800           0   0.00000       0.00000    
      8060 IM1      41       IM1      LPN21    LPD     -0.474000       0.00000          -1   0.00000       0.00000    
      8061 IM1      42       IM1      C1       CD33G     2.39060       11.6110           0  -1.08100       1.00000    
      8062 IM1      42       IM1      DC1      DRUD     -2.55160      0.400000           0   0.00000       0.00000    
      8063 IM1      42       IM1      H1       HDA3A    0.940000E-01   1.00800           0   0.00000       0.00000    
      8064 IM1      42       IM1      H2       HDA3A    0.940000E-01   1.00800           0   0.00000       0.00000    
      8065 IM1      42       IM1      H3       HDA3A    0.940000E-01   1.00800           0   0.00000       0.00000    
      8066 IM1      42       IM1      N1       ND2R5A    2.67030       13.6070           0  -1.06300       1.30000    
      8067 IM1      42       IM1      DN1      DRUD     -2.53030      0.400000           0   0.00000       0.00000    
      8068 IM1      42       IM1      C2       CD2R5A    2.51190       11.6110           0  -1.37800       1.30000    
      8069 IM1      42       IM1      DC2      DRUD     -2.88090      0.400000           0   0.00000       0.00000    
      8070 IM1      42       IM1      H4       HDR5A    0.150000       1.00800           0   0.00000       0.00000    
      8071 IM1      42       IM1      C3       CD2R5A    3.06890       11.6110           0  -1.37800       1.30000    
      8072 IM1      42       IM1      DC3      DRUD     -2.88090      0.400000           0   0.00000       0.00000    
      8073 IM1      42       IM1      H5       HDR5A    0.530000E-01   1.00800           0   0.00000       0.00000    
      8074 IM1      42       IM1      C4       CD2R5B    2.40440       11.6110           0 -0.868000       1.30000    
      8075 IM1      42       IM1      DC4      DRUD     -2.28640      0.400000           0   0.00000       0.00000    
      8076 IM1      42       IM1      H6       HDR5B    0.730000E-01   1.00800           0   0.00000       0.00000    
      8077 IM1      42       IM1      N2       ND2R5B    2.24930       13.6070           0 -0.840000       1.00000    
      8078 IM1      42       IM1      DN2      DRUD     -2.24930      0.400000           0   0.00000       0.00000    
      8079 IM1      42       IM1      H7       DUMH      0.00000       1.00800           0   0.00000       0.00000    
      8080 IM1      42       IM1      LPN21    LPD     -0.474000       0.00000          -1   0.00000       0.00000    
      8081 IM1      43       IM1      C1       CD33G     2.39060       11.6110           0  -1.08100       1.00000    
      8082 IM1      43       IM1      DC1      DRUD     -2.55160      0.400000           0   0.00000       0.00000    
      8083 IM1      43       IM1      H1       HDA3A    0.940000E-01   1.00800           0   0.00000       0.00000    
      8084 IM1      43       IM1      H2       HDA3A    0.940000E-01   1.00800           0   0.00000       0.00000    
      8085 IM1      43       IM1      H3       HDA3A    0.940000E-01   1.00800           0   0.00000       0.00000    
      8086 IM1      43       IM1      N1       ND2R5A    2.67030       13.6070           0  -1.06300       1.30000    
      8087 IM1      43       IM1      DN1      DRUD     -2.53030      0.400000           0   0.00000       0.00000    
      8088 IM1      43       IM1      C2       CD2R5A    2.51190       11.6110           0  -1.37800       1.30000    
      8089 IM1      43       IM1      DC2      DRUD     -2.88090      0.400000           0   0.00000       0.00000    
      8090 IM1      43       IM1      H4       HDR5A    0.150000       1.00800           0   0.00000       0.00000    
      8091 IM1      43       IM1      C3       CD2R5A    3.06890       11.6110           0  -1.37800       1.30000    
      8092 IM1      43       IM1      DC3      DRUD     -2.88090      0.400000           0   0.00000       0.00000    
      8093 IM1      43       IM1      H5       HDR5A    0.530000E-01   1.00800           0   0.00000       0.00000    
      8094 IM1      43       IM1      C4       CD2R5B    2.40440       11.6110           0 -0.868000       1.30000    
      8095 IM1      43       IM1      DC4      DRUD     -2.28640      0.400000           0   0.00000       0.00000    
      8096 IM1      43       IM1      H6       HDR5B    0.730000E-01   1.00800           0   0.00000       0.00000    
      8097 IM1      43       IM1      N2       ND2R5B    2.24930       13.6070           0 -0.840000       1.00000    
      8098 IM1      43       IM1      DN2      DRUD     -2.24930      0.400000           0   0.00000       0.00000    
      8099 IM1      43       IM1      H7       DUMH      0.00000       1.00800           0   0.00000       0.00000    
      8100 IM1      43       IM1      LPN21    LPD     -0.474000       0.00000          -1   0.00000       0.00000    
      8101 IM1      44       IM1      C1       CD33G     2.39060       11.6110           0  -1.08100       1.00000    
      8102 IM1      44       IM1      DC1      DRUD     -2.55160      0.400000           0   0.00000       0.00000    
      8103 IM1      44       IM1      H1       HDA3A    0.940000E-01   1.00800           0   0.00000       0.00000    
      8104 IM1      44       IM1      H2       HDA3A    0.940000E-01   1.00800           0   0.00000       0.00000    
      8105 IM1      44       IM1      H3       HDA3A    0.940000E-01   1.00800           0   0.00000       0.00000    
      8106 IM1      44       IM1      N1       ND2R5A    2.67030       13.6070           0  -1.06300       1.30000    
      8107 IM1      44       IM1      DN1      DRUD     -2.53030      0.400000           0   0.00000       0.00000    
      8108 IM1      44       IM1      C2       CD2R5A    2.51190       11.6110           0  -1.37800       1.30000    
      8109 IM1      44       IM1      DC2      DRUD     -2.88090      0.400000           0   0.00000       0.00000    
      8110 IM1      44       IM1      H4       HDR5A    0.150000       1.00800           0   0.00000       0.00000    
      8111 IM1      44       IM1      C3       CD2R5A    3.06890       11.6110           0  -1.37800       1.30000    
      8112 IM1      44       IM1      DC3      DRUD     -2.88090      0.400000           0   0.00000       0.00000    
      8113 IM1      44       IM1      H5       HDR5A    0.530000E-01   1.00800           0   0.00000       0.00000    
      8114 IM1      44       IM1      C4       CD2R5B    2.40440       11.6110           0 -0.868000       1.30000    
      8115 IM1      44       IM1      DC4      DRUD     -2.28640      0.400000           0   0.00000       0.00000    
      8116 IM1      44       IM1      H6       HDR5B    0.730000E-01   1.00800           0   0.00000       0.00000    
      8117 IM1      44       IM1      N2       ND2R5B    2.24930       13.6070           0 -0.840000       1.00000    
      8118 IM1      44       IM1      DN2      DRUD     -2.24930      0.400000           0   0.00000       0.00000    
      8119 IM1      44       IM1      H7       DUMH      0.00000       1.00800           0   0.00000       0.00000    
      8120 IM1      44       IM1      LPN21    LPD     -0.474000       0.00000          -1   0.00000       0.00000    
      8121 IM1      45       IM1      C1       CD33G     2.39060       11.6110           0  -1.08100       1.00000    
      8122 IM1      45       IM1      DC1      DRUD     -2.55160      0.400000           0   0.00000       0.00000    
      8123 IM1      45       IM1      H1       HDA3A    0.940000E-01   1.00800           0   0.00000       0.00000    
      8124 IM1      45       IM1      H2       HDA3A    0.940000E-01   1.00800           0   0.00000       0.00000    
      8125 IM1      45       IM1      H3       HDA3A    0.940000E-01   1.00800           0   0.00000       0.00000    
      8126 IM1      45       IM1      N1       ND2R5A    2.67030       13.6070           0  -1.06300       1.30000    
      8127 IM1      45       IM1      DN1      DRUD     -2.53030      0.400000           0   0.00000       0.00000    
      8128 IM1      45       IM1      C2       CD2R5A    2.51190       11.6110           0  -1.37800       1.30000    
      8129 IM1      45       IM1      DC2      DRUD     -2.88090      0.400000           0   0.00000       0.00000    
      8130 IM1      45       IM1      H4       HDR5A    0.150000       1.00800           0   0.00000       0.00000    
      8131 IM1      45       IM1      C3       CD2R5A    3.06890       11.6110           0  -1.37800       1.30000    
      8132 IM1      45       IM1      DC3      DRUD     -2.88090      0.400000           0   0.00000       0.00000    
      8133 IM1      45       IM1      H5       HDR5A    0.530000E-01   1.00800           0   0.00000       0.00000    
      8134 IM1      45       IM1      C4       CD2R5B    2.40440       11.6110           0 -0.868000       1.30000    
      8135 IM1      45       IM1      DC4      DRUD     -2.28640      0.400000           0   0.00000       0.00000    
      8136 IM1      45       IM1      H6       HDR5B    0.730000E-01   1.00800           0   0.00000       0.00000    
      8137 IM1      45       IM1      N2       ND2R5B    2.24930       13.6070           0 -0.840000       1.00000    
      8138 IM1      45       IM1      DN2      DRUD     -2.24930      0.400000           0   0.00000       0.00000    
      8139 IM1      45       IM1      H7       DUMH      0.00000       1.00800           0   0.00000       0.00000    
      8140 IM1      45       IM1      LPN21    LPD     -0.474000       0.00000          -1   0.00000       0.00000    
      8141 IM1      46       IM1      C1       CD33G     2.39060       11.6110           0  -1.08100       1.00000    
      8142 IM1      46       IM1      DC1      DRUD     -2.55160      0.400000           0   0.00000       0.00000    
      8143 IM1      46       IM1      H1       HDA3A    0.940000E-01   1.00800           0   0.00000       0.00000    
      8144 IM1      46       IM1      H2       HDA3A    0.940000E-01   1.00800           0   0.00000       0.00000    
      8145 IM1      46       IM1      H3       HDA3A    0.940000E-01   1.00800           0   0.00000       0.00000    
      8146 IM1      46       IM1      N1       ND2R5A    2.67030       13.6070           0  -1.06300       1.30000    
      8147 IM1      46       IM1      DN1      DRUD     -2.53030      0.400000           0   0.00000       0.00000    
      8148 IM1      46       IM1      C2       CD2R5A    2.51190       11.6110           0  -1.37800       1.30000    
      8149 IM1      46       IM1      DC2      DRUD     -2.88090      0.400000           0   0.00000       0.00000    
      8150 IM1      46       IM1      H4       HDR5A    0.150000       1.00800           0   0.00000       0.00000    
      8151 IM1      46       IM1      C3       CD2R5A    3.06890       11.6110           0  -1.37800       1.30000    
      8152 IM1      46       IM1      DC3      DRUD     -2.88090      0.400000           0   0.00000       0.00000    
      8153 IM1      46       IM1      H5       HDR5A    0.530000E-01   1.00800           0   0.00000       0.00000    
      8154 IM1      46       IM1      C4       CD2R5B    2.40440       11.6110           0 -0.868000       1.30000    
      8155 IM1      46       IM1      DC4      DRUD     -2.28640      0.400000           0   0.00000       0.00000    
      8156 IM1      46       IM1      H6       HDR5B    0.730000E-01   1.00800           0   0.00000       0.00000    
      8157 IM1      46       IM1      N2       ND2R5B    2.24930       13.6070           0 -0.840000       1.00000    
      8158 IM1      46       IM1      DN2      DRUD     -2.24930      0.400000           0   0.00000       0.00000    
      8159 IM1      46       IM1      H7       DUMH      0.00000       1.00800           0   0.00000       0.00000    
      8160 IM1      46       IM1      LPN21    LPD     -0.474000       0.00000          -1   0.00000       0.00000    
      8161 IM1      47       IM1      C1       CD33G     2.39060       11.6110           0  -1.08100       1.00000    
      8162 IM1      47       IM1      DC1      DRUD     -2.55160      0.400000           0   0.00000       0.00000    
      8163 IM1      47       IM1      H1       HDA3A    0.940000E-01   1.00800           0   0.00000       0.00000    
      8164 IM1      47       IM1      H2       HDA3A    0.940000E-01   1.00800           0   0.00000       0.00000    
      8165 IM1      47       IM1      H3       HDA3A    0.940000E-01   1.00800           0   0.00000       0.00000    
      8166 IM1      47       IM1      N1       ND2R5A    2.67030       13.6070           0  -1.06300       1.30000    
      8167 IM1      47       IM1      DN1      DRUD     -2.53030      0.400000           0   0.00000       0.00000    
      8168 IM1      47       IM1      C2       CD2R5A    2.51190       11.6110           0  -1.37800       1.30000    
      8169 IM1      47       IM1      DC2      DRUD     -2.88090      0.400000           0   0.00000       0.00000    
      8170 IM1      47       IM1      H4       HDR5A    0.150000       1.00800           0   0.00000       0.00000    
      8171 IM1      47       IM1      C3       CD2R5A    3.06890       11.6110           0  -1.37800       1.30000    
      8172 IM1      47       IM1      DC3      DRUD     -2.88090      0.400000           0   0.00000       0.00000    
      8173 IM1      47       IM1      H5       HDR5A    0.530000E-01   1.00800           0   0.00000       0.00000    
      8174 IM1      47       IM1      C4       CD2R5B    2.40440       11.6110           0 -0.868000       1.30000    
      8175 IM1      47       IM1      DC4      DRUD     -2.28640      0.400000           0   0.00000       0.00000    
      8176 IM1      47       IM1      H6       HDR5B    0.730000E-01   1.00800           0   0.00000       0.00000    
      8177 IM1      47       IM1      N2       ND2R5B    2.24930       13.6070           0 -0.840000       1.00000    
      8178 IM1      47       IM1      DN2      DRUD     -2.24930      0.400000           0   0.00000       0.00000    
      8179 IM1      47       IM1      H7       DUMH      0.00000       1.00800           0   0.00000       0.00000    
      8180 IM1      47       IM1      LPN21    LPD     -0.474000       0.00000          -1   0.00000       0.00000    
      8181 IM1      48       IM1      C1       CD33G     2.39060       11.6110           0  -1.08100       1.00000    
      8182 IM1      48       IM1      DC1      DRUD     -2.55160      0.400000           0   0.00000       0.00000    
      8183 IM1      48       IM1      H1       HDA3A    0.940000E-01   1.00800           0   0.00000       0.00000    
      8184 IM1      48       IM1      H2       HDA3A    0.940000E-01   1.00800           0   0.00000       0.00000    
      8185 IM1      48       IM1      H3       HDA3A    0.940000E-01   1.00800           0   0.00000       0.00000    
      8186 IM1      48       IM1      N1       ND2R5A    2.67030       13.6070           0  -1.06300       1.30000    
      8187 IM1      48       IM1      DN1      DRUD     -2.53030      0.400000           0   0.00000       0.00000    
      8188 IM1      48       IM1      C2       CD2R5A    2.51190       11.6110           0  -1.37800       1.30000    
      8189 IM1      48       IM1      DC2      DRUD     -2.88090      0.400000           0   0.00000       0.00000    
      8190 IM1      48       IM1      H4       HDR5A    0.150000       1.00800           0   0.00000       0.00000    
      8191 IM1      48       IM1      C3       CD2R5A    3.06890       11.6110           0  -1.37800       1.30000    
      8192 IM1      48       IM1      DC3      DRUD     -2.88090      0.400000           0   0.00000       0.00000    
      8193 IM1      48       IM1      H5       HDR5A    0.530000E-01   1.00800           0   0.00000       0.00000    
      8194 IM1      48       IM1      C4       CD2R5B    2.40440       11.6110           0 -0.868000       1.30000    
      8195 IM1      48       IM1      DC4      DRUD     -2.28640      0.400000           0   0.00000       0.00000    
      8196 IM1      48       IM1      H6       HDR5B    0.730000E-01   1.00800           0   0.00000       0.00000    
      8197 IM1      48       IM1      N2       ND2R5B    2.24930       13.6070           0 -0.840000       1.00000    
      8198 IM1      48       IM1      DN2      DRUD     -2.24930      0.400000           0   0.00000       0.00000    
      8199 IM1      48       IM1      H7       DUMH      0.00000       1.00800           0   0.00000       0.00000    
      8200 IM1      48       IM1      LPN21    LPD     -0.474000       0.00000          -1   0.00000       0.00000    
      8201 IM1      49       IM1      C1       CD33G     2.39060       11.6110           0  -1.08100       1.00000    
      8202 IM1      49       IM1      DC1      DRUD     -2.55160      0.400000           0   0.00000       0.00000    
      8203 IM1      49       IM1      H1       HDA3A    0.940000E-01   1.00800           0   0.00000       0.00000    
      8204 IM1      49       IM1      H2       HDA3A    0.940000E-01   1.00800           0   0.00000       0.00000    
      8205 IM1      49       IM1      H3       HDA3A    0.940000E-01   1.00800           0   0.00000       0.00000    
      8206 IM1      49       IM1      N1       ND2R5A    2.67030       13.6070           0  -1.06300       1.30000    
      8207 IM1      49       IM1      DN1      DRUD     -2.53030      0.400000           0   0.00000       0.00000    
      8208 IM1      49       IM1      C2       CD2R5A    2.51190       11.6110           0  -1.37800       1.30000    
      8209 IM1      49       IM1      DC2      DRUD     -2.88090      0.400000           0   0.00000       0.00000    
      8210 IM1      49       IM1      H4       HDR5A    0.150000       1.00800           0   0.00000       0.00000    
      8211 IM1      49       IM1      C3       CD2R5A    3.06890       11.6110           0  -1.37800       1.30000    
      8212 IM1      49       IM1      DC3      DRUD     -2.88090      0.400000           0   0.00000       0.00000    
      8213 IM1      49       IM1      H5       HDR5A    0.530000E-01   1.00800           0   0.00000       0.00000    
      8214 IM1      49       IM1      C4       CD2R5B    2.40440       11.6110           0 -0.868000       1.30000    
      8215 IM1      49       IM1      DC4      DRUD     -2.28640      0.400000           0   0.00000       0.00000    
      8216 IM1      49       IM1      H6       HDR5B    0.730000E-01   1.00800           0   0.00000       0.00000    
      8217 IM1      49       IM1      N2       ND2R5B    2.24930       13.6070           0 -0.840000       1.00000    
      8218 IM1      49       IM1      DN2      DRUD     -2.24930      0.400000           0   0.00000       0.00000    
      8219 IM1      49       IM1      H7       DUMH      0.00000       1.00800           0   0.00000       0.00000    
      8220 IM1      49       IM1      LPN21    LPD     -0.474000       0.00000          -1   0.00000       0.00000    
      8221 IM1      50       IM1      C1       CD33G     2.39060       11.6110           0  -1.08100       1.00000    
      8222 IM1      50       IM1      DC1      DRUD     -2.55160      0.400000           0   0.00000       0.00000    
      8223 IM1      50       IM1      H1       HDA3A    0.940000E-01   1.00800           0   0.00000       0.00000    
      8224 IM1      50       IM1      H2       HDA3A    0.940000E-01   1.00800           0   0.00000       0.00000    
      8225 IM1      50       IM1      H3       HDA3A    0.940000E-01   1.00800           0   0.00000       0.00000    
      8226 IM1      50       IM1      N1       ND2R5A    2.67030       13.6070           0  -1.06300       1.30000    
      8227 IM1      50       IM1      DN1      DRUD     -2.53030      0.400000           0   0.00000       0.00000    
      8228 IM1      50       IM1      C2       CD2R5A    2.51190       11.6110           0  -1.37800       1.30000    
      8229 IM1      50       IM1      DC2      DRUD     -2.88090      0.400000           0   0.00000       0.00000    
      8230 IM1      50       IM1      H4       HDR5A    0.150000       1.00800           0   0.00000       0.00000    
      8231 IM1      50       IM1      C3       CD2R5A    3.06890       11.6110           0  -1.37800       1.30000    
      8232 IM1      50       IM1      DC3      DRUD     -2.88090      0.400000           0   0.00000       0.00000    
      8233 IM1      50       IM1      H5       HDR5A    0.530000E-01   1.00800           0   0.00000       0.00000    
      8234 IM1      50       IM1      C4       CD2R5B    2.40440       11.6110           0 -0.868000       1.30000    
      8235 IM1      50       IM1      DC4      DRUD     -2.28640      0.400000           0   0.00000       0.00000    
      8236 IM1      50       IM1      H6       HDR5B    0.730000E-01   1.00800           0   0.00000       0.00000    
      8237 IM1      50       IM1      N2       ND2R5B    2.24930       13.6070           0 -0.840000       1.00000    
      8238 IM1      50       IM1      DN2      DRUD     -2.24930      0.400000           0   0.00000       0.00000    
      8239 IM1      50       IM1      H7       DUMH      0.00000       1.00800           0   0.00000       0.00000    
      8240 IM1      50       IM1      LPN21    LPD     -0.474000       0.00000          -1   0.00000       0.00000    
      8241 IM1      51       IM1      C1       CD33G     2.39060       11.6110           0  -1.08100       1.00000    
      8242 IM1      51       IM1      DC1      DRUD     -2.55160      0.400000           0   0.00000       0.00000    
      8243 IM1      51       IM1      H1       HDA3A    0.940000E-01   1.00800           0   0.00000       0.00000    
      8244 IM1      51       IM1      H2       HDA3A    0.940000E-01   1.00800           0   0.00000       0.00000    
      8245 IM1      51       IM1      H3       HDA3A    0.940000E-01   1.00800           0   0.00000       0.00000    
      8246 IM1      51       IM1      N1       ND2R5A    2.67030       13.6070           0  -1.06300       1.30000    
      8247 IM1      51       IM1      DN1      DRUD     -2.53030      0.400000           0   0.00000       0.00000    
      8248 IM1      51       IM1      C2       CD2R5A    2.51190       11.6110           0  -1.37800       1.30000    
      8249 IM1      51       IM1      DC2      DRUD     -2.88090      0.400000           0   0.00000       0.00000    
      8250 IM1      51       IM1      H4       HDR5A    0.150000       1.00800           0   0.00000       0.00000    
      8251 IM1      51       IM1      C3       CD2R5A    3.06890       11.6110           0  -1.37800       1.30000    
      8252 IM1      51       IM1      DC3      DRUD     -2.88090      0.400000           0   0.00000       0.00000    
      8253 IM1      51       IM1      H5       HDR5A    0.530000E-01   1.00800           0   0.00000       0.00000    
      8254 IM1      51       IM1      C4       CD2R5B    2.40440       11.6110           0 -0.868000       1.30000    
      8255 IM1      51       IM1      DC4      DRUD     -2.28640      0.400000           0   0.00000       0.00000    
      8256 IM1      51       IM1      H6       HDR5B    0.730000E-01   1.00800           0   0.00000       0.00000    
      8257 IM1      51       IM1      N2       ND2R5B    2.24930       13.6070           0 -0.840000       1.00000    
      8258 IM1      51       IM1      DN2      DRUD     -2.24930      0.400000           0   0.00000       0.00000    
      8259 IM1      51       IM1      H7       DUMH      0.00000       1.00800           0   0.00000       0.00000    
      8260 IM1      51       IM1      LPN21    LPD     -0.474000       0.00000          -1   0.00000       0.00000    
      8261 IM1      52       IM1      C1       CD33G     2.39060       11.6110           0  -1.08100       1.00000    
      8262 IM1      52       IM1      DC1      DRUD     -2.55160      0.400000           0   0.00000       0.00000    
      8263 IM1      52       IM1      H1       HDA3A    0.940000E-01   1.00800           0   0.00000       0.00000    
      8264 IM1      52       IM1      H2       HDA3A    0.940000E-01   1.00800           0   0.00000       0.00000    
      8265 IM1      52       IM1      H3       HDA3A    0.940000E-01   1.00800           0   0.00000       0.00000    
      8266 IM1      52       IM1      N1       ND2R5A    2.67030       13.6070           0  -1.06300       1.30000    
      8267 IM1      52       IM1      DN1      DRUD     -2.53030      0.400000           0   0.00000       0.00000    
      8268 IM1      52       IM1      C2       CD2R5A    2.51190       11.6110           0  -1.37800       1.30000    
      8269 IM1      52       IM1      DC2      DRUD     -2.88090      0.400000           0   0.00000       0.00000    
      8270 IM1      52       IM1      H4       HDR5A    0.150000       1.00800           0   0.00000       0.00000    
      8271 IM1      52       IM1      C3       CD2R5A    3.06890       11.6110           0  -1.37800       1.30000    
      8272 IM1      52       IM1      DC3      DRUD     -2.88090      0.400000           0   0.00000       0.00000    
      8273 IM1      52       IM1      H5       HDR5A    0.530000E-01   1.00800           0   0.00000       0.00000    
      8274 IM1      52       IM1      C4       CD2R5B    2.40440       11.6110           0 -0.868000       1.30000    
      8275 IM1      52       IM1      DC4      DRUD     -2.28640      0.400000           0   0.00000       0.00000    
      8276 IM1      52       IM1      H6       HDR5B    0.730000E-01   1.00800           0   0.00000       0.00000    
      8277 IM1      52       IM1      N2       ND2R5B    2.24930       13.6070           0 -0.840000       1.00000    
      8278 IM1      52       IM1      DN2      DRUD     -2.24930      0.400000           0   0.00000       0.00000    
      8279 IM1      52       IM1      H7       DUMH      0.00000       1.00800           0   0.00000       0.00000    
      8280 IM1      52       IM1      LPN21    LPD     -0.474000       0.00000          -1   0.00000       0.00000    
      8281 IM1      53       IM1      C1       CD33G     2.39060       11.6110           0  -1.08100       1.00000    
      8282 IM1      53       IM1      DC1      DRUD     -2.55160      0.400000           0   0.00000       0.00000    
      8283 IM1      53       IM1      H1       HDA3A    0.940000E-01   1.00800           0   0.00000       0.00000    
      8284 IM1      53       IM1      H2       HDA3A    0.940000E-01   1.00800           0   0.00000       0.00000    
      8285 IM1      53       IM1      H3       HDA3A    0.940000E-01   1.00800           0   0.00000       0.00000    
      8286 IM1      53       IM1      N1       ND2R5A    2.67030       13.6070           0  -1.06300       1.30000    
      8287 IM1      53       IM1      DN1      DRUD     -2.53030      0.400000           0   0.00000       0.00000    
      8288 IM1      53       IM1      C2       CD2R5A    2.51190       11.6110           0  -1.37800       1.30000    
      8289 IM1      53       IM1      DC2      DRUD     -2.88090      0.400000           0   0.00000       0.00000    
      8290 IM1      53       IM1      H4       HDR5A    0.150000       1.00800           0   0.00000       0.00000    
      8291 IM1      53       IM1      C3       CD2R5A    3.06890       11.6110           0  -1.37800       1.30000    
      8292 IM1      53       IM1      DC3      DRUD     -2.88090      0.400000           0   0.00000       0.00000    
      8293 IM1      53       IM1      H5       HDR5A    0.530000E-01   1.00800           0   0.00000       0.00000    
      8294 IM1      53       IM1      C4       CD2R5B    2.40440       11.6110           0 -0.868000       1.30000    
      8295 IM1      53       IM1      DC4      DRUD     -2.28640      0.400000           0   0.00000       0.00000    
      8296 IM1      53       IM1      H6       HDR5B    0.730000E-01   1.00800           0   0.00000       0.00000    
      8297 IM1      53       IM1      N2       ND2R5B    2.24930       13.6070           0 -0.840000       1.00000    
      8298 IM1      53       IM1      DN2      DRUD     -2.24930      0.400000           0   0.00000       0.00000    
      8299 IM1      53       IM1      H7       DUMH      0.00000       1.00800           0   0.00000       0.00000    
      8300 IM1      53       IM1      LPN21    LPD     -0.474000       0.00000          -1   0.00000       0.00000    
      8301 IM1      54       IM1      C1       CD33G     2.39060       11.6110           0  -1.08100       1.00000    
      8302 IM1      54       IM1      DC1      DRUD     -2.55160      0.400000           0   0.00000       0.00000    
      8303 IM1      54       IM1      H1       HDA3A    0.940000E-01   1.00800           0   0.00000       0.00000    
      8304 IM1      54       IM1      H2       HDA3A    0.940000E-01   1.00800           0   0.00000       0.00000    
      8305 IM1      54       IM1      H3       HDA3A    0.940000E-01   1.00800           0   0.00000       0.00000    
      8306 IM1      54       IM1      N1       ND2R5A    2.67030       13.6070           0  -1.06300       1.30000    
      8307 IM1      54       IM1      DN1      DRUD     -2.53030      0.400000           0   0.00000       0.00000    
      8308 IM1      54       IM1      C2       CD2R5A    2.51190       11.6110           0  -1.37800       1.30000    
      8309 IM1      54       IM1      DC2      DRUD     -2.88090      0.400000           0   0.00000       0.00000    
      8310 IM1      54       IM1      H4       HDR5A    0.150000       1.00800           0   0.00000       0.00000    
      8311 IM1      54       IM1      C3       CD2R5A    3.06890       11.6110           0  -1.37800       1.30000    
      8312 IM1      54       IM1      DC3      DRUD     -2.88090      0.400000           0   0.00000       0.00000    
      8313 IM1      54       IM1      H5       HDR5A    0.530000E-01   1.00800           0   0.00000       0.00000    
      8314 IM1      54       IM1      C4       CD2R5B    2.40440       11.6110           0 -0.868000       1.30000    
      8315 IM1      54       IM1      DC4      DRUD     -2.28640      0.400000           0   0.00000       0.00000    
      8316 IM1      54       IM1      H6       HDR5B    0.730000E-01   1.00800           0   0.00000       0.00000    
      8317 IM1      54       IM1      N2       ND2R5B    2.24930       13.6070           0 -0.840000       1.00000    
      8318 IM1      54       IM1      DN2      DRUD     -2.24930      0.400000           0   0.00000       0.00000    
      8319 IM1      54       IM1      H7       DUMH      0.00000       1.00800           0   0.00000       0.00000    
      8320 IM1      54       IM1      LPN21    LPD     -0.474000       0.00000          -1   0.00000       0.00000    
      8321 IM1      55       IM1      C1       CD33G     2.39060       11.6110           0  -1.08100       1.00000    
      8322 IM1      55       IM1      DC1      DRUD     -2.55160      0.400000           0   0.00000       0.00000    
      8323 IM1      55       IM1      H1       HDA3A    0.940000E-01   1.00800           0   0.00000       0.00000    
      8324 IM1      55       IM1      H2       HDA3A    0.940000E-01   1.00800           0   0.00000       0.00000    
      8325 IM1      55       IM1      H3       HDA3A    0.940000E-01   1.00800           0   0.00000       0.00000    
      8326 IM1      55       IM1      N1       ND2R5A    2.67030       13.6070           0  -1.06300       1.30000    
      8327 IM1      55       IM1      DN1      DRUD     -2.53030      0.400000           0   0.00000       0.00000    
      8328 IM1      55       IM1      C2       CD2R5A    2.51190       11.6110           0  -1.37800       1.30000    
      8329 IM1      55       IM1      DC2      DRUD     -2.88090      0.400000           0   0.00000       0.00000    
      8330 IM1      55       IM1      H4       HDR5A    0.150000       1.00800           0   0.00000       0.00000    
      8331 IM1      55       IM1      C3       CD2R5A    3.06890       11.6110           0  -1.37800       1.30000    
      8332 IM1      55       IM1      DC3      DRUD     -2.88090      0.400000           0   0.00000       0.00000    
      8333 IM1      55       IM1      H5       HDR5A    0.530000E-01   1.00800           0   0.00000       0.00000    
      8334 IM1      55       IM1      C4       CD2R5B    2.40440       11.6110           0 -0.868000       1.30000    
      8335 IM1      55       IM1      DC4      DRUD     -2.28640      0.400000           0   0.00000       0.00000    
      8336 IM1      55       IM1      H6       HDR5B    0.730000E-01   1.00800           0   0.00000       0.00000    
      8337 IM1      55       IM1      N2       ND2R5B    2.24930       13.6070           0 -0.840000       1.00000    
      8338 IM1      55       IM1      DN2      DRUD     -2.24930      0.400000           0   0.00000       0.00000    
      8339 IM1      55       IM1      H7       DUMH      0.00000       1.00800           0   0.00000       0.00000    
      8340 IM1      55       IM1      LPN21    LPD     -0.474000       0.00000          -1   0.00000       0.00000    
      8341 IM1      56       IM1      C1       CD33G     2.39060       11.6110           0  -1.08100       1.00000    
      8342 IM1      56       IM1      DC1      DRUD     -2.55160      0.400000           0   0.00000       0.00000    
      8343 IM1      56       IM1      H1       HDA3A    0.940000E-01   1.00800           0   0.00000       0.00000    
      8344 IM1      56       IM1      H2       HDA3A    0.940000E-01   1.00800           0   0.00000       0.00000    
      8345 IM1      56       IM1      H3       HDA3A    0.940000E-01   1.00800           0   0.00000       0.00000    
      8346 IM1      56       IM1      N1       ND2R5A    2.67030       13.6070           0  -1.06300       1.30000    
      8347 IM1      56       IM1      DN1      DRUD     -2.53030      0.400000           0   0.00000       0.00000    
      8348 IM1      56       IM1      C2       CD2R5A    2.51190       11.6110           0  -1.37800       1.30000    
      8349 IM1      56       IM1      DC2      DRUD     -2.88090      0.400000           0   0.00000       0.00000    
      8350 IM1      56       IM1      H4       HDR5A    0.150000       1.00800           0   0.00000       0.00000    
      8351 IM1      56       IM1      C3       CD2R5A    3.06890       11.6110           0  -1.37800       1.30000    
      8352 IM1      56       IM1      DC3      DRUD     -2.88090      0.400000           0   0.00000       0.00000    
      8353 IM1      56       IM1      H5       HDR5A    0.530000E-01   1.00800           0   0.00000       0.00000    
      8354 IM1      56       IM1      C4       CD2R5B    2.40440       11.6110           0 -0.868000       1.30000    
      8355 IM1      56       IM1      DC4      DRUD     -2.28640      0.400000           0   0.00000       0.00000    
      8356 IM1      56       IM1      H6       HDR5B    0.730000E-01   1.00800           0   0.00000       0.00000    
      8357 IM1      56       IM1      N2       ND2R5B    2.24930       13.6070           0 -0.840000       1.00000    
      8358 IM1      56       IM1      DN2      DRUD     -2.24930      0.400000           0   0.00000       0.00000    
      8359 IM1      56       IM1      H7       DUMH      0.00000       1.00800           0   0.00000       0.00000    
      8360 IM1      56       IM1      LPN21    LPD     -0.474000       0.00000          -1   0.00000       0.00000    
      8361 IM1      57       IM1      C1       CD33G     2.39060       11.6110           0  -1.08100       1.00000    
      8362 IM1      57       IM1      DC1      DRUD     -2.55160      0.400000           0   0.00000       0.00000    
      8363 IM1      57       IM1      H1       HDA3A    0.940000E-01   1.00800           0   0.00000       0.00000    
      8364 IM1      57       IM1      H2       HDA3A    0.940000E-01   1.00800           0   0.00000       0.00000    
      8365 IM1      57       IM1      H3       HDA3A    0.940000E-01   1.00800           0   0.00000       0.00000    
      8366 IM1      57       IM1      N1       ND2R5A    2.67030       13.6070           0  -1.06300       1.30000    
      8367 IM1      57       IM1      DN1      DRUD     -2.53030      0.400000           0   0.00000       0.00000    
      8368 IM1      57       IM1      C2       CD2R5A    2.51190       11.6110           0  -1.37800       1.30000    
      8369 IM1      57       IM1      DC2      DRUD     -2.88090      0.400000           0   0.00000       0.00000    
      8370 IM1      57       IM1      H4       HDR5A    0.150000       1.00800           0   0.00000       0.00000    
      8371 IM1      57       IM1      C3       CD2R5A    3.06890       11.6110           0  -1.37800       1.30000    
      8372 IM1      57       IM1      DC3      DRUD     -2.88090      0.400000           0   0.00000       0.00000    
      8373 IM1      57       IM1      H5       HDR5A    0.530000E-01   1.00800           0   0.00000       0.00000    
      8374 IM1      57       IM1      C4       CD2R5B    2.40440       11.6110           0 -0.868000       1.30000    
      8375 IM1      57       IM1      DC4      DRUD     -2.28640      0.400000           0   0.00000       0.00000    
      8376 IM1      57       IM1      H6       HDR5B    0.730000E-01   1.00800           0   0.00000       0.00000    
      8377 IM1      57       IM1      N2       ND2R5B    2.24930       13.6070           0 -0.840000       1.00000    
      8378 IM1      57       IM1      DN2      DRUD     -2.24930      0.400000           0   0.00000       0.00000    
      8379 IM1      57       IM1      H7       DUMH      0.00000       1.00800           0   0.00000       0.00000    
      8380 IM1      57       IM1      LPN21    LPD     -0.474000       0.00000          -1   0.00000       0.00000    
      8381 IM1      58       IM1      C1       CD33G     2.39060       11.6110           0  -1.08100       1.00000    
      8382 IM1      58       IM1      DC1      DRUD     -2.55160      0.400000           0   0.00000       0.00000    
      8383 IM1      58       IM1      H1       HDA3A    0.940000E-01   1.00800           0   0.00000       0.00000    
      8384 IM1      58       IM1      H2       HDA3A    0.940000E-01   1.00800           0   0.00000       0.00000    
      8385 IM1      58       IM1      H3       HDA3A    0.940000E-01   1.00800           0   0.00000       0.00000    
      8386 IM1      58       IM1      N1       ND2R5A    2.67030       13.6070           0  -1.06300       1.30000    
      8387 IM1      58       IM1      DN1      DRUD     -2.53030      0.400000           0   0.00000       0.00000    
      8388 IM1      58       IM1      C2       CD2R5A    2.51190       11.6110           0  -1.37800       1.30000    
      8389 IM1      58       IM1      DC2      DRUD     -2.88090      0.400000           0   0.00000       0.00000    
      8390 IM1      58       IM1      H4       HDR5A    0.150000       1.00800           0   0.00000       0.00000    
      8391 IM1      58       IM1      C3       CD2R5A    3.06890       11.6110           0  -1.37800       1.30000    
      8392 IM1      58       IM1      DC3      DRUD     -2.88090      0.400000           0   0.00000       0.00000    
      8393 IM1      58       IM1      H5       HDR5A    0.530000E-01   1.00800           0   0.00000       0.00000    
      8394 IM1      58       IM1      C4       CD2R5B    2.40440       11.6110           0 -0.868000       1.30000    
      8395 IM1      58       IM1      DC4      DRUD     -2.28640      0.400000           0   0.00000       0.00000    
      8396 IM1      58       IM1      H6       HDR5B    0.730000E-01   1.00800           0   0.00000       0.00000    
      8397 IM1      58       IM1      N2       ND2R5B    2.24930       13.6070           0 -0.840000       1.00000    
      8398 IM1      58       IM1      DN2      DRUD     -2.24930      0.400000           0   0.00000       0.00000    
      8399 IM1      58       IM1      H7       DUMH      0.00000       1.00800           0   0.00000       0.00000    
      8400 IM1      58       IM1      LPN21    LPD     -0.474000       0.00000          -1   0.00000       0.00000    
      8401 IM1      59       IM1      C1       CD33G     2.39060       11.6110           0  -1.08100       1.00000    
      8402 IM1      59       IM1      DC1      DRUD     -2.55160      0.400000           0   0.00000       0.00000    
      8403 IM1      59       IM1      H1       HDA3A    0.940000E-01   1.00800           0   0.00000       0.00000    
      8404 IM1      59       IM1      H2       HDA3A    0.940000E-01   1.00800           0   0.00000       0.00000    
      8405 IM1      59       IM1      H3       HDA3A    0.940000E-01   1.00800           0   0.00000       0.00000    
      8406 IM1      59       IM1      N1       ND2R5A    2.67030       13.6070           0  -1.06300       1.30000    
      8407 IM1      59       IM1      DN1      DRUD     -2.53030      0.400000           0   0.00000       0.00000    
      8408 IM1      59       IM1      C2       CD2R5A    2.51190       11.6110           0  -1.37800       1.30000    
      8409 IM1      59       IM1      DC2      DRUD     -2.88090      0.400000           0   0.00000       0.00000    
      8410 IM1      59       IM1      H4       HDR5A    0.150000       1.00800           0   0.00000       0.00000    
      8411 IM1      59       IM1      C3       CD2R5A    3.06890       11.6110           0  -1.37800       1.30000    
      8412 IM1      59       IM1      DC3      DRUD     -2.88090      0.400000           0   0.00000       0.00000    
      8413 IM1      59       IM1      H5       HDR5A    0.530000E-01   1.00800           0   0.00000       0.00000    
      8414 IM1      59       IM1      C4       CD2R5B    2.40440       11.6110           0 -0.868000       1.30000    
      8415 IM1      59       IM1      DC4      DRUD     -2.28640      0.400000           0   0.00000       0.00000    
      8416 IM1      59       IM1      H6       HDR5B    0.730000E-01   1.00800           0   0.00000       0.00000    
      8417 IM1      59       IM1      N2       ND2R5B    2.24930       13.6070           0 -0.840000       1.00000    
      8418 IM1      59       IM1      DN2      DRUD     -2.24930      0.400000           0   0.00000       0.00000    
      8419 IM1      59       IM1      H7       DUMH      0.00000       1.00800           0   0.00000       0.00000    
      8420 IM1      59       IM1      LPN21    LPD     -0.474000       0.00000          -1   0.00000       0.00000    
      8421 IM1      60       IM1      C1       CD33G     2.39060       11.6110           0  -1.08100       1.00000    
      8422 IM1      60       IM1      DC1      DRUD     -2.55160      0.400000           0   0.00000       0.00000    
      8423 IM1      60       IM1      H1       HDA3A    0.940000E-01   1.00800           0   0.00000       0.00000    
      8424 IM1      60       IM1      H2       HDA3A    0.940000E-01   1.00800           0   0.00000       0.00000    
      8425 IM1      60       IM1      H3       HDA3A    0.940000E-01   1.00800           0   0.00000       0.00000    
      8426 IM1      60       IM1      N1       ND2R5A    2.67030       13.6070           0  -1.06300       1.30000    
      8427 IM1      60       IM1      DN1      DRUD     -2.53030      0.400000           0   0.00000       0.00000    
      8428 IM1      60       IM1      C2       CD2R5A    2.51190       11.6110           0  -1.37800       1.30000    
      8429 IM1      60       IM1      DC2      DRUD     -2.88090      0.400000           0   0.00000       0.00000    
      8430 IM1      60       IM1      H4       HDR5A    0.150000       1.00800           0   0.00000       0.00000    
      8431 IM1      60       IM1      C3       CD2R5A    3.06890       11.6110           0  -1.37800       1.30000    
      8432 IM1      60       IM1      DC3      DRUD     -2.88090      0.400000           0   0.00000       0.00000    
      8433 IM1      60       IM1      H5       HDR5A    0.530000E-01   1.00800           0   0.00000       0.00000    
      8434 IM1      60       IM1      C4       CD2R5B    2.40440       11.6110           0 -0.868000       1.30000    
      8435 IM1      60       IM1      DC4      DRUD     -2.28640      0.400000           0   0.00000       0.00000    
      8436 IM1      60       IM1      H6       HDR5B    0.730000E-01   1.00800           0   0.00000       0.00000    
      8437 IM1      60       IM1      N2       ND2R5B    2.24930       13.6070           0 -0.840000       1.00000    
      8438 IM1      60       IM1      DN2      DRUD     -2.24930      0.400000           0   0.00000       0.00000    
      8439 IM1      60       IM1      H7       DUMH      0.00000       1.00800           0   0.00000       0.00000    
      8440 IM1      60       IM1      LPN21    LPD     -0.474000       0.00000          -1   0.00000       0.00000    
      8441 IM1      61       IM1      C1       CD33G     2.39060       11.6110           0  -1.08100       1.00000    
      8442 IM1      61       IM1      DC1      DRUD     -2.55160      0.400000           0   0.00000       0.00000    
      8443 IM1      61       IM1      H1       HDA3A    0.940000E-01   1.00800           0   0.00000       0.00000    
      8444 IM1      61       IM1      H2       HDA3A    0.940000E-01   1.00800           0   0.00000       0.00000    
      8445 IM1      61       IM1      H3       HDA3A    0.940000E-01   1.00800           0   0.00000       0.00000    
      8446 IM1      61       IM1      N1       ND2R5A    2.67030       13.6070           0  -1.06300       1.30000    
      8447 IM1      61       IM1      DN1      DRUD     -2.53030      0.400000           0   0.00000       0.00000    
      8448 IM1      61       IM1      C2       CD2R5A    2.51190       11.6110           0  -1.37800       1.30000    
      8449 IM1      61       IM1      DC2      DRUD     -2.88090      0.400000           0   0.00000       0.00000    
      8450 IM1      61       IM1      H4       HDR5A    0.150000       1.00800           0   0.00000       0.00000    
      8451 IM1      61       IM1      C3       CD2R5A    3.06890       11.6110           0  -1.37800       1.30000    
      8452 IM1      61       IM1      DC3      DRUD     -2.88090      0.400000           0   0.00000       0.00000    
      8453 IM1      61       IM1      H5       HDR5A    0.530000E-01   1.00800           0   0.00000       0.00000    
      8454 IM1      61       IM1      C4       CD2R5B    2.40440       11.6110           0 -0.868000       1.30000    
      8455 IM1      61       IM1      DC4      DRUD     -2.28640      0.400000           0   0.00000       0.00000    
      8456 IM1      61       IM1      H6       HDR5B    0.730000E-01   1.00800           0   0.00000       0.00000    
      8457 IM1      61       IM1      N2       ND2R5B    2.24930       13.6070           0 -0.840000       1.00000    
      8458 IM1      61       IM1      DN2      DRUD     -2.24930      0.400000           0   0.00000       0.00000    
      8459 IM1      61       IM1      H7       DUMH      0.00000       1.00800           0   0.00000       0.00000    
      8460 IM1      61       IM1      LPN21    LPD     -0.474000       0.00000          -1   0.00000       0.00000    
      8461 IM1      62       IM1      C1       CD33G     2.39060       11.6110           0  -1.08100       1.00000    
      8462 IM1      62       IM1      DC1      DRUD     -2.55160      0.400000           0   0.00000       0.00000    
      8463 IM1      62       IM1      H1       HDA3A    0.940000E-01   1.00800           0   0.00000       0.00000    
      8464 IM1      62       IM1      H2       HDA3A    0.940000E-01   1.00800           0   0.00000       0.00000    
      8465 IM1      62       IM1      H3       HDA3A    0.940000E-01   1.00800           0   0.00000       0.00000    
      8466 IM1      62       IM1      N1       ND2R5A    2.67030       13.6070           0  -1.06300       1.30000    
      8467 IM1      62       IM1      DN1      DRUD     -2.53030      0.400000           0   0.00000       0.00000    
      8468 IM1      62       IM1      C2       CD2R5A    2.51190       11.6110           0  -1.37800       1.30000    
      8469 IM1      62       IM1      DC2      DRUD     -2.88090      0.400000           0   0.00000       0.00000    
      8470 IM1      62       IM1      H4       HDR5A    0.150000       1.00800           0   0.00000       0.00000    
      8471 IM1      62       IM1      C3       CD2R5A    3.06890       11.6110           0  -1.37800       1.30000    
      8472 IM1      62       IM1      DC3      DRUD     -2.88090      0.400000           0   0.00000       0.00000    
      8473 IM1      62       IM1      H5       HDR5A    0.530000E-01   1.00800           0   0.00000       0.00000    
      8474 IM1      62       IM1      C4       CD2R5B    2.40440       11.6110           0 -0.868000       1.30000    
      8475 IM1      62       IM1      DC4      DRUD     -2.28640      0.400000           0   0.00000       0.00000    
      8476 IM1      62       IM1      H6       HDR5B    0.730000E-01   1.00800           0   0.00000       0.00000    
      8477 IM1      62       IM1      N2       ND2R5B    2.24930       13.6070           0 -0.840000       1.00000    
      8478 IM1      62       IM1      DN2      DRUD     -2.24930      0.400000           0   0.00000       0.00000    
      8479 IM1      62       IM1      H7       DUMH      0.00000       1.00800           0   0.00000       0.00000    
      8480 IM1      62       IM1      LPN21    LPD     -0.474000       0.00000          -1   0.00000       0.00000    
      8481 IM1      63       IM1      C1       CD33G     2.39060       11.6110           0  -1.08100       1.00000    
      8482 IM1      63       IM1      DC1      DRUD     -2.55160      0.400000           0   0.00000       0.00000    
      8483 IM1      63       IM1      H1       HDA3A    0.940000E-01   1.00800           0   0.00000       0.00000    
      8484 IM1      63       IM1      H2       HDA3A    0.940000E-01   1.00800           0   0.00000       0.00000    
      8485 IM1      63       IM1      H3       HDA3A    0.940000E-01   1.00800           0   0.00000       0.00000    
      8486 IM1      63       IM1      N1       ND2R5A    2.67030       13.6070           0  -1.06300       1.30000    
      8487 IM1      63       IM1      DN1      DRUD     -2.53030      0.400000           0   0.00000       0.00000    
      8488 IM1      63       IM1      C2       CD2R5A    2.51190       11.6110           0  -1.37800       1.30000    
      8489 IM1      63       IM1      DC2      DRUD     -2.88090      0.400000           0   0.00000       0.00000    
      8490 IM1      63       IM1      H4       HDR5A    0.150000       1.00800           0   0.00000       0.00000    
      8491 IM1      63       IM1      C3       CD2R5A    3.06890       11.6110           0  -1.37800       1.30000    
      8492 IM1      63       IM1      DC3      DRUD     -2.88090      0.400000           0   0.00000       0.00000    
      8493 IM1      63       IM1      H5       HDR5A    0.530000E-01   1.00800           0   0.00000       0.00000    
      8494 IM1      63       IM1      C4       CD2R5B    2.40440       11.6110           0 -0.868000       1.30000    
      8495 IM1      63       IM1      DC4      DRUD     -2.28640      0.400000           0   0.00000       0.00000    
      8496 IM1      63       IM1      H6       HDR5B    0.730000E-01   1.00800           0   0.00000       0.00000    
      8497 IM1      63       IM1      N2       ND2R5B    2.24930       13.6070           0 -0.840000       1.00000    
      8498 IM1      63       IM1      DN2      DRUD     -2.24930      0.400000           0   0.00000       0.00000    
      8499 IM1      63       IM1      H7       DUMH      0.00000       1.00800           0   0.00000       0.00000    
      8500 IM1      63       IM1      LPN21    LPD     -0.474000       0.00000          -1   0.00000       0.00000    
      8501 IM1      64       IM1      C1       CD33G     2.39060       11.6110           0  -1.08100       1.00000    
      8502 IM1      64       IM1      DC1      DRUD     -2.55160      0.400000           0   0.00000       0.00000    
      8503 IM1      64       IM1      H1       HDA3A    0.940000E-01   1.00800           0   0.00000       0.00000    
      8504 IM1      64       IM1      H2       HDA3A    0.940000E-01   1.00800           0   0.00000       0.00000    
      8505 IM1      64       IM1      H3       HDA3A    0.940000E-01   1.00800           0   0.00000       0.00000    
      8506 IM1      64       IM1      N1       ND2R5A    2.67030       13.6070           0  -1.06300       1.30000    
      8507 IM1      64       IM1      DN1      DRUD     -2.53030      0.400000           0   0.00000       0.00000    
      8508 IM1      64       IM1      C2       CD2R5A    2.51190       11.6110           0  -1.37800       1.30000    
      8509 IM1      64       IM1      DC2      DRUD     -2.88090      0.400000           0   0.00000       0.00000    
      8510 IM1      64       IM1      H4       HDR5A    0.150000       1.00800           0   0.00000       0.00000    
      8511 IM1      64       IM1      C3       CD2R5A    3.06890       11.6110           0  -1.37800       1.30000    
      8512 IM1      64       IM1      DC3      DRUD     -2.88090      0.400000           0   0.00000       0.00000    
      8513 IM1      64       IM1      H5       HDR5A    0.530000E-01   1.00800           0   0.00000       0.00000    
      8514 IM1      64       IM1      C4       CD2R5B    2.40440       11.6110           0 -0.868000       1.30000    
      8515 IM1      64       IM1      DC4      DRUD     -2.28640      0.400000           0   0.00000       0.00000    
      8516 IM1      64       IM1      H6       HDR5B    0.730000E-01   1.00800           0   0.00000       0.00000    
      8517 IM1      64       IM1      N2       ND2R5B    2.24930       13.6070           0 -0.840000       1.00000    
      8518 IM1      64       IM1      DN2      DRUD     -2.24930      0.400000           0   0.00000       0.00000    
      8519 IM1      64       IM1      H7       DUMH      0.00000       1.00800           0   0.00000       0.00000    
      8520 IM1      64       IM1      LPN21    LPD     -0.474000       0.00000          -1   0.00000       0.00000    
      8521 IM1      65       IM1      C1       CD33G     2.39060       11.6110           0  -1.08100       1.00000    
      8522 IM1      65       IM1      DC1      DRUD     -2.55160      0.400000           0   0.00000       0.00000    
      8523 IM1      65       IM1      H1       HDA3A    0.940000E-01   1.00800           0   0.00000       0.00000    
      8524 IM1      65       IM1      H2       HDA3A    0.940000E-01   1.00800           0   0.00000       0.00000    
      8525 IM1      65       IM1      H3       HDA3A    0.940000E-01   1.00800           0   0.00000       0.00000    
      8526 IM1      65       IM1      N1       ND2R5A    2.67030       13.6070           0  -1.06300       1.30000    
      8527 IM1      65       IM1      DN1      DRUD     -2.53030      0.400000           0   0.00000       0.00000    
      8528 IM1      65       IM1      C2       CD2R5A    2.51190       11.6110           0  -1.37800       1.30000    
      8529 IM1      65       IM1      DC2      DRUD     -2.88090      0.400000           0   0.00000       0.00000    
      8530 IM1      65       IM1      H4       HDR5A    0.150000       1.00800           0   0.00000       0.00000    
      8531 IM1      65       IM1      C3       CD2R5A    3.06890       11.6110           0  -1.37800       1.30000    
      8532 IM1      65       IM1      DC3      DRUD     -2.88090      0.400000           0   0.00000       0.00000    
      8533 IM1      65       IM1      H5       HDR5A    0.530000E-01   1.00800           0   0.00000       0.00000    
      8534 IM1      65       IM1      C4       CD2R5B    2.40440       11.6110           0 -0.868000       1.30000    
      8535 IM1      65       IM1      DC4      DRUD     -2.28640      0.400000           0   0.00000       0.00000    
      8536 IM1      65       IM1      H6       HDR5B    0.730000E-01   1.00800           0   0.00000       0.00000    
      8537 IM1      65       IM1      N2       ND2R5B    2.24930       13.6070           0 -0.840000       1.00000    
      8538 IM1      65       IM1      DN2      DRUD     -2.24930      0.400000           0   0.00000       0.00000    
      8539 IM1      65       IM1      H7       DUMH      0.00000       1.00800           0   0.00000       0.00000    
      8540 IM1      65       IM1      LPN21    LPD     -0.474000       0.00000          -1   0.00000       0.00000    
      8541 IM1      66       IM1      C1       CD33G     2.39060       11.6110           0  -1.08100       1.00000    
      8542 IM1      66       IM1      DC1      DRUD     -2.55160      0.400000           0   0.00000       0.00000    
      8543 IM1      66       IM1      H1       HDA3A    0.940000E-01   1.00800           0   0.00000       0.00000    
      8544 IM1      66       IM1      H2       HDA3A    0.940000E-01   1.00800           0   0.00000       0.00000    
      8545 IM1      66       IM1      H3       HDA3A    0.940000E-01   1.00800           0   0.00000       0.00000    
      8546 IM1      66       IM1      N1       ND2R5A    2.67030       13.6070           0  -1.06300       1.30000    
      8547 IM1      66       IM1      DN1      DRUD     -2.53030      0.400000           0   0.00000       0.00000    
      8548 IM1      66       IM1      C2       CD2R5A    2.51190       11.6110           0  -1.37800       1.30000    
      8549 IM1      66       IM1      DC2      DRUD     -2.88090      0.400000           0   0.00000       0.00000    
      8550 IM1      66       IM1      H4       HDR5A    0.150000       1.00800           0   0.00000       0.00000    
      8551 IM1      66       IM1      C3       CD2R5A    3.06890       11.6110           0  -1.37800       1.30000    
      8552 IM1      66       IM1      DC3      DRUD     -2.88090      0.400000           0   0.00000       0.00000    
      8553 IM1      66       IM1      H5       HDR5A    0.530000E-01   1.00800           0   0.00000       0.00000    
      8554 IM1      66       IM1      C4       CD2R5B    2.40440       11.6110           0 -0.868000       1.30000    
      8555 IM1      66       IM1      DC4      DRUD     -2.28640      0.400000           0   0.00000       0.00000    
      8556 IM1      66       IM1      H6       HDR5B    0.730000E-01   1.00800           0   0.00000       0.00000    
      8557 IM1      66       IM1      N2       ND2R5B    2.24930       13.6070           0 -0.840000       1.00000    
      8558 IM1      66       IM1      DN2      DRUD     -2.24930      0.400000           0   0.00000       0.00000    
      8559 IM1      66       IM1      H7       DUMH      0.00000       1.00800           0   0.00000       0.00000    
      8560 IM1      66       IM1      LPN21    LPD     -0.474000       0.00000          -1   0.00000       0.00000    
      8561 IM1      67       IM1      C1       CD33G     2.39060       11.6110           0  -1.08100       1.00000    
      8562 IM1      67       IM1      DC1      DRUD     -2.55160      0.400000           0   0.00000       0.00000    
      8563 IM1      67       IM1      H1       HDA3A    0.940000E-01   1.00800           0   0.00000       0.00000    
      8564 IM1      67       IM1      H2       HDA3A    0.940000E-01   1.00800           0   0.00000       0.00000    
      8565 IM1      67       IM1      H3       HDA3A    0.940000E-01   1.00800           0   0.00000       0.00000    
      8566 IM1      67       IM1      N1       ND2R5A    2.67030       13.6070           0  -1.06300       1.30000    
      8567 IM1      67       IM1      DN1      DRUD     -2.53030      0.400000           0   0.00000       0.00000    
      8568 IM1      67       IM1      C2       CD2R5A    2.51190       11.6110           0  -1.37800       1.30000    
      8569 IM1      67       IM1      DC2      DRUD     -2.88090      0.400000           0   0.00000       0.00000    
      8570 IM1      67       IM1      H4       HDR5A    0.150000       1.00800           0   0.00000       0.00000    
      8571 IM1      67       IM1      C3       CD2R5A    3.06890       11.6110           0  -1.37800       1.30000    
      8572 IM1      67       IM1      DC3      DRUD     -2.88090      0.400000           0   0.00000       0.00000    
      8573 IM1      67       IM1      H5       HDR5A    0.530000E-01   1.00800           0   0.00000       0.00000    
      8574 IM1      67       IM1      C4       CD2R5B    2.40440       11.6110           0 -0.868000       1.30000    
      8575 IM1      67       IM1      DC4      DRUD     -2.28640      0.400000           0   0.00000       0.00000    
      8576 IM1      67       IM1      H6       HDR5B    0.730000E-01   1.00800           0   0.00000       0.00000    
      8577 IM1      67       IM1      N2       ND2R5B    2.24930       13.6070           0 -0.840000       1.00000    
      8578 IM1      67       IM1      DN2      DRUD     -2.24930      0.400000           0   0.00000       0.00000    
      8579 IM1      67       IM1      H7       DUMH      0.00000       1.00800           0   0.00000       0.00000    
      8580 IM1      67       IM1      LPN21    LPD     -0.474000       0.00000          -1   0.00000       0.00000    
      8581 IM1      68       IM1      C1       CD33G     2.39060       11.6110           0  -1.08100       1.00000    
      8582 IM1      68       IM1      DC1      DRUD     -2.55160      0.400000           0   0.00000       0.00000    
      8583 IM1      68       IM1      H1       HDA3A    0.940000E-01   1.00800           0   0.00000       0.00000    
      8584 IM1      68       IM1      H2       HDA3A    0.940000E-01   1.00800           0   0.00000       0.00000    
      8585 IM1      68       IM1      H3       HDA3A    0.940000E-01   1.00800           0   0.00000       0.00000    
      8586 IM1      68       IM1      N1       ND2R5A    2.67030       13.6070           0  -1.06300       1.30000    
      8587 IM1      68       IM1      DN1      DRUD     -2.53030      0.400000           0   0.00000       0.00000    
      8588 IM1      68       IM1      C2       CD2R5A    2.51190       11.6110           0  -1.37800       1.30000    
      8589 IM1      68       IM1      DC2      DRUD     -2.88090      0.400000           0   0.00000       0.00000    
      8590 IM1      68       IM1      H4       HDR5A    0.150000       1.00800           0   0.00000       0.00000    
      8591 IM1      68       IM1      C3       CD2R5A    3.06890       11.6110           0  -1.37800       1.30000    
      8592 IM1      68       IM1      DC3      DRUD     -2.88090      0.400000           0   0.00000       0.00000    
      8593 IM1      68       IM1      H5       HDR5A    0.530000E-01   1.00800           0   0.00000       0.00000    
      8594 IM1      68       IM1      C4       CD2R5B    2.40440       11.6110           0 -0.868000       1.30000    
      8595 IM1      68       IM1      DC4      DRUD     -2.28640      0.400000           0   0.00000       0.00000    
      8596 IM1      68       IM1      H6       HDR5B    0.730000E-01   1.00800           0   0.00000       0.00000    
      8597 IM1      68       IM1      N2       ND2R5B    2.24930       13.6070           0 -0.840000       1.00000    
      8598 IM1      68       IM1      DN2      DRUD     -2.24930      0.400000           0   0.00000       0.00000    
      8599 IM1      68       IM1      H7       DUMH      0.00000       1.00800           0   0.00000       0.00000    
      8600 IM1      68       IM1      LPN21    LPD     -0.474000       0.00000          -1   0.00000       0.00000    
      8601 IM1      69       IM1      C1       CD33G     2.39060       11.6110           0  -1.08100       1.00000    
      8602 IM1      69       IM1      DC1      DRUD     -2.55160      0.400000           0   0.00000       0.00000    
      8603 IM1      69       IM1      H1       HDA3A    0.940000E-01   1.00800           0   0.00000       0.00000    
      8604 IM1      69       IM1      H2       HDA3A    0.940000E-01   1.00800           0   0.00000       0.00000    
      8605 IM1      69       IM1      H3       HDA3A    0.940000E-01   1.00800           0   0.00000       0.00000    
      8606 IM1      69       IM1      N1       ND2R5A    2.67030       13.6070           0  -1.06300       1.30000    
      8607 IM1      69       IM1      DN1      DRUD     -2.53030      0.400000           0   0.00000       0.00000    
      8608 IM1      69       IM1      C2       CD2R5A    2.51190       11.6110           0  -1.37800       1.30000    
      8609 IM1      69       IM1      DC2      DRUD     -2.88090      0.400000           0   0.00000       0.00000    
      8610 IM1      69       IM1      H4       HDR5A    0.150000       1.00800           0   0.00000       0.00000    
      8611 IM1      69       IM1      C3       CD2R5A    3.06890       11.6110           0  -1.37800       1.30000    
      8612 IM1      69       IM1      DC3      DRUD     -2.88090      0.400000           0   0.00000       0.00000    
      8613 IM1      69       IM1      H5       HDR5A    0.530000E-01   1.00800           0   0.00000       0.00000    
      8614 IM1      69       IM1      C4       CD2R5B    2.40440       11.6110           0 -0.868000       1.30000    
      8615 IM1      69       IM1      DC4      DRUD     -2.28640      0.400000           0   0.00000       0.00000    
      8616 IM1      69       IM1      H6       HDR5B    0.730000E-01   1.00800           0   0.00000       0.00000    
      8617 IM1      69       IM1      N2       ND2R5B    2.24930       13.6070           0 -0.840000       1.00000    
      8618 IM1      69       IM1      DN2      DRUD     -2.24930      0.400000           0   0.00000       0.00000    
      8619 IM1      69       IM1      H7       DUMH      0.00000       1.00800           0   0.00000       0.00000    
      8620 IM1      69       IM1      LPN21    LPD     -0.474000       0.00000          -1   0.00000       0.00000    
      8621 IM1      70       IM1      C1       CD33G     2.39060       11.6110           0  -1.08100       1.00000    
      8622 IM1      70       IM1      DC1      DRUD     -2.55160      0.400000           0   0.00000       0.00000    
      8623 IM1      70       IM1      H1       HDA3A    0.940000E-01   1.00800           0   0.00000       0.00000    
      8624 IM1      70       IM1      H2       HDA3A    0.940000E-01   1.00800           0   0.00000       0.00000    
      8625 IM1      70       IM1      H3       HDA3A    0.940000E-01   1.00800           0   0.00000       0.00000    
      8626 IM1      70       IM1      N1       ND2R5A    2.67030       13.6070           0  -1.06300       1.30000    
      8627 IM1      70       IM1      DN1      DRUD     -2.53030      0.400000           0   0.00000       0.00000    
      8628 IM1      70       IM1      C2       CD2R5A    2.51190       11.6110           0  -1.37800       1.30000    
      8629 IM1      70       IM1      DC2      DRUD     -2.88090      0.400000           0   0.00000       0.00000    
      8630 IM1      70       IM1      H4       HDR5A    0.150000       1.00800           0   0.00000       0.00000    
      8631 IM1      70       IM1      C3       CD2R5A    3.06890       11.6110           0  -1.37800       1.30000    
      8632 IM1      70       IM1      DC3      DRUD     -2.88090      0.400000           0   0.00000       0.00000    
      8633 IM1      70       IM1      H5       HDR5A    0.530000E-01   1.00800           0   0.00000       0.00000    
      8634 IM1      70       IM1      C4       CD2R5B    2.40440       11.6110           0 -0.868000       1.30000    
      8635 IM1      70       IM1      DC4      DRUD     -2.28640      0.400000           0   0.00000       0.00000    
      8636 IM1      70       IM1      H6       HDR5B    0.730000E-01   1.00800           0   0.00000       0.00000    
      8637 IM1      70       IM1      N2       ND2R5B    2.24930       13.6070           0 -0.840000       1.00000    
      8638 IM1      70       IM1      DN2      DRUD     -2.24930      0.400000           0   0.00000       0.00000    
      8639 IM1      70       IM1      H7       DUMH      0.00000       1.00800           0   0.00000       0.00000    
      8640 IM1      70       IM1      LPN21    LPD     -0.474000       0.00000          -1   0.00000       0.00000    
      8641 IM1      71       IM1      C1       CD33G     2.39060       11.6110           0  -1.08100       1.00000    
      8642 IM1      71       IM1      DC1      DRUD     -2.55160      0.400000           0   0.00000       0.00000    
      8643 IM1      71       IM1      H1       HDA3A    0.940000E-01   1.00800           0   0.00000       0.00000    
      8644 IM1      71       IM1      H2       HDA3A    0.940000E-01   1.00800           0   0.00000       0.00000    
      8645 IM1      71       IM1      H3       HDA3A    0.940000E-01   1.00800           0   0.00000       0.00000    
      8646 IM1      71       IM1      N1       ND2R5A    2.67030       13.6070           0  -1.06300       1.30000    
      8647 IM1      71       IM1      DN1      DRUD     -2.53030      0.400000           0   0.00000       0.00000    
      8648 IM1      71       IM1      C2       CD2R5A    2.51190       11.6110           0  -1.37800       1.30000    
      8649 IM1      71       IM1      DC2      DRUD     -2.88090      0.400000           0   0.00000       0.00000    
      8650 IM1      71       IM1      H4       HDR5A    0.150000       1.00800           0   0.00000       0.00000    
      8651 IM1      71       IM1      C3       CD2R5A    3.06890       11.6110           0  -1.37800       1.30000    
      8652 IM1      71       IM1      DC3      DRUD     -2.88090      0.400000           0   0.00000       0.00000    
      8653 IM1      71       IM1      H5       HDR5A    0.530000E-01   1.00800           0   0.00000       0.00000    
      8654 IM1      71       IM1      C4       CD2R5B    2.40440       11.6110           0 -0.868000       1.30000    
      8655 IM1      71       IM1      DC4      DRUD     -2.28640      0.400000           0   0.00000       0.00000    
      8656 IM1      71       IM1      H6       HDR5B    0.730000E-01   1.00800           0   0.00000       0.00000    
      8657 IM1      71       IM1      N2       ND2R5B    2.24930       13.6070           0 -0.840000       1.00000    
      8658 IM1      71       IM1      DN2      DRUD     -2.24930      0.400000           0   0.00000       0.00000    
      8659 IM1      71       IM1      H7       DUMH      0.00000       1.00800           0   0.00000       0.00000    
      8660 IM1      71       IM1      LPN21    LPD     -0.474000       0.00000          -1   0.00000       0.00000    
      8661 IM1      72       IM1      C1       CD33G     2.39060       11.6110           0  -1.08100       1.00000    
      8662 IM1      72       IM1      DC1      DRUD     -2.55160      0.400000           0   0.00000       0.00000    
      8663 IM1      72       IM1      H1       HDA3A    0.940000E-01   1.00800           0   0.00000       0.00000    
      8664 IM1      72       IM1      H2       HDA3A    0.940000E-01   1.00800           0   0.00000       0.00000    
      8665 IM1      72       IM1      H3       HDA3A    0.940000E-01   1.00800           0   0.00000       0.00000    
      8666 IM1      72       IM1      N1       ND2R5A    2.67030       13.6070           0  -1.06300       1.30000    
      8667 IM1      72       IM1      DN1      DRUD     -2.53030      0.400000           0   0.00000       0.00000    
      8668 IM1      72       IM1      C2       CD2R5A    2.51190       11.6110           0  -1.37800       1.30000    
      8669 IM1      72       IM1      DC2      DRUD     -2.88090      0.400000           0   0.00000       0.00000    
      8670 IM1      72       IM1      H4       HDR5A    0.150000       1.00800           0   0.00000       0.00000    
      8671 IM1      72       IM1      C3       CD2R5A    3.06890       11.6110           0  -1.37800       1.30000    
      8672 IM1      72       IM1      DC3      DRUD     -2.88090      0.400000           0   0.00000       0.00000    
      8673 IM1      72       IM1      H5       HDR5A    0.530000E-01   1.00800           0   0.00000       0.00000    
      8674 IM1      72       IM1      C4       CD2R5B    2.40440       11.6110           0 -0.868000       1.30000    
      8675 IM1      72       IM1      DC4      DRUD     -2.28640      0.400000           0   0.00000       0.00000    
      8676 IM1      72       IM1      H6       HDR5B    0.730000E-01   1.00800           0   0.00000       0.00000    
      8677 IM1      72       IM1      N2       ND2R5B    2.24930       13.6070           0 -0.840000       1.00000    
      8678 IM1      72       IM1      DN2      DRUD     -2.24930      0.400000           0   0.00000       0.00000    
      8679 IM1      72       IM1      H7       DUMH      0.00000       1.00800           0   0.00000       0.00000    
      8680 IM1      72       IM1      LPN21    LPD     -0.474000       0.00000          -1   0.00000       0.00000    
      8681 IM1      73       IM1      C1       CD33G     2.39060       11.6110           0  -1.08100       1.00000    
      8682 IM1      73       IM1      DC1      DRUD     -2.55160      0.400000           0   0.00000       0.00000    
      8683 IM1      73       IM1      H1       HDA3A    0.940000E-01   1.00800           0   0.00000       0.00000    
      8684 IM1      73       IM1      H2       HDA3A    0.940000E-01   1.00800           0   0.00000       0.00000    
      8685 IM1      73       IM1      H3       HDA3A    0.940000E-01   1.00800           0   0.00000       0.00000    
      8686 IM1      73       IM1      N1       ND2R5A    2.67030       13.6070           0  -1.06300       1.30000    
      8687 IM1      73       IM1      DN1      DRUD     -2.53030      0.400000           0   0.00000       0.00000    
      8688 IM1      73       IM1      C2       CD2R5A    2.51190       11.6110           0  -1.37800       1.30000    
      8689 IM1      73       IM1      DC2      DRUD     -2.88090      0.400000           0   0.00000       0.00000    
      8690 IM1      73       IM1      H4       HDR5A    0.150000       1.00800           0   0.00000       0.00000    
      8691 IM1      73       IM1      C3       CD2R5A    3.06890       11.6110           0  -1.37800       1.30000    
      8692 IM1      73       IM1      DC3      DRUD     -2.88090      0.400000           0   0.00000       0.00000    
      8693 IM1      73       IM1      H5       HDR5A    0.530000E-01   1.00800           0   0.00000       0.00000    
      8694 IM1      73       IM1      C4       CD2R5B    2.40440       11.6110           0 -0.868000       1.30000    
      8695 IM1      73       IM1      DC4      DRUD     -2.28640      0.400000           0   0.00000       0.00000    
      8696 IM1      73       IM1      H6       HDR5B    0.730000E-01   1.00800           0   0.00000       0.00000    
      8697 IM1      73       IM1      N2       ND2R5B    2.24930       13.6070           0 -0.840000       1.00000    
      8698 IM1      73       IM1      DN2      DRUD     -2.24930      0.400000           0   0.00000       0.00000    
      8699 IM1      73       IM1      H7       DUMH      0.00000       1.00800           0   0.00000       0.00000    
      8700 IM1      73       IM1      LPN21    LPD     -0.474000       0.00000          -1   0.00000       0.00000    
      8701 IM1      74       IM1      C1       CD33G     2.39060       11.6110           0  -1.08100       1.00000    
      8702 IM1      74       IM1      DC1      DRUD     -2.55160      0.400000           0   0.00000       0.00000    
      8703 IM1      74       IM1      H1       HDA3A    0.940000E-01   1.00800           0   0.00000       0.00000    
      8704 IM1      74       IM1      H2       HDA3A    0.940000E-01   1.00800           0   0.00000       0.00000    
      8705 IM1      74       IM1      H3       HDA3A    0.940000E-01   1.00800           0   0.00000       0.00000    
      8706 IM1      74       IM1      N1       ND2R5A    2.67030       13.6070           0  -1.06300       1.30000    
      8707 IM1      74       IM1      DN1      DRUD     -2.53030      0.400000           0   0.00000       0.00000    
      8708 IM1      74       IM1      C2       CD2R5A    2.51190       11.6110           0  -1.37800       1.30000    
      8709 IM1      74       IM1      DC2      DRUD     -2.88090      0.400000           0   0.00000       0.00000    
      8710 IM1      74       IM1      H4       HDR5A    0.150000       1.00800           0   0.00000       0.00000    
      8711 IM1      74       IM1      C3       CD2R5A    3.06890       11.6110           0  -1.37800       1.30000    
      8712 IM1      74       IM1      DC3      DRUD     -2.88090      0.400000           0   0.00000       0.00000    
      8713 IM1      74       IM1      H5       HDR5A    0.530000E-01   1.00800           0   0.00000       0.00000    
      8714 IM1      74       IM1      C4       CD2R5B    2.40440       11.6110           0 -0.868000       1.30000    
      8715 IM1      74       IM1      DC4      DRUD     -2.28640      0.400000           0   0.00000       0.00000    
      8716 IM1      74       IM1      H6       HDR5B    0.730000E-01   1.00800           0   0.00000       0.00000    
      8717 IM1      74       IM1      N2       ND2R5B    2.24930       13.6070           0 -0.840000       1.00000    
      8718 IM1      74       IM1      DN2      DRUD     -2.24930      0.400000           0   0.00000       0.00000    
      8719 IM1      74       IM1      H7       DUMH      0.00000       1.00800           0   0.00000       0.00000    
      8720 IM1      74       IM1      LPN21    LPD     -0.474000       0.00000          -1   0.00000       0.00000    
      8721 IM1      75       IM1      C1       CD33G     2.39060       11.6110           0  -1.08100       1.00000    
      8722 IM1      75       IM1      DC1      DRUD     -2.55160      0.400000           0   0.00000       0.00000    
      8723 IM1      75       IM1      H1       HDA3A    0.940000E-01   1.00800           0   0.00000       0.00000    
      8724 IM1      75       IM1      H2       HDA3A    0.940000E-01   1.00800           0   0.00000       0.00000    
      8725 IM1      75       IM1      H3       HDA3A    0.940000E-01   1.00800           0   0.00000       0.00000    
      8726 IM1      75       IM1      N1       ND2R5A    2.67030       13.6070           0  -1.06300       1.30000    
      8727 IM1      75       IM1      DN1      DRUD     -2.53030      0.400000           0   0.00000       0.00000    
      8728 IM1      75       IM1      C2       CD2R5A    2.51190       11.6110           0  -1.37800       1.30000    
      8729 IM1      75       IM1      DC2      DRUD     -2.88090      0.400000           0   0.00000       0.00000    
      8730 IM1      75       IM1      H4       HDR5A    0.150000       1.00800           0   0.00000       0.00000    
      8731 IM1      75       IM1      C3       CD2R5A    3.06890       11.6110           0  -1.37800       1.30000    
      8732 IM1      75       IM1      DC3      DRUD     -2.88090      0.400000           0   0.00000       0.00000    
      8733 IM1      75       IM1      H5       HDR5A    0.530000E-01   1.00800           0   0.00000       0.00000    
      8734 IM1      75       IM1      C4       CD2R5B    2.40440       11.6110           0 -0.868000       1.30000    
      8735 IM1      75       IM1      DC4      DRUD     -2.28640      0.400000           0   0.00000       0.00000    
      8736 IM1      75       IM1      H6       HDR5B    0.730000E-01   1.00800           0   0.00000       0.00000    
      8737 IM1      75       IM1      N2       ND2R5B    2.24930       13.6070           0 -0.840000       1.00000    
      8738 IM1      75       IM1      DN2      DRUD     -2.24930      0.400000           0   0.00000       0.00000    
      8739 IM1      75       IM1      H7       DUMH      0.00000       1.00800           0   0.00000       0.00000    
      8740 IM1      75       IM1      LPN21    LPD     -0.474000       0.00000          -1   0.00000       0.00000    
      8741 IM1      76       IM1      C1       CD33G     2.39060       11.6110           0  -1.08100       1.00000    
      8742 IM1      76       IM1      DC1      DRUD     -2.55160      0.400000           0   0.00000       0.00000    
      8743 IM1      76       IM1      H1       HDA3A    0.940000E-01   1.00800           0   0.00000       0.00000    
      8744 IM1      76       IM1      H2       HDA3A    0.940000E-01   1.00800           0   0.00000       0.00000    
      8745 IM1      76       IM1      H3       HDA3A    0.940000E-01   1.00800           0   0.00000       0.00000    
      8746 IM1      76       IM1      N1       ND2R5A    2.67030       13.6070           0  -1.06300       1.30000    
      8747 IM1      76       IM1      DN1      DRUD     -2.53030      0.400000           0   0.00000       0.00000    
      8748 IM1      76       IM1      C2       CD2R5A    2.51190       11.6110           0  -1.37800       1.30000    
      8749 IM1      76       IM1      DC2      DRUD     -2.88090      0.400000           0   0.00000       0.00000    
      8750 IM1      76       IM1      H4       HDR5A    0.150000       1.00800           0   0.00000       0.00000    
      8751 IM1      76       IM1      C3       CD2R5A    3.06890       11.6110           0  -1.37800       1.30000    
      8752 IM1      76       IM1      DC3      DRUD     -2.88090      0.400000           0   0.00000       0.00000    
      8753 IM1      76       IM1      H5       HDR5A    0.530000E-01   1.00800           0   0.00000       0.00000    
      8754 IM1      76       IM1      C4       CD2R5B    2.40440       11.6110           0 -0.868000       1.30000    
      8755 IM1      76       IM1      DC4      DRUD     -2.28640      0.400000           0   0.00000       0.00000    
      8756 IM1      76       IM1      H6       HDR5B    0.730000E-01   1.00800           0   0.00000       0.00000    
      8757 IM1      76       IM1      N2       ND2R5B    2.24930       13.6070           0 -0.840000       1.00000    
      8758 IM1      76       IM1      DN2      DRUD     -2.24930      0.400000           0   0.00000       0.00000    
      8759 IM1      76       IM1      H7       DUMH      0.00000       1.00800           0   0.00000       0.00000    
      8760 IM1      76       IM1      LPN21    LPD     -0.474000       0.00000          -1   0.00000       0.00000    
      8761 IM1      77       IM1      C1       CD33G     2.39060       11.6110           0  -1.08100       1.00000    
      8762 IM1      77       IM1      DC1      DRUD     -2.55160      0.400000           0   0.00000       0.00000    
      8763 IM1      77       IM1      H1       HDA3A    0.940000E-01   1.00800           0   0.00000       0.00000    
      8764 IM1      77       IM1      H2       HDA3A    0.940000E-01   1.00800           0   0.00000       0.00000    
      8765 IM1      77       IM1      H3       HDA3A    0.940000E-01   1.00800           0   0.00000       0.00000    
      8766 IM1      77       IM1      N1       ND2R5A    2.67030       13.6070           0  -1.06300       1.30000    
      8767 IM1      77       IM1      DN1      DRUD     -2.53030      0.400000           0   0.00000       0.00000    
      8768 IM1      77       IM1      C2       CD2R5A    2.51190       11.6110           0  -1.37800       1.30000    
      8769 IM1      77       IM1      DC2      DRUD     -2.88090      0.400000           0   0.00000       0.00000    
      8770 IM1      77       IM1      H4       HDR5A    0.150000       1.00800           0   0.00000       0.00000    
      8771 IM1      77       IM1      C3       CD2R5A    3.06890       11.6110           0  -1.37800       1.30000    
      8772 IM1      77       IM1      DC3      DRUD     -2.88090      0.400000           0   0.00000       0.00000    
      8773 IM1      77       IM1      H5       HDR5A    0.530000E-01   1.00800           0   0.00000       0.00000    
      8774 IM1      77       IM1      C4       CD2R5B    2.40440       11.6110           0 -0.868000       1.30000    
      8775 IM1      77       IM1      DC4      DRUD     -2.28640      0.400000           0   0.00000       0.00000    
      8776 IM1      77       IM1      H6       HDR5B    0.730000E-01   1.00800           0   0.00000       0.00000    
      8777 IM1      77       IM1      N2       ND2R5B    2.24930       13.6070           0 -0.840000       1.00000    
      8778 IM1      77       IM1      DN2      DRUD     -2.24930      0.400000           0   0.00000       0.00000    
      8779 IM1      77       IM1      H7       DUMH      0.00000       1.00800           0   0.00000       0.00000    
      8780 IM1      77       IM1      LPN21    LPD     -0.474000       0.00000          -1   0.00000       0.00000    
      8781 IM1      78       IM1      C1       CD33G     2.39060       11.6110           0  -1.08100       1.00000    
      8782 IM1      78       IM1      DC1      DRUD     -2.55160      0.400000           0   0.00000       0.00000    
      8783 IM1      78       IM1      H1       HDA3A    0.940000E-01   1.00800           0   0.00000       0.00000    
      8784 IM1      78       IM1      H2       HDA3A    0.940000E-01   1.00800           0   0.00000       0.00000    
      8785 IM1      78       IM1      H3       HDA3A    0.940000E-01   1.00800           0   0.00000       0.00000    
      8786 IM1      78       IM1      N1       ND2R5A    2.67030       13.6070           0  -1.06300       1.30000    
      8787 IM1      78       IM1      DN1      DRUD     -2.53030      0.400000           0   0.00000       0.00000    
      8788 IM1      78       IM1      C2       CD2R5A    2.51190       11.6110           0  -1.37800       1.30000    
      8789 IM1      78       IM1      DC2      DRUD     -2.88090      0.400000           0   0.00000       0.00000    
      8790 IM1      78       IM1      H4       HDR5A    0.150000       1.00800           0   0.00000       0.00000    
      8791 IM1      78       IM1      C3       CD2R5A    3.06890       11.6110           0  -1.37800       1.30000    
      8792 IM1      78       IM1      DC3      DRUD     -2.88090      0.400000           0   0.00000       0.00000    
      8793 IM1      78       IM1      H5       HDR5A    0.530000E-01   1.00800           0   0.00000       0.00000    
      8794 IM1      78       IM1      C4       CD2R5B    2.40440       11.6110           0 -0.868000       1.30000    
      8795 IM1      78       IM1      DC4      DRUD     -2.28640      0.400000           0   0.00000       0.00000    
      8796 IM1      78       IM1      H6       HDR5B    0.730000E-01   1.00800           0   0.00000       0.00000    
      8797 IM1      78       IM1      N2       ND2R5B    2.24930       13.6070           0 -0.840000       1.00000    
      8798 IM1      78       IM1      DN2      DRUD     -2.24930      0.400000           0   0.00000       0.00000    
      8799 IM1      78       IM1      H7       DUMH      0.00000       1.00800           0   0.00000       0.00000    
      8800 IM1      78       IM1      LPN21    LPD     -0.474000       0.00000          -1   0.00000       0.00000    
      8801 IM1      79       IM1      C1       CD33G     2.39060       11.6110           0  -1.08100       1.00000    
      8802 IM1      79       IM1      DC1      DRUD     -2.55160      0.400000           0   0.00000       0.00000    
      8803 IM1      79       IM1      H1       HDA3A    0.940000E-01   1.00800           0   0.00000       0.00000    
      8804 IM1      79       IM1      H2       HDA3A    0.940000E-01   1.00800           0   0.00000       0.00000    
      8805 IM1      79       IM1      H3       HDA3A    0.940000E-01   1.00800           0   0.00000       0.00000    
      8806 IM1      79       IM1      N1       ND2R5A    2.67030       13.6070           0  -1.06300       1.30000    
      8807 IM1      79       IM1      DN1      DRUD     -2.53030      0.400000           0   0.00000       0.00000    
      8808 IM1      79       IM1      C2       CD2R5A    2.51190       11.6110           0  -1.37800       1.30000    
      8809 IM1      79       IM1      DC2      DRUD     -2.88090      0.400000           0   0.00000       0.00000    
      8810 IM1      79       IM1      H4       HDR5A    0.150000       1.00800           0   0.00000       0.00000    
      8811 IM1      79       IM1      C3       CD2R5A    3.06890       11.6110           0  -1.37800       1.30000    
      8812 IM1      79       IM1      DC3      DRUD     -2.88090      0.400000           0   0.00000       0.00000    
      8813 IM1      79       IM1      H5       HDR5A    0.530000E-01   1.00800           0   0.00000       0.00000    
      8814 IM1      79       IM1      C4       CD2R5B    2.40440       11.6110           0 -0.868000       1.30000    
      8815 IM1      79       IM1      DC4      DRUD     -2.28640      0.400000           0   0.00000       0.00000    
      8816 IM1      79       IM1      H6       HDR5B    0.730000E-01   1.00800           0   0.00000       0.00000    
      8817 IM1      79       IM1      N2       ND2R5B    2.24930       13.6070           0 -0.840000       1.00000    
      8818 IM1      79       IM1      DN2      DRUD     -2.24930      0.400000           0   0.00000       0.00000    
      8819 IM1      79       IM1      H7       DUMH      0.00000       1.00800           0   0.00000       0.00000    
      8820 IM1      79       IM1      LPN21    LPD     -0.474000       0.00000          -1   0.00000       0.00000    
      8821 IM1      80       IM1      C1       CD33G     2.39060       11.6110           0  -1.08100       1.00000    
      8822 IM1      80       IM1      DC1      DRUD     -2.55160      0.400000           0   0.00000       0.00000    
      8823 IM1      80       IM1      H1       HDA3A    0.940000E-01   1.00800           0   0.00000       0.00000    
      8824 IM1      80       IM1      H2       HDA3A    0.940000E-01   1.00800           0   0.00000       0.00000    
      8825 IM1      80       IM1      H3       HDA3A    0.940000E-01   1.00800           0   0.00000       0.00000    
      8826 IM1      80       IM1      N1       ND2R5A    2.67030       13.6070           0  -1.06300       1.30000    
      8827 IM1      80       IM1      DN1      DRUD     -2.53030      0.400000           0   0.00000       0.00000    
      8828 IM1      80       IM1      C2       CD2R5A    2.51190       11.6110           0  -1.37800       1.30000    
      8829 IM1      80       IM1      DC2      DRUD     -2.88090      0.400000           0   0.00000       0.00000    
      8830 IM1      80       IM1      H4       HDR5A    0.150000       1.00800           0   0.00000       0.00000    
      8831 IM1      80       IM1      C3       CD2R5A    3.06890       11.6110           0  -1.37800       1.30000    
      8832 IM1      80       IM1      DC3      DRUD     -2.88090      0.400000           0   0.00000       0.00000    
      8833 IM1      80       IM1      H5       HDR5A    0.530000E-01   1.00800           0   0.00000       0.00000    
      8834 IM1      80       IM1      C4       CD2R5B    2.40440       11.6110           0 -0.868000       1.30000    
      8835 IM1      80       IM1      DC4      DRUD     -2.28640      0.400000           0   0.00000       0.00000    
      8836 IM1      80       IM1      H6       HDR5B    0.730000E-01   1.00800           0   0.00000       0.00000    
      8837 IM1      80       IM1      N2       ND2R5B    2.24930       13.6070           0 -0.840000       1.00000    
      8838 IM1      80       IM1      DN2      DRUD     -2.24930      0.400000           0   0.00000       0.00000    
      8839 IM1      80       IM1      H7       DUMH      0.00000       1.00800           0   0.00000       0.00000    
      8840 IM1      80       IM1      LPN21    LPD     -0.474000       0.00000          -1   0.00000       0.00000    
      8841 IM1      81       IM1      C1       CD33G     2.39060       11.6110           0  -1.08100       1.00000    
      8842 IM1      81       IM1      DC1      DRUD     -2.55160      0.400000           0   0.00000       0.00000    
      8843 IM1      81       IM1      H1       HDA3A    0.940000E-01   1.00800           0   0.00000       0.00000    
      8844 IM1      81       IM1      H2       HDA3A    0.940000E-01   1.00800           0   0.00000       0.00000    
      8845 IM1      81       IM1      H3       HDA3A    0.940000E-01   1.00800           0   0.00000       0.00000    
      8846 IM1      81       IM1      N1       ND2R5A    2.67030       13.6070           0  -1.06300       1.30000    
      8847 IM1      81       IM1      DN1      DRUD     -2.53030      0.400000           0   0.00000       0.00000    
      8848 IM1      81       IM1      C2       CD2R5A    2.51190       11.6110           0  -1.37800       1.30000    
      8849 IM1      81       IM1      DC2      DRUD     -2.88090      0.400000           0   0.00000       0.00000    
      8850 IM1      81       IM1      H4       HDR5A    0.150000       1.00800           0   0.00000       0.00000    
      8851 IM1      81       IM1      C3       CD2R5A    3.06890       11.6110           0  -1.37800       1.30000    
      8852 IM1      81       IM1      DC3      DRUD     -2.88090      0.400000           0   0.00000       0.00000    
      8853 IM1      81       IM1      H5       HDR5A    0.530000E-01   1.00800           0   0.00000       0.00000    
      8854 IM1      81       IM1      C4       CD2R5B    2.40440       11.6110           0 -0.868000       1.30000    
      8855 IM1      81       IM1      DC4      DRUD     -2.28640      0.400000           0   0.00000       0.00000    
      8856 IM1      81       IM1      H6       HDR5B    0.730000E-01   1.00800           0   0.00000       0.00000    
      8857 IM1      81       IM1      N2       ND2R5B    2.24930       13.6070           0 -0.840000       1.00000    
      8858 IM1      81       IM1      DN2      DRUD     -2.24930      0.400000           0   0.00000       0.00000    
      8859 IM1      81       IM1      H7       DUMH      0.00000       1.00800           0   0.00000       0.00000    
      8860 IM1      81       IM1      LPN21    LPD     -0.474000       0.00000          -1   0.00000       0.00000    
      8861 IM1      82       IM1      C1       CD33G     2.39060       11.6110           0  -1.08100       1.00000    
      8862 IM1      82       IM1      DC1      DRUD     -2.55160      0.400000           0   0.00000       0.00000    
      8863 IM1      82       IM1      H1       HDA3A    0.940000E-01   1.00800           0   0.00000       0.00000    
      8864 IM1      82       IM1      H2       HDA3A    0.940000E-01   1.00800           0   0.00000       0.00000    
      8865 IM1      82       IM1      H3       HDA3A    0.940000E-01   1.00800           0   0.00000       0.00000    
      8866 IM1      82       IM1      N1       ND2R5A    2.67030       13.6070           0  -1.06300       1.30000    
      8867 IM1      82       IM1      DN1      DRUD     -2.53030      0.400000           0   0.00000       0.00000    
      8868 IM1      82       IM1      C2       CD2R5A    2.51190       11.6110           0  -1.37800       1.30000    
      8869 IM1      82       IM1      DC2      DRUD     -2.88090      0.400000           0   0.00000       0.00000    
      8870 IM1      82       IM1      H4       HDR5A    0.150000       1.00800           0   0.00000       0.00000    
      8871 IM1      82       IM1      C3       CD2R5A    3.06890       11.6110           0  -1.37800       1.30000    
      8872 IM1      82       IM1      DC3      DRUD     -2.88090      0.400000           0   0.00000       0.00000    
      8873 IM1      82       IM1      H5       HDR5A    0.530000E-01   1.00800           0   0.00000       0.00000    
      8874 IM1      82       IM1      C4       CD2R5B    2.40440       11.6110           0 -0.868000       1.30000    
      8875 IM1      82       IM1      DC4      DRUD     -2.28640      0.400000           0   0.00000       0.00000    
      8876 IM1      82       IM1      H6       HDR5B    0.730000E-01   1.00800           0   0.00000       0.00000    
      8877 IM1      82       IM1      N2       ND2R5B    2.24930       13.6070           0 -0.840000       1.00000    
      8878 IM1      82       IM1      DN2      DRUD     -2.24930      0.400000           0   0.00000       0.00000    
      8879 IM1      82       IM1      H7       DUMH      0.00000       1.00800           0   0.00000       0.00000    
      8880 IM1      82       IM1      LPN21    LPD     -0.474000       0.00000          -1   0.00000       0.00000    
      8881 IM1      83       IM1      C1       CD33G     2.39060       11.6110           0  -1.08100       1.00000    
      8882 IM1      83       IM1      DC1      DRUD     -2.55160      0.400000           0   0.00000       0.00000    
      8883 IM1      83       IM1      H1       HDA3A    0.940000E-01   1.00800           0   0.00000       0.00000    
      8884 IM1      83       IM1      H2       HDA3A    0.940000E-01   1.00800           0   0.00000       0.00000    
      8885 IM1      83       IM1      H3       HDA3A    0.940000E-01   1.00800           0   0.00000       0.00000    
      8886 IM1      83       IM1      N1       ND2R5A    2.67030       13.6070           0  -1.06300       1.30000    
      8887 IM1      83       IM1      DN1      DRUD     -2.53030      0.400000           0   0.00000       0.00000    
      8888 IM1      83       IM1      C2       CD2R5A    2.51190       11.6110           0  -1.37800       1.30000    
      8889 IM1      83       IM1      DC2      DRUD     -2.88090      0.400000           0   0.00000       0.00000    
      8890 IM1      83       IM1      H4       HDR5A    0.150000       1.00800           0   0.00000       0.00000    
      8891 IM1      83       IM1      C3       CD2R5A    3.06890       11.6110           0  -1.37800       1.30000    
      8892 IM1      83       IM1      DC3      DRUD     -2.88090      0.400000           0   0.00000       0.00000    
      8893 IM1      83       IM1      H5       HDR5A    0.530000E-01   1.00800           0   0.00000       0.00000    
      8894 IM1      83       IM1      C4       CD2R5B    2.40440       11.6110           0 -0.868000       1.30000    
      8895 IM1      83       IM1      DC4      DRUD     -2.28640      0.400000           0   0.00000       0.00000    
      8896 IM1      83       IM1      H6       HDR5B    0.730000E-01   1.00800           0   0.00000       0.00000    
      8897 IM1      83       IM1      N2       ND2R5B    2.24930       13.6070           0 -0.840000       1.00000    
      8898 IM1      83       IM1      DN2      DRUD     -2.24930      0.400000           0   0.00000       0.00000    
      8899 IM1      83       IM1      H7       DUMH      0.00000       1.00800           0   0.00000       0.00000    
      8900 IM1      83       IM1      LPN21    LPD     -0.474000       0.00000          -1   0.00000       0.00000    
      8901 IM1      84       IM1      C1       CD33G     2.39060       11.6110           0  -1.08100       1.00000    
      8902 IM1      84       IM1      DC1      DRUD     -2.55160      0.400000           0   0.00000       0.00000    
      8903 IM1      84       IM1      H1       HDA3A    0.940000E-01   1.00800           0   0.00000       0.00000    
      8904 IM1      84       IM1      H2       HDA3A    0.940000E-01   1.00800           0   0.00000       0.00000    
      8905 IM1      84       IM1      H3       HDA3A    0.940000E-01   1.00800           0   0.00000       0.00000    
      8906 IM1      84       IM1      N1       ND2R5A    2.67030       13.6070           0  -1.06300       1.30000    
      8907 IM1      84       IM1      DN1      DRUD     -2.53030      0.400000           0   0.00000       0.00000    
      8908 IM1      84       IM1      C2       CD2R5A    2.51190       11.6110           0  -1.37800       1.30000    
      8909 IM1      84       IM1      DC2      DRUD     -2.88090      0.400000           0   0.00000       0.00000    
      8910 IM1      84       IM1      H4       HDR5A    0.150000       1.00800           0   0.00000       0.00000    
      8911 IM1      84       IM1      C3       CD2R5A    3.06890       11.6110           0  -1.37800       1.30000    
      8912 IM1      84       IM1      DC3      DRUD     -2.88090      0.400000           0   0.00000       0.00000    
      8913 IM1      84       IM1      H5       HDR5A    0.530000E-01   1.00800           0   0.00000       0.00000    
      8914 IM1      84       IM1      C4       CD2R5B    2.40440       11.6110           0 -0.868000       1.30000    
      8915 IM1      84       IM1      DC4      DRUD     -2.28640      0.400000           0   0.00000       0.00000    
      8916 IM1      84       IM1      H6       HDR5B    0.730000E-01   1.00800           0   0.00000       0.00000    
      8917 IM1      84       IM1      N2       ND2R5B    2.24930       13.6070           0 -0.840000       1.00000    
      8918 IM1      84       IM1      DN2      DRUD     -2.24930      0.400000           0   0.00000       0.00000    
      8919 IM1      84       IM1      H7       DUMH      0.00000       1.00800           0   0.00000       0.00000    
      8920 IM1      84       IM1      LPN21    LPD     -0.474000       0.00000          -1   0.00000       0.00000    
      8921 IM1      85       IM1      C1       CD33G     2.39060       11.6110           0  -1.08100       1.00000    
      8922 IM1      85       IM1      DC1      DRUD     -2.55160      0.400000           0   0.00000       0.00000    
      8923 IM1      85       IM1      H1       HDA3A    0.940000E-01   1.00800           0   0.00000       0.00000    
      8924 IM1      85       IM1      H2       HDA3A    0.940000E-01   1.00800           0   0.00000       0.00000    
      8925 IM1      85       IM1      H3       HDA3A    0.940000E-01   1.00800           0   0.00000       0.00000    
      8926 IM1      85       IM1      N1       ND2R5A    2.67030       13.6070           0  -1.06300       1.30000    
      8927 IM1      85       IM1      DN1      DRUD     -2.53030      0.400000           0   0.00000       0.00000    
      8928 IM1      85       IM1      C2       CD2R5A    2.51190       11.6110           0  -1.37800       1.30000    
      8929 IM1      85       IM1      DC2      DRUD     -2.88090      0.400000           0   0.00000       0.00000    
      8930 IM1      85       IM1      H4       HDR5A    0.150000       1.00800           0   0.00000       0.00000    
      8931 IM1      85       IM1      C3       CD2R5A    3.06890       11.6110           0  -1.37800       1.30000    
      8932 IM1      85       IM1      DC3      DRUD     -2.88090      0.400000           0   0.00000       0.00000    
      8933 IM1      85       IM1      H5       HDR5A    0.530000E-01   1.00800           0   0.00000       0.00000    
      8934 IM1      85       IM1      C4       CD2R5B    2.40440       11.6110           0 -0.868000       1.30000    
      8935 IM1      85       IM1      DC4      DRUD     -2.28640      0.400000           0   0.00000       0.00000    
      8936 IM1      85       IM1      H6       HDR5B    0.730000E-01   1.00800           0   0.00000       0.00000    
      8937 IM1      85       IM1      N2       ND2R5B    2.24930       13.6070           0 -0.840000       1.00000    
      8938 IM1      85       IM1      DN2      DRUD     -2.24930      0.400000           0   0.00000       0.00000    
      8939 IM1      85       IM1      H7       DUMH      0.00000       1.00800           0   0.00000       0.00000    
      8940 IM1      85       IM1      LPN21    LPD     -0.474000       0.00000          -1   0.00000       0.00000    
      8941 IM1      86       IM1      C1       CD33G     2.39060       11.6110           0  -1.08100       1.00000    
      8942 IM1      86       IM1      DC1      DRUD     -2.55160      0.400000           0   0.00000       0.00000    
      8943 IM1      86       IM1      H1       HDA3A    0.940000E-01   1.00800           0   0.00000       0.00000    
      8944 IM1      86       IM1      H2       HDA3A    0.940000E-01   1.00800           0   0.00000       0.00000    
      8945 IM1      86       IM1      H3       HDA3A    0.940000E-01   1.00800           0   0.00000       0.00000    
      8946 IM1      86       IM1      N1       ND2R5A    2.67030       13.6070           0  -1.06300       1.30000    
      8947 IM1      86       IM1      DN1      DRUD     -2.53030      0.400000           0   0.00000       0.00000    
      8948 IM1      86       IM1      C2       CD2R5A    2.51190       11.6110           0  -1.37800       1.30000    
      8949 IM1      86       IM1      DC2      DRUD     -2.88090      0.400000           0   0.00000       0.00000    
      8950 IM1      86       IM1      H4       HDR5A    0.150000       1.00800           0   0.00000       0.00000    
      8951 IM1      86       IM1      C3       CD2R5A    3.06890       11.6110           0  -1.37800       1.30000    
      8952 IM1      86       IM1      DC3      DRUD     -2.88090      0.400000           0   0.00000       0.00000    
      8953 IM1      86       IM1      H5       HDR5A    0.530000E-01   1.00800           0   0.00000       0.00000    
      8954 IM1      86       IM1      C4       CD2R5B    2.40440       11.6110           0 -0.868000       1.30000    
      8955 IM1      86       IM1      DC4      DRUD     -2.28640      0.400000           0   0.00000       0.00000    
      8956 IM1      86       IM1      H6       HDR5B    0.730000E-01   1.00800           0   0.00000       0.00000    
      8957 IM1      86       IM1      N2       ND2R5B    2.24930       13.6070           0 -0.840000       1.00000    
      8958 IM1      86       IM1      DN2      DRUD     -2.24930      0.400000           0   0.00000       0.00000    
      8959 IM1      86       IM1      H7       DUMH      0.00000       1.00800           0   0.00000       0.00000    
      8960 IM1      86       IM1      LPN21    LPD     -0.474000       0.00000          -1   0.00000       0.00000    
      8961 IM1      87       IM1      C1       CD33G     2.39060       11.6110           0  -1.08100       1.00000    
      8962 IM1      87       IM1      DC1      DRUD     -2.55160      0.400000           0   0.00000       0.00000    
      8963 IM1      87       IM1      H1       HDA3A    0.940000E-01   1.00800           0   0.00000       0.00000    
      8964 IM1      87       IM1      H2       HDA3A    0.940000E-01   1.00800           0   0.00000       0.00000    
      8965 IM1      87       IM1      H3       HDA3A    0.940000E-01   1.00800           0   0.00000       0.00000    
      8966 IM1      87       IM1      N1       ND2R5A    2.67030       13.6070           0  -1.06300       1.30000    
      8967 IM1      87       IM1      DN1      DRUD     -2.53030      0.400000           0   0.00000       0.00000    
      8968 IM1      87       IM1      C2       CD2R5A    2.51190       11.6110           0  -1.37800       1.30000    
      8969 IM1      87       IM1      DC2      DRUD     -2.88090      0.400000           0   0.00000       0.00000    
      8970 IM1      87       IM1      H4       HDR5A    0.150000       1.00800           0   0.00000       0.00000    
      8971 IM1      87       IM1      C3       CD2R5A    3.06890       11.6110           0  -1.37800       1.30000    
      8972 IM1      87       IM1      DC3      DRUD     -2.88090      0.400000           0   0.00000       0.00000    
      8973 IM1      87       IM1      H5       HDR5A    0.530000E-01   1.00800           0   0.00000       0.00000    
      8974 IM1      87       IM1      C4       CD2R5B    2.40440       11.6110           0 -0.868000       1.30000    
      8975 IM1      87       IM1      DC4      DRUD     -2.28640      0.400000           0   0.00000       0.00000    
      8976 IM1      87       IM1      H6       HDR5B    0.730000E-01   1.00800           0   0.00000       0.00000    
      8977 IM1      87       IM1      N2       ND2R5B    2.24930       13.6070           0 -0.840000       1.00000    
      8978 IM1      87       IM1      DN2      DRUD     -2.24930      0.400000           0   0.00000       0.00000    
      8979 IM1      87       IM1      H7       DUMH      0.00000       1.00800           0   0.00000       0.00000    
      8980 IM1      87       IM1      LPN21    LPD     -0.474000       0.00000          -1   0.00000       0.00000    
      8981 IM1      88       IM1      C1       CD33G     2.39060       11.6110           0  -1.08100       1.00000    
      8982 IM1      88       IM1      DC1      DRUD     -2.55160      0.400000           0   0.00000       0.00000    
      8983 IM1      88       IM1      H1       HDA3A    0.940000E-01   1.00800           0   0.00000       0.00000    
      8984 IM1      88       IM1      H2       HDA3A    0.940000E-01   1.00800           0   0.00000       0.00000    
      8985 IM1      88       IM1      H3       HDA3A    0.940000E-01   1.00800           0   0.00000       0.00000    
      8986 IM1      88       IM1      N1       ND2R5A    2.67030       13.6070           0  -1.06300       1.30000    
      8987 IM1      88       IM1      DN1      DRUD     -2.53030      0.400000           0   0.00000       0.00000    
      8988 IM1      88       IM1      C2       CD2R5A    2.51190       11.6110           0  -1.37800       1.30000    
      8989 IM1      88       IM1      DC2      DRUD     -2.88090      0.400000           0   0.00000       0.00000    
      8990 IM1      88       IM1      H4       HDR5A    0.150000       1.00800           0   0.00000       0.00000    
      8991 IM1      88       IM1      C3       CD2R5A    3.06890       11.6110           0  -1.37800       1.30000    
      8992 IM1      88       IM1      DC3      DRUD     -2.88090      0.400000           0   0.00000       0.00000    
      8993 IM1      88       IM1      H5       HDR5A    0.530000E-01   1.00800           0   0.00000       0.00000    
      8994 IM1      88       IM1      C4       CD2R5B    2.40440       11.6110           0 -0.868000       1.30000    
      8995 IM1      88       IM1      DC4      DRUD     -2.28640      0.400000           0   0.00000       0.00000    
      8996 IM1      88       IM1      H6       HDR5B    0.730000E-01   1.00800           0   0.00000       0.00000    
      8997 IM1      88       IM1      N2       ND2R5B    2.24930       13.6070           0 -0.840000       1.00000    
      8998 IM1      88       IM1      DN2      DRUD     -2.24930      0.400000           0   0.00000       0.00000    
      8999 IM1      88       IM1      H7       DUMH      0.00000       1.00800           0   0.00000       0.00000    
      9000 IM1      88       IM1      LPN21    LPD     -0.474000       0.00000          -1   0.00000       0.00000    
      9001 IM1      89       IM1      C1       CD33G     2.39060       11.6110           0  -1.08100       1.00000    
      9002 IM1      89       IM1      DC1      DRUD     -2.55160      0.400000           0   0.00000       0.00000    
      9003 IM1      89       IM1      H1       HDA3A    0.940000E-01   1.00800           0   0.00000       0.00000    
      9004 IM1      89       IM1      H2       HDA3A    0.940000E-01   1.00800           0   0.00000       0.00000    
      9005 IM1      89       IM1      H3       HDA3A    0.940000E-01   1.00800           0   0.00000       0.00000    
      9006 IM1      89       IM1      N1       ND2R5A    2.67030       13.6070           0  -1.06300       1.30000    
      9007 IM1      89       IM1      DN1      DRUD     -2.53030      0.400000           0   0.00000       0.00000    
      9008 IM1      89       IM1      C2       CD2R5A    2.51190       11.6110           0  -1.37800       1.30000    
      9009 IM1      89       IM1      DC2      DRUD     -2.88090      0.400000           0   0.00000       0.00000    
      9010 IM1      89       IM1      H4       HDR5A    0.150000       1.00800           0   0.00000       0.00000    
      9011 IM1      89       IM1      C3       CD2R5A    3.06890       11.6110           0  -1.37800       1.30000    
      9012 IM1      89       IM1      DC3      DRUD     -2.88090      0.400000           0   0.00000       0.00000    
      9013 IM1      89       IM1      H5       HDR5A    0.530000E-01   1.00800           0   0.00000       0.00000    
      9014 IM1      89       IM1      C4       CD2R5B    2.40440       11.6110           0 -0.868000       1.30000    
      9015 IM1      89       IM1      DC4      DRUD     -2.28640      0.400000           0   0.00000       0.00000    
      9016 IM1      89       IM1      H6       HDR5B    0.730000E-01   1.00800           0   0.00000       0.00000    
      9017 IM1      89       IM1      N2       ND2R5B    2.24930       13.6070           0 -0.840000       1.00000    
      9018 IM1      89       IM1      DN2      DRUD     -2.24930      0.400000           0   0.00000       0.00000    
      9019 IM1      89       IM1      H7       DUMH      0.00000       1.00800           0   0.00000       0.00000    
      9020 IM1      89       IM1      LPN21    LPD     -0.474000       0.00000          -1   0.00000       0.00000    
      9021 IM1      90       IM1      C1       CD33G     2.39060       11.6110           0  -1.08100       1.00000    
      9022 IM1      90       IM1      DC1      DRUD     -2.55160      0.400000           0   0.00000       0.00000    
      9023 IM1      90       IM1      H1       HDA3A    0.940000E-01   1.00800           0   0.00000       0.00000    
      9024 IM1      90       IM1      H2       HDA3A    0.940000E-01   1.00800           0   0.00000       0.00000    
      9025 IM1      90       IM1      H3       HDA3A    0.940000E-01   1.00800           0   0.00000       0.00000    
      9026 IM1      90       IM1      N1       ND2R5A    2.67030       13.6070           0  -1.06300       1.30000    
      9027 IM1      90       IM1      DN1      DRUD     -2.53030      0.400000           0   0.00000       0.00000    
      9028 IM1      90       IM1      C2       CD2R5A    2.51190       11.6110           0  -1.37800       1.30000    
      9029 IM1      90       IM1      DC2      DRUD     -2.88090      0.400000           0   0.00000       0.00000    
      9030 IM1      90       IM1      H4       HDR5A    0.150000       1.00800           0   0.00000       0.00000    
      9031 IM1      90       IM1      C3       CD2R5A    3.06890       11.6110           0  -1.37800       1.30000    
      9032 IM1      90       IM1      DC3      DRUD     -2.88090      0.400000           0   0.00000       0.00000    
      9033 IM1      90       IM1      H5       HDR5A    0.530000E-01   1.00800           0   0.00000       0.00000    
      9034 IM1      90       IM1      C4       CD2R5B    2.40440       11.6110           0 -0.868000       1.30000    
      9035 IM1      90       IM1      DC4      DRUD     -2.28640      0.400000           0   0.00000       0.00000    
      9036 IM1      90       IM1      H6       HDR5B    0.730000E-01   1.00800           0   0.00000       0.00000    
      9037 IM1      90       IM1      N2       ND2R5B    2.24930       13.6070           0 -0.840000       1.00000    
      9038 IM1      90       IM1      DN2      DRUD     -2.24930      0.400000           0   0.00000       0.00000    
      9039 IM1      90       IM1      H7       DUMH      0.00000       1.00800           0   0.00000       0.00000    
      9040 IM1      90       IM1      LPN21    LPD     -0.474000       0.00000          -1   0.00000       0.00000    
      9041 IM1      91       IM1      C1       CD33G     2.39060       11.6110           0  -1.08100       1.00000    
      9042 IM1      91       IM1      DC1      DRUD     -2.55160      0.400000           0   0.00000       0.00000    
      9043 IM1      91       IM1      H1       HDA3A    0.940000E-01   1.00800           0   0.00000       0.00000    
      9044 IM1      91       IM1      H2       HDA3A    0.940000E-01   1.00800           0   0.00000       0.00000    
      9045 IM1      91       IM1      H3       HDA3A    0.940000E-01   1.00800           0   0.00000       0.00000    
      9046 IM1      91       IM1      N1       ND2R5A    2.67030       13.6070           0  -1.06300       1.30000    
      9047 IM1      91       IM1      DN1      DRUD     -2.53030      0.400000           0   0.00000       0.00000    
      9048 IM1      91       IM1      C2       CD2R5A    2.51190       11.6110           0  -1.37800       1.30000    
      9049 IM1      91       IM1      DC2      DRUD     -2.88090      0.400000           0   0.00000       0.00000    
      9050 IM1      91       IM1      H4       HDR5A    0.150000       1.00800           0   0.00000       0.00000    
      9051 IM1      91       IM1      C3       CD2R5A    3.06890       11.6110           0  -1.37800       1.30000    
      9052 IM1      91       IM1      DC3      DRUD     -2.88090      0.400000           0   0.00000       0.00000    
      9053 IM1      91       IM1      H5       HDR5A    0.530000E-01   1.00800           0   0.00000       0.00000    
      9054 IM1      91       IM1      C4       CD2R5B    2.40440       11.6110           0 -0.868000       1.30000    
      9055 IM1      91       IM1      DC4      DRUD     -2.28640      0.400000           0   0.00000       0.00000    
      9056 IM1      91       IM1      H6       HDR5B    0.730000E-01   1.00800           0   0.00000       0.00000    
      9057 IM1      91       IM1      N2       ND2R5B    2.24930       13.6070           0 -0.840000       1.00000    
      9058 IM1      91       IM1      DN2      DRUD     -2.24930      0.400000           0   0.00000       0.00000    
      9059 IM1      91       IM1      H7       DUMH      0.00000       1.00800           0   0.00000       0.00000    
      9060 IM1      91       IM1      LPN21    LPD     -0.474000       0.00000          -1   0.00000       0.00000    
      9061 IM1      92       IM1      C1       CD33G     2.39060       11.6110           0  -1.08100       1.00000    
      9062 IM1      92       IM1      DC1      DRUD     -2.55160      0.400000           0   0.00000       0.00000    
      9063 IM1      92       IM1      H1       HDA3A    0.940000E-01   1.00800           0   0.00000       0.00000    
      9064 IM1      92       IM1      H2       HDA3A    0.940000E-01   1.00800           0   0.00000       0.00000    
      9065 IM1      92       IM1      H3       HDA3A    0.940000E-01   1.00800           0   0.00000       0.00000    
      9066 IM1      92       IM1      N1       ND2R5A    2.67030       13.6070           0  -1.06300       1.30000    
      9067 IM1      92       IM1      DN1      DRUD     -2.53030      0.400000           0   0.00000       0.00000    
      9068 IM1      92       IM1      C2       CD2R5A    2.51190       11.6110           0  -1.37800       1.30000    
      9069 IM1      92       IM1      DC2      DRUD     -2.88090      0.400000           0   0.00000       0.00000    
      9070 IM1      92       IM1      H4       HDR5A    0.150000       1.00800           0   0.00000       0.00000    
      9071 IM1      92       IM1      C3       CD2R5A    3.06890       11.6110           0  -1.37800       1.30000    
      9072 IM1      92       IM1      DC3      DRUD     -2.88090      0.400000           0   0.00000       0.00000    
      9073 IM1      92       IM1      H5       HDR5A    0.530000E-01   1.00800           0   0.00000       0.00000    
      9074 IM1      92       IM1      C4       CD2R5B    2.40440       11.6110           0 -0.868000       1.30000    
      9075 IM1      92       IM1      DC4      DRUD     -2.28640      0.400000           0   0.00000       0.00000    
      9076 IM1      92       IM1      H6       HDR5B    0.730000E-01   1.00800           0   0.00000       0.00000    
      9077 IM1      92       IM1      N2       ND2R5B    2.24930       13.6070           0 -0.840000       1.00000    
      9078 IM1      92       IM1      DN2      DRUD     -2.24930      0.400000           0   0.00000       0.00000    
      9079 IM1      92       IM1      H7       DUMH      0.00000       1.00800           0   0.00000       0.00000    
      9080 IM1      92       IM1      LPN21    LPD     -0.474000       0.00000          -1   0.00000       0.00000    
      9081 IM1      93       IM1      C1       CD33G     2.39060       11.6110           0  -1.08100       1.00000    
      9082 IM1      93       IM1      DC1      DRUD     -2.55160      0.400000           0   0.00000       0.00000    
      9083 IM1      93       IM1      H1       HDA3A    0.940000E-01   1.00800           0   0.00000       0.00000    
      9084 IM1      93       IM1      H2       HDA3A    0.940000E-01   1.00800           0   0.00000       0.00000    
      9085 IM1      93       IM1      H3       HDA3A    0.940000E-01   1.00800           0   0.00000       0.00000    
      9086 IM1      93       IM1      N1       ND2R5A    2.67030       13.6070           0  -1.06300       1.30000    
      9087 IM1      93       IM1      DN1      DRUD     -2.53030      0.400000           0   0.00000       0.00000    
      9088 IM1      93       IM1      C2       CD2R5A    2.51190       11.6110           0  -1.37800       1.30000    
      9089 IM1      93       IM1      DC2      DRUD     -2.88090      0.400000           0   0.00000       0.00000    
      9090 IM1      93       IM1      H4       HDR5A    0.150000       1.00800           0   0.00000       0.00000    
      9091 IM1      93       IM1      C3       CD2R5A    3.06890       11.6110           0  -1.37800       1.30000    
      9092 IM1      93       IM1      DC3      DRUD     -2.88090      0.400000           0   0.00000       0.00000    
      9093 IM1      93       IM1      H5       HDR5A    0.530000E-01   1.00800           0   0.00000       0.00000    
      9094 IM1      93       IM1      C4       CD2R5B    2.40440       11.6110           0 -0.868000       1.30000    
      9095 IM1      93       IM1      DC4      DRUD     -2.28640      0.400000           0   0.00000       0.00000    
      9096 IM1      93       IM1      H6       HDR5B    0.730000E-01   1.00800           0   0.00000       0.00000    
      9097 IM1      93       IM1      N2       ND2R5B    2.24930       13.6070           0 -0.840000       1.00000    
      9098 IM1      93       IM1      DN2      DRUD     -2.24930      0.400000           0   0.00000       0.00000    
      9099 IM1      93       IM1      H7       DUMH      0.00000       1.00800           0   0.00000       0.00000    
      9100 IM1      93       IM1      LPN21    LPD     -0.474000       0.00000          -1   0.00000       0.00000    
      9101 IM1      94       IM1      C1       CD33G     2.39060       11.6110           0  -1.08100       1.00000    
      9102 IM1      94       IM1      DC1      DRUD     -2.55160      0.400000           0   0.00000       0.00000    
      9103 IM1      94       IM1      H1       HDA3A    0.940000E-01   1.00800           0   0.00000       0.00000    
      9104 IM1      94       IM1      H2       HDA3A    0.940000E-01   1.00800           0   0.00000       0.00000    
      9105 IM1      94       IM1      H3       HDA3A    0.940000E-01   1.00800           0   0.00000       0.00000    
      9106 IM1      94       IM1      N1       ND2R5A    2.67030       13.6070           0  -1.06300       1.30000    
      9107 IM1      94       IM1      DN1      DRUD     -2.53030      0.400000           0   0.00000       0.00000    
      9108 IM1      94       IM1      C2       CD2R5A    2.51190       11.6110           0  -1.37800       1.30000    
      9109 IM1      94       IM1      DC2      DRUD     -2.88090      0.400000           0   0.00000       0.00000    
      9110 IM1      94       IM1      H4       HDR5A    0.150000       1.00800           0   0.00000       0.00000    
      9111 IM1      94       IM1      C3       CD2R5A    3.06890       11.6110           0  -1.37800       1.30000    
      9112 IM1      94       IM1      DC3      DRUD     -2.88090      0.400000           0   0.00000       0.00000    
      9113 IM1      94       IM1      H5       HDR5A    0.530000E-01   1.00800           0   0.00000       0.00000    
      9114 IM1      94       IM1      C4       CD2R5B    2.40440       11.6110           0 -0.868000       1.30000    
      9115 IM1      94       IM1      DC4      DRUD     -2.28640      0.400000           0   0.00000       0.00000    
      9116 IM1      94       IM1      H6       HDR5B    0.730000E-01   1.00800           0   0.00000       0.00000    
      9117 IM1      94       IM1      N2       ND2R5B    2.24930       13.6070           0 -0.840000       1.00000    
      9118 IM1      94       IM1      DN2      DRUD     -2.24930      0.400000           0   0.00000       0.00000    
      9119 IM1      94       IM1      H7       DUMH      0.00000       1.00800           0   0.00000       0.00000    
      9120 IM1      94       IM1      LPN21    LPD     -0.474000       0.00000          -1   0.00000       0.00000    
      9121 IM1      95       IM1      C1       CD33G     2.39060       11.6110           0  -1.08100       1.00000    
      9122 IM1      95       IM1      DC1      DRUD     -2.55160      0.400000           0   0.00000       0.00000    
      9123 IM1      95       IM1      H1       HDA3A    0.940000E-01   1.00800           0   0.00000       0.00000    
      9124 IM1      95       IM1      H2       HDA3A    0.940000E-01   1.00800           0   0.00000       0.00000    
      9125 IM1      95       IM1      H3       HDA3A    0.940000E-01   1.00800           0   0.00000       0.00000    
      9126 IM1      95       IM1      N1       ND2R5A    2.67030       13.6070           0  -1.06300       1.30000    
      9127 IM1      95       IM1      DN1      DRUD     -2.53030      0.400000           0   0.00000       0.00000    
      9128 IM1      95       IM1      C2       CD2R5A    2.51190       11.6110           0  -1.37800       1.30000    
      9129 IM1      95       IM1      DC2      DRUD     -2.88090      0.400000           0   0.00000       0.00000    
      9130 IM1      95       IM1      H4       HDR5A    0.150000       1.00800           0   0.00000       0.00000    
      9131 IM1      95       IM1      C3       CD2R5A    3.06890       11.6110           0  -1.37800       1.30000    
      9132 IM1      95       IM1      DC3      DRUD     -2.88090      0.400000           0   0.00000       0.00000    
      9133 IM1      95       IM1      H5       HDR5A    0.530000E-01   1.00800           0   0.00000       0.00000    
      9134 IM1      95       IM1      C4       CD2R5B    2.40440       11.6110           0 -0.868000       1.30000    
      9135 IM1      95       IM1      DC4      DRUD     -2.28640      0.400000           0   0.00000       0.00000    
      9136 IM1      95       IM1      H6       HDR5B    0.730000E-01   1.00800           0   0.00000       0.00000    
      9137 IM1      95       IM1      N2       ND2R5B    2.24930       13.6070           0 -0.840000       1.00000    
      9138 IM1      95       IM1      DN2      DRUD     -2.24930      0.400000           0   0.00000       0.00000    
      9139 IM1      95       IM1      H7       DUMH      0.00000       1.00800           0   0.00000       0.00000    
      9140 IM1      95       IM1      LPN21    LPD     -0.474000       0.00000          -1   0.00000       0.00000    
      9141 IM1      96       IM1      C1       CD33G     2.39060       11.6110           0  -1.08100       1.00000    
      9142 IM1      96       IM1      DC1      DRUD     -2.55160      0.400000           0   0.00000       0.00000    
      9143 IM1      96       IM1      H1       HDA3A    0.940000E-01   1.00800           0   0.00000       0.00000    
      9144 IM1      96       IM1      H2       HDA3A    0.940000E-01   1.00800           0   0.00000       0.00000    
      9145 IM1      96       IM1      H3       HDA3A    0.940000E-01   1.00800           0   0.00000       0.00000    
      9146 IM1      96       IM1      N1       ND2R5A    2.67030       13.6070           0  -1.06300       1.30000    
      9147 IM1      96       IM1      DN1      DRUD     -2.53030      0.400000           0   0.00000       0.00000    
      9148 IM1      96       IM1      C2       CD2R5A    2.51190       11.6110           0  -1.37800       1.30000    
      9149 IM1      96       IM1      DC2      DRUD     -2.88090      0.400000           0   0.00000       0.00000    
      9150 IM1      96       IM1      H4       HDR5A    0.150000       1.00800           0   0.00000       0.00000    
      9151 IM1      96       IM1      C3       CD2R5A    3.06890       11.6110           0  -1.37800       1.30000    
      9152 IM1      96       IM1      DC3      DRUD     -2.88090      0.400000           0   0.00000       0.00000    
      9153 IM1      96       IM1      H5       HDR5A    0.530000E-01   1.00800           0   0.00000       0.00000    
      9154 IM1      96       IM1      C4       CD2R5B    2.40440       11.6110           0 -0.868000       1.30000    
      9155 IM1      96       IM1      DC4      DRUD     -2.28640      0.400000           0   0.00000       0.00000    
      9156 IM1      96       IM1      H6       HDR5B    0.730000E-01   1.00800           0   0.00000       0.00000    
      9157 IM1      96       IM1      N2       ND2R5B    2.24930       13.6070           0 -0.840000       1.00000    
      9158 IM1      96       IM1      DN2      DRUD     -2.24930      0.400000           0   0.00000       0.00000    
      9159 IM1      96       IM1      H7       DUMH      0.00000       1.00800           0   0.00000       0.00000    
      9160 IM1      96       IM1      LPN21    LPD     -0.474000       0.00000          -1   0.00000       0.00000    
      9161 IM1      97       IM1      C1       CD33G     2.39060       11.6110           0  -1.08100       1.00000    
      9162 IM1      97       IM1      DC1      DRUD     -2.55160      0.400000           0   0.00000       0.00000    
      9163 IM1      97       IM1      H1       HDA3A    0.940000E-01   1.00800           0   0.00000       0.00000    
      9164 IM1      97       IM1      H2       HDA3A    0.940000E-01   1.00800           0   0.00000       0.00000    
      9165 IM1      97       IM1      H3       HDA3A    0.940000E-01   1.00800           0   0.00000       0.00000    
      9166 IM1      97       IM1      N1       ND2R5A    2.67030       13.6070           0  -1.06300       1.30000    
      9167 IM1      97       IM1      DN1      DRUD     -2.53030      0.400000           0   0.00000       0.00000    
      9168 IM1      97       IM1      C2       CD2R5A    2.51190       11.6110           0  -1.37800       1.30000    
      9169 IM1      97       IM1      DC2      DRUD     -2.88090      0.400000           0   0.00000       0.00000    
      9170 IM1      97       IM1      H4       HDR5A    0.150000       1.00800           0   0.00000       0.00000    
      9171 IM1      97       IM1      C3       CD2R5A    3.06890       11.6110           0  -1.37800       1.30000    
      9172 IM1      97       IM1      DC3      DRUD     -2.88090      0.400000           0   0.00000       0.00000    
      9173 IM1      97       IM1      H5       HDR5A    0.530000E-01   1.00800           0   0.00000       0.00000    
      9174 IM1      97       IM1      C4       CD2R5B    2.40440       11.6110           0 -0.868000       1.30000    
      9175 IM1      97       IM1      DC4      DRUD     -2.28640      0.400000           0   0.00000       0.00000    
      9176 IM1      97       IM1      H6       HDR5B    0.730000E-01   1.00800           0   0.00000       0.00000    
      9177 IM1      97       IM1      N2       ND2R5B    2.24930       13.6070           0 -0.840000       1.00000    
      9178 IM1      97       IM1      DN2      DRUD     -2.24930      0.400000           0   0.00000       0.00000    
      9179 IM1      97       IM1      H7       DUMH      0.00000       1.00800           0   0.00000       0.00000    
      9180 IM1      97       IM1      LPN21    LPD     -0.474000       0.00000          -1   0.00000       0.00000    
      9181 IM1      98       IM1      C1       CD33G     2.39060       11.6110           0  -1.08100       1.00000    
      9182 IM1      98       IM1      DC1      DRUD     -2.55160      0.400000           0   0.00000       0.00000    
      9183 IM1      98       IM1      H1       HDA3A    0.940000E-01   1.00800           0   0.00000       0.00000    
      9184 IM1      98       IM1      H2       HDA3A    0.940000E-01   1.00800           0   0.00000       0.00000    
      9185 IM1      98       IM1      H3       HDA3A    0.940000E-01   1.00800           0   0.00000       0.00000    
      9186 IM1      98       IM1      N1       ND2R5A    2.67030       13.6070           0  -1.06300       1.30000    
      9187 IM1      98       IM1      DN1      DRUD     -2.53030      0.400000           0   0.00000       0.00000    
      9188 IM1      98       IM1      C2       CD2R5A    2.51190       11.6110           0  -1.37800       1.30000    
      9189 IM1      98       IM1      DC2      DRUD     -2.88090      0.400000           0   0.00000       0.00000    
      9190 IM1      98       IM1      H4       HDR5A    0.150000       1.00800           0   0.00000       0.00000    
      9191 IM1      98       IM1      C3       CD2R5A    3.06890       11.6110           0  -1.37800       1.30000    
      9192 IM1      98       IM1      DC3      DRUD     -2.88090      0.400000           0   0.00000       0.00000    
      9193 IM1      98       IM1      H5       HDR5A    0.530000E-01   1.00800           0   0.00000       0.00000    
      9194 IM1      98       IM1      C4       CD2R5B    2.40440       11.6110           0 -0.868000       1.30000    
      9195 IM1      98       IM1      DC4      DRUD     -2.28640      0.400000           0   0.00000       0.00000    
      9196 IM1      98       IM1      H6       HDR5B    0.730000E-01   1.00800           0   0.00000       0.00000    
      9197 IM1      98       IM1      N2       ND2R5B    2.24930       13.6070           0 -0.840000       1.00000    
      9198 IM1      98       IM1      DN2      DRUD     -2.24930      0.400000           0   0.00000       0.00000    
      9199 IM1      98       IM1      H7       DUMH      0.00000       1.00800           0   0.00000       0.00000    
      9200 IM1      98       IM1      LPN21    LPD     -0.474000       0.00000          -1   0.00000       0.00000    
      9201 IM1      99       IM1      C1       CD33G     2.39060       11.6110           0  -1.08100       1.00000    
      9202 IM1      99       IM1      DC1      DRUD     -2.55160      0.400000           0   0.00000       0.00000    
      9203 IM1      99       IM1      H1       HDA3A    0.940000E-01   1.00800           0   0.00000       0.00000    
      9204 IM1      99       IM1      H2       HDA3A    0.940000E-01   1.00800           0   0.00000       0.00000    
      9205 IM1      99       IM1      H3       HDA3A    0.940000E-01   1.00800           0   0.00000       0.00000    
      9206 IM1      99       IM1      N1       ND2R5A    2.67030       13.6070           0  -1.06300       1.30000    
      9207 IM1      99       IM1      DN1      DRUD     -2.53030      0.400000           0   0.00000       0.00000    
      9208 IM1      99       IM1      C2       CD2R5A    2.51190       11.6110           0  -1.37800       1.30000    
      9209 IM1      99       IM1      DC2      DRUD     -2.88090      0.400000           0   0.00000       0.00000    
      9210 IM1      99       IM1      H4       HDR5A    0.150000       1.00800           0   0.00000       0.00000    
      9211 IM1      99       IM1      C3       CD2R5A    3.06890       11.6110           0  -1.37800       1.30000    
      9212 IM1      99       IM1      DC3      DRUD     -2.88090      0.400000           0   0.00000       0.00000    
      9213 IM1      99       IM1      H5       HDR5A    0.530000E-01   1.00800           0   0.00000       0.00000    
      9214 IM1      99       IM1      C4       CD2R5B    2.40440       11.6110           0 -0.868000       1.30000    
      9215 IM1      99       IM1      DC4      DRUD     -2.28640      0.400000           0   0.00000       0.00000    
      9216 IM1      99       IM1      H6       HDR5B    0.730000E-01   1.00800           0   0.00000       0.00000    
      9217 IM1      99       IM1      N2       ND2R5B    2.24930       13.6070           0 -0.840000       1.00000    
      9218 IM1      99       IM1      DN2      DRUD     -2.24930      0.400000           0   0.00000       0.00000    
      9219 IM1      99       IM1      H7       DUMH      0.00000       1.00800           0   0.00000       0.00000    
      9220 IM1      99       IM1      LPN21    LPD     -0.474000       0.00000          -1   0.00000       0.00000    
      9221 IM1      100      IM1      C1       CD33G     2.39060       11.6110           0  -1.08100       1.00000    
      9222 IM1      100      IM1      DC1      DRUD     -2.55160      0.400000           0   0.00000       0.00000    
      9223 IM1      100      IM1      H1       HDA3A    0.940000E-01   1.00800           0   0.00000       0.00000    
      9224 IM1      100      IM1      H2       HDA3A    0.940000E-01   1.00800           0   0.00000       0.00000    
      9225 IM1      100      IM1      H3       HDA3A    0.940000E-01   1.00800           0   0.00000       0.00000    
      9226 IM1      100      IM1      N1       ND2R5A    2.67030       13.6070           0  -1.06300       1.30000    
      9227 IM1      100      IM1      DN1      DRUD     -2.53030      0.400000           0   0.00000       0.00000    
      9228 IM1      100      IM1      C2       CD2R5A    2.51190       11.6110           0  -1.37800       1.30000    
      9229 IM1      100      IM1      DC2      DRUD     -2.88090      0.400000           0   0.00000       0.00000    
      9230 IM1      100      IM1      H4       HDR5A    0.150000       1.00800           0   0.00000       0.00000    
      9231 IM1      100      IM1      C3       CD2R5A    3.06890       11.6110           0  -1.37800       1.30000    
      9232 IM1      100      IM1      DC3      DRUD     -2.88090      0.400000           0   0.00000       0.00000    
      9233 IM1      100      IM1      H5       HDR5A    0.530000E-01   1.00800           0   0.00000       0.00000    
      9234 IM1      100      IM1      C4       CD2R5B    2.40440       11.6110           0 -0.868000       1.30000    
      9235 IM1      100      IM1      DC4      DRUD     -2.28640      0.400000           0   0.00000       0.00000    
      9236 IM1      100      IM1      H6       HDR5B    0.730000E-01   1.00800           0   0.00000       0.00000    
      9237 IM1      100      IM1      N2       ND2R5B    2.24930       13.6070           0 -0.840000       1.00000    
      9238 IM1      100      IM1      DN2      DRUD     -2.24930      0.400000           0   0.00000       0.00000    
      9239 IM1      100      IM1      H7       DUMH      0.00000       1.00800           0   0.00000       0.00000    
      9240 IM1      100      IM1      LPN21    LPD     -0.474000       0.00000          -1   0.00000       0.00000    
      9241 IM1      101      IM1      C1       CD33G     2.39060       11.6110           0  -1.08100       1.00000    
      9242 IM1      101      IM1      DC1      DRUD     -2.55160      0.400000           0   0.00000       0.00000    
      9243 IM1      101      IM1      H1       HDA3A    0.940000E-01   1.00800           0   0.00000       0.00000    
      9244 IM1      101      IM1      H2       HDA3A    0.940000E-01   1.00800           0   0.00000       0.00000    
      9245 IM1      101      IM1      H3       HDA3A    0.940000E-01   1.00800           0   0.00000       0.00000    
      9246 IM1      101      IM1      N1       ND2R5A    2.67030       13.6070           0  -1.06300       1.30000    
      9247 IM1      101      IM1      DN1      DRUD     -2.53030      0.400000           0   0.00000       0.00000    
      9248 IM1      101      IM1      C2       CD2R5A    2.51190       11.6110           0  -1.37800       1.30000    
      9249 IM1      101      IM1      DC2      DRUD     -2.88090      0.400000           0   0.00000       0.00000    
      9250 IM1      101      IM1      H4       HDR5A    0.150000       1.00800           0   0.00000       0.00000    
      9251 IM1      101      IM1      C3       CD2R5A    3.06890       11.6110           0  -1.37800       1.30000    
      9252 IM1      101      IM1      DC3      DRUD     -2.88090      0.400000           0   0.00000       0.00000    
      9253 IM1      101      IM1      H5       HDR5A    0.530000E-01   1.00800           0   0.00000       0.00000    
      9254 IM1      101      IM1      C4       CD2R5B    2.40440       11.6110           0 -0.868000       1.30000    
      9255 IM1      101      IM1      DC4      DRUD     -2.28640      0.400000           0   0.00000       0.00000    
      9256 IM1      101      IM1      H6       HDR5B    0.730000E-01   1.00800           0   0.00000       0.00000    
      9257 IM1      101      IM1      N2       ND2R5B    2.24930       13.6070           0 -0.840000       1.00000    
      9258 IM1      101      IM1      DN2      DRUD     -2.24930      0.400000           0   0.00000       0.00000    
      9259 IM1      101      IM1      H7       DUMH      0.00000       1.00800           0   0.00000       0.00000    
      9260 IM1      101      IM1      LPN21    LPD     -0.474000       0.00000          -1   0.00000       0.00000    
      9261 IM1      102      IM1      C1       CD33G     2.39060       11.6110           0  -1.08100       1.00000    
      9262 IM1      102      IM1      DC1      DRUD     -2.55160      0.400000           0   0.00000       0.00000    
      9263 IM1      102      IM1      H1       HDA3A    0.940000E-01   1.00800           0   0.00000       0.00000    
      9264 IM1      102      IM1      H2       HDA3A    0.940000E-01   1.00800           0   0.00000       0.00000    
      9265 IM1      102      IM1      H3       HDA3A    0.940000E-01   1.00800           0   0.00000       0.00000    
      9266 IM1      102      IM1      N1       ND2R5A    2.67030       13.6070           0  -1.06300       1.30000    
      9267 IM1      102      IM1      DN1      DRUD     -2.53030      0.400000           0   0.00000       0.00000    
      9268 IM1      102      IM1      C2       CD2R5A    2.51190       11.6110           0  -1.37800       1.30000    
      9269 IM1      102      IM1      DC2      DRUD     -2.88090      0.400000           0   0.00000       0.00000    
      9270 IM1      102      IM1      H4       HDR5A    0.150000       1.00800           0   0.00000       0.00000    
      9271 IM1      102      IM1      C3       CD2R5A    3.06890       11.6110           0  -1.37800       1.30000    
      9272 IM1      102      IM1      DC3      DRUD     -2.88090      0.400000           0   0.00000       0.00000    
      9273 IM1      102      IM1      H5       HDR5A    0.530000E-01   1.00800           0   0.00000       0.00000    
      9274 IM1      102      IM1      C4       CD2R5B    2.40440       11.6110           0 -0.868000       1.30000    
      9275 IM1      102      IM1      DC4      DRUD     -2.28640      0.400000           0   0.00000       0.00000    
      9276 IM1      102      IM1      H6       HDR5B    0.730000E-01   1.00800           0   0.00000       0.00000    
      9277 IM1      102      IM1      N2       ND2R5B    2.24930       13.6070           0 -0.840000       1.00000    
      9278 IM1      102      IM1      DN2      DRUD     -2.24930      0.400000           0   0.00000       0.00000    
      9279 IM1      102      IM1      H7       DUMH      0.00000       1.00800           0   0.00000       0.00000    
      9280 IM1      102      IM1      LPN21    LPD     -0.474000       0.00000          -1   0.00000       0.00000    
      9281 IM1      103      IM1      C1       CD33G     2.39060       11.6110           0  -1.08100       1.00000    
      9282 IM1      103      IM1      DC1      DRUD     -2.55160      0.400000           0   0.00000       0.00000    
      9283 IM1      103      IM1      H1       HDA3A    0.940000E-01   1.00800           0   0.00000       0.00000    
      9284 IM1      103      IM1      H2       HDA3A    0.940000E-01   1.00800           0   0.00000       0.00000    
      9285 IM1      103      IM1      H3       HDA3A    0.940000E-01   1.00800           0   0.00000       0.00000    
      9286 IM1      103      IM1      N1       ND2R5A    2.67030       13.6070           0  -1.06300       1.30000    
      9287 IM1      103      IM1      DN1      DRUD     -2.53030      0.400000           0   0.00000       0.00000    
      9288 IM1      103      IM1      C2       CD2R5A    2.51190       11.6110           0  -1.37800       1.30000    
      9289 IM1      103      IM1      DC2      DRUD     -2.88090      0.400000           0   0.00000       0.00000    
      9290 IM1      103      IM1      H4       HDR5A    0.150000       1.00800           0   0.00000       0.00000    
      9291 IM1      103      IM1      C3       CD2R5A    3.06890       11.6110           0  -1.37800       1.30000    
      9292 IM1      103      IM1      DC3      DRUD     -2.88090      0.400000           0   0.00000       0.00000    
      9293 IM1      103      IM1      H5       HDR5A    0.530000E-01   1.00800           0   0.00000       0.00000    
      9294 IM1      103      IM1      C4       CD2R5B    2.40440       11.6110           0 -0.868000       1.30000    
      9295 IM1      103      IM1      DC4      DRUD     -2.28640      0.400000           0   0.00000       0.00000    
      9296 IM1      103      IM1      H6       HDR5B    0.730000E-01   1.00800           0   0.00000       0.00000    
      9297 IM1      103      IM1      N2       ND2R5B    2.24930       13.6070           0 -0.840000       1.00000    
      9298 IM1      103      IM1      DN2      DRUD     -2.24930      0.400000           0   0.00000       0.00000    
      9299 IM1      103      IM1      H7       DUMH      0.00000       1.00800           0   0.00000       0.00000    
      9300 IM1      103      IM1      LPN21    LPD     -0.474000       0.00000          -1   0.00000       0.00000    
      9301 IM1      104      IM1      C1       CD33G     2.39060       11.6110           0  -1.08100       1.00000    
      9302 IM1      104      IM1      DC1      DRUD     -2.55160      0.400000           0   0.00000       0.00000    
      9303 IM1      104      IM1      H1       HDA3A    0.940000E-01   1.00800           0   0.00000       0.00000    
      9304 IM1      104      IM1      H2       HDA3A    0.940000E-01   1.00800           0   0.00000       0.00000    
      9305 IM1      104      IM1      H3       HDA3A    0.940000E-01   1.00800           0   0.00000       0.00000    
      9306 IM1      104      IM1      N1       ND2R5A    2.67030       13.6070           0  -1.06300       1.30000    
      9307 IM1      104      IM1      DN1      DRUD     -2.53030      0.400000           0   0.00000       0.00000    
      9308 IM1      104      IM1      C2       CD2R5A    2.51190       11.6110           0  -1.37800       1.30000    
      9309 IM1      104      IM1      DC2      DRUD     -2.88090      0.400000           0   0.00000       0.00000    
      9310 IM1      104      IM1      H4       HDR5A    0.150000       1.00800           0   0.00000       0.00000    
      9311 IM1      104      IM1      C3       CD2R5A    3.06890       11.6110           0  -1.37800       1.30000    
      9312 IM1      104      IM1      DC3      DRUD     -2.88090      0.400000           0   0.00000       0.00000    
      9313 IM1      104      IM1      H5       HDR5A    0.530000E-01   1.00800           0   0.00000       0.00000    
      9314 IM1      104      IM1      C4       CD2R5B    2.40440       11.6110           0 -0.868000       1.30000    
      9315 IM1      104      IM1      DC4      DRUD     -2.28640      0.400000           0   0.00000       0.00000    
      9316 IM1      104      IM1      H6       HDR5B    0.730000E-01   1.00800           0   0.00000       0.00000    
      9317 IM1      104      IM1      N2       ND2R5B    2.24930       13.6070           0 -0.840000       1.00000    
      9318 IM1      104      IM1      DN2      DRUD     -2.24930      0.400000           0   0.00000       0.00000    
      9319 IM1      104      IM1      H7       DUMH      0.00000       1.00800           0   0.00000       0.00000    
      9320 IM1      104      IM1      LPN21    LPD     -0.474000       0.00000          -1   0.00000       0.00000    
      9321 IM1      105      IM1      C1       CD33G     2.39060       11.6110           0  -1.08100       1.00000    
      9322 IM1      105      IM1      DC1      DRUD     -2.55160      0.400000           0   0.00000       0.00000    
      9323 IM1      105      IM1      H1       HDA3A    0.940000E-01   1.00800           0   0.00000       0.00000    
      9324 IM1      105      IM1      H2       HDA3A    0.940000E-01   1.00800           0   0.00000       0.00000    
      9325 IM1      105      IM1      H3       HDA3A    0.940000E-01   1.00800           0   0.00000       0.00000    
      9326 IM1      105      IM1      N1       ND2R5A    2.67030       13.6070           0  -1.06300       1.30000    
      9327 IM1      105      IM1      DN1      DRUD     -2.53030      0.400000           0   0.00000       0.00000    
      9328 IM1      105      IM1      C2       CD2R5A    2.51190       11.6110           0  -1.37800       1.30000    
      9329 IM1      105      IM1      DC2      DRUD     -2.88090      0.400000           0   0.00000       0.00000    
      9330 IM1      105      IM1      H4       HDR5A    0.150000       1.00800           0   0.00000       0.00000    
      9331 IM1      105      IM1      C3       CD2R5A    3.06890       11.6110           0  -1.37800       1.30000    
      9332 IM1      105      IM1      DC3      DRUD     -2.88090      0.400000           0   0.00000       0.00000    
      9333 IM1      105      IM1      H5       HDR5A    0.530000E-01   1.00800           0   0.00000       0.00000    
      9334 IM1      105      IM1      C4       CD2R5B    2.40440       11.6110           0 -0.868000       1.30000    
      9335 IM1      105      IM1      DC4      DRUD     -2.28640      0.400000           0   0.00000       0.00000    
      9336 IM1      105      IM1      H6       HDR5B    0.730000E-01   1.00800           0   0.00000       0.00000    
      9337 IM1      105      IM1      N2       ND2R5B    2.24930       13.6070           0 -0.840000       1.00000    
      9338 IM1      105      IM1      DN2      DRUD     -2.24930      0.400000           0   0.00000       0.00000    
      9339 IM1      105      IM1      H7       DUMH      0.00000       1.00800           0   0.00000       0.00000    
      9340 IM1      105      IM1      LPN21    LPD     -0.474000       0.00000          -1   0.00000       0.00000    
      9341 IM1      106      IM1      C1       CD33G     2.39060       11.6110           0  -1.08100       1.00000    
      9342 IM1      106      IM1      DC1      DRUD     -2.55160      0.400000           0   0.00000       0.00000    
      9343 IM1      106      IM1      H1       HDA3A    0.940000E-01   1.00800           0   0.00000       0.00000    
      9344 IM1      106      IM1      H2       HDA3A    0.940000E-01   1.00800           0   0.00000       0.00000    
      9345 IM1      106      IM1      H3       HDA3A    0.940000E-01   1.00800           0   0.00000       0.00000    
      9346 IM1      106      IM1      N1       ND2R5A    2.67030       13.6070           0  -1.06300       1.30000    
      9347 IM1      106      IM1      DN1      DRUD     -2.53030      0.400000           0   0.00000       0.00000    
      9348 IM1      106      IM1      C2       CD2R5A    2.51190       11.6110           0  -1.37800       1.30000    
      9349 IM1      106      IM1      DC2      DRUD     -2.88090      0.400000           0   0.00000       0.00000    
      9350 IM1      106      IM1      H4       HDR5A    0.150000       1.00800           0   0.00000       0.00000    
      9351 IM1      106      IM1      C3       CD2R5A    3.06890       11.6110           0  -1.37800       1.30000    
      9352 IM1      106      IM1      DC3      DRUD     -2.88090      0.400000           0   0.00000       0.00000    
      9353 IM1      106      IM1      H5       HDR5A    0.530000E-01   1.00800           0   0.00000       0.00000    
      9354 IM1      106      IM1      C4       CD2R5B    2.40440       11.6110           0 -0.868000       1.30000    
      9355 IM1      106      IM1      DC4      DRUD     -2.28640      0.400000           0   0.00000       0.00000    
      9356 IM1      106      IM1      H6       HDR5B    0.730000E-01   1.00800           0   0.00000       0.00000    
      9357 IM1      106      IM1      N2       ND2R5B    2.24930       13.6070           0 -0.840000       1.00000    
      9358 IM1      106      IM1      DN2      DRUD     -2.24930      0.400000           0   0.00000       0.00000    
      9359 IM1      106      IM1      H7       DUMH      0.00000       1.00800           0   0.00000       0.00000    
      9360 IM1      106      IM1      LPN21    LPD     -0.474000       0.00000          -1   0.00000       0.00000    
      9361 IM1      107      IM1      C1       CD33G     2.39060       11.6110           0  -1.08100       1.00000    
      9362 IM1      107      IM1      DC1      DRUD     -2.55160      0.400000           0   0.00000       0.00000    
      9363 IM1      107      IM1      H1       HDA3A    0.940000E-01   1.00800           0   0.00000       0.00000    
      9364 IM1      107      IM1      H2       HDA3A    0.940000E-01   1.00800           0   0.00000       0.00000    
      9365 IM1      107      IM1      H3       HDA3A    0.940000E-01   1.00800           0   0.00000       0.00000    
      9366 IM1      107      IM1      N1       ND2R5A    2.67030       13.6070           0  -1.06300       1.30000    
      9367 IM1      107      IM1      DN1      DRUD     -2.53030      0.400000           0   0.00000       0.00000    
      9368 IM1      107      IM1      C2       CD2R5A    2.51190       11.6110           0  -1.37800       1.30000    
      9369 IM1      107      IM1      DC2      DRUD     -2.88090      0.400000           0   0.00000       0.00000    
      9370 IM1      107      IM1      H4       HDR5A    0.150000       1.00800           0   0.00000       0.00000    
      9371 IM1      107      IM1      C3       CD2R5A    3.06890       11.6110           0  -1.37800       1.30000    
      9372 IM1      107      IM1      DC3      DRUD     -2.88090      0.400000           0   0.00000       0.00000    
      9373 IM1      107      IM1      H5       HDR5A    0.530000E-01   1.00800           0   0.00000       0.00000    
      9374 IM1      107      IM1      C4       CD2R5B    2.40440       11.6110           0 -0.868000       1.30000    
      9375 IM1      107      IM1      DC4      DRUD     -2.28640      0.400000           0   0.00000       0.00000    
      9376 IM1      107      IM1      H6       HDR5B    0.730000E-01   1.00800           0   0.00000       0.00000    
      9377 IM1      107      IM1      N2       ND2R5B    2.24930       13.6070           0 -0.840000       1.00000    
      9378 IM1      107      IM1      DN2      DRUD     -2.24930      0.400000           0   0.00000       0.00000    
      9379 IM1      107      IM1      H7       DUMH      0.00000       1.00800           0   0.00000       0.00000    
      9380 IM1      107      IM1      LPN21    LPD     -0.474000       0.00000          -1   0.00000       0.00000    
      9381 IM1      108      IM1      C1       CD33G     2.39060       11.6110           0  -1.08100       1.00000    
      9382 IM1      108      IM1      DC1      DRUD     -2.55160      0.400000           0   0.00000       0.00000    
      9383 IM1      108      IM1      H1       HDA3A    0.940000E-01   1.00800           0   0.00000       0.00000    
      9384 IM1      108      IM1      H2       HDA3A    0.940000E-01   1.00800           0   0.00000       0.00000    
      9385 IM1      108      IM1      H3       HDA3A    0.940000E-01   1.00800           0   0.00000       0.00000    
      9386 IM1      108      IM1      N1       ND2R5A    2.67030       13.6070           0  -1.06300       1.30000    
      9387 IM1      108      IM1      DN1      DRUD     -2.53030      0.400000           0   0.00000       0.00000    
      9388 IM1      108      IM1      C2       CD2R5A    2.51190       11.6110           0  -1.37800       1.30000    
      9389 IM1      108      IM1      DC2      DRUD     -2.88090      0.400000           0   0.00000       0.00000    
      9390 IM1      108      IM1      H4       HDR5A    0.150000       1.00800           0   0.00000       0.00000    
      9391 IM1      108      IM1      C3       CD2R5A    3.06890       11.6110           0  -1.37800       1.30000    
      9392 IM1      108      IM1      DC3      DRUD     -2.88090      0.400000           0   0.00000       0.00000    
      9393 IM1      108      IM1      H5       HDR5A    0.530000E-01   1.00800           0   0.00000       0.00000    
      9394 IM1      108      IM1      C4       CD2R5B    2.40440       11.6110           0 -0.868000       1.30000    
      9395 IM1      108      IM1      DC4      DRUD     -2.28640      0.400000           0   0.00000       0.00000    
      9396 IM1      108      IM1      H6       HDR5B    0.730000E-01   1.00800           0   0.00000       0.00000    
      9397 IM1      108      IM1      N2       ND2R5B    2.24930       13.6070           0 -0.840000       1.00000    
      9398 IM1      108      IM1      DN2      DRUD     -2.24930      0.400000           0   0.00000       0.00000    
      9399 IM1      108      IM1      H7       DUMH      0.00000       1.00800           0   0.00000       0.00000    
      9400 IM1      108      IM1      LPN21    LPD     -0.474000       0.00000          -1   0.00000       0.00000    
      9401 IM1      109      IM1      C1       CD33G     2.39060       11.6110           0  -1.08100       1.00000    
      9402 IM1      109      IM1      DC1      DRUD     -2.55160      0.400000           0   0.00000       0.00000    
      9403 IM1      109      IM1      H1       HDA3A    0.940000E-01   1.00800           0   0.00000       0.00000    
      9404 IM1      109      IM1      H2       HDA3A    0.940000E-01   1.00800           0   0.00000       0.00000    
      9405 IM1      109      IM1      H3       HDA3A    0.940000E-01   1.00800           0   0.00000       0.00000    
      9406 IM1      109      IM1      N1       ND2R5A    2.67030       13.6070           0  -1.06300       1.30000    
      9407 IM1      109      IM1      DN1      DRUD     -2.53030      0.400000           0   0.00000       0.00000    
      9408 IM1      109      IM1      C2       CD2R5A    2.51190       11.6110           0  -1.37800       1.30000    
      9409 IM1      109      IM1      DC2      DRUD     -2.88090      0.400000           0   0.00000       0.00000    
      9410 IM1      109      IM1      H4       HDR5A    0.150000       1.00800           0   0.00000       0.00000    
      9411 IM1      109      IM1      C3       CD2R5A    3.06890       11.6110           0  -1.37800       1.30000    
      9412 IM1      109      IM1      DC3      DRUD     -2.88090      0.400000           0   0.00000       0.00000    
      9413 IM1      109      IM1      H5       HDR5A    0.530000E-01   1.00800           0   0.00000       0.00000    
      9414 IM1      109      IM1      C4       CD2R5B    2.40440       11.6110           0 -0.868000       1.30000    
      9415 IM1      109      IM1      DC4      DRUD     -2.28640      0.400000           0   0.00000       0.00000    
      9416 IM1      109      IM1      H6       HDR5B    0.730000E-01   1.00800           0   0.00000       0.00000    
      9417 IM1      109      IM1      N2       ND2R5B    2.24930       13.6070           0 -0.840000       1.00000    
      9418 IM1      109      IM1      DN2      DRUD     -2.24930      0.400000           0   0.00000       0.00000    
      9419 IM1      109      IM1      H7       DUMH      0.00000       1.00800           0   0.00000       0.00000    
      9420 IM1      109      IM1      LPN21    LPD     -0.474000       0.00000          -1   0.00000       0.00000    
      9421 IM1      110      IM1      C1       CD33G     2.39060       11.6110           0  -1.08100       1.00000    
      9422 IM1      110      IM1      DC1      DRUD     -2.55160      0.400000           0   0.00000       0.00000    
      9423 IM1      110      IM1      H1       HDA3A    0.940000E-01   1.00800           0   0.00000       0.00000    
      9424 IM1      110      IM1      H2       HDA3A    0.940000E-01   1.00800           0   0.00000       0.00000    
      9425 IM1      110      IM1      H3       HDA3A    0.940000E-01   1.00800           0   0.00000       0.00000    
      9426 IM1      110      IM1      N1       ND2R5A    2.67030       13.6070           0  -1.06300       1.30000    
      9427 IM1      110      IM1      DN1      DRUD     -2.53030      0.400000           0   0.00000       0.00000    
      9428 IM1      110      IM1      C2       CD2R5A    2.51190       11.6110           0  -1.37800       1.30000    
      9429 IM1      110      IM1      DC2      DRUD     -2.88090      0.400000           0   0.00000       0.00000    
      9430 IM1      110      IM1      H4       HDR5A    0.150000       1.00800           0   0.00000       0.00000    
      9431 IM1      110      IM1      C3       CD2R5A    3.06890       11.6110           0  -1.37800       1.30000    
      9432 IM1      110      IM1      DC3      DRUD     -2.88090      0.400000           0   0.00000       0.00000    
      9433 IM1      110      IM1      H5       HDR5A    0.530000E-01   1.00800           0   0.00000       0.00000    
      9434 IM1      110      IM1      C4       CD2R5B    2.40440       11.6110           0 -0.868000       1.30000    
      9435 IM1      110      IM1      DC4      DRUD     -2.28640      0.400000           0   0.00000       0.00000    
      9436 IM1      110      IM1      H6       HDR5B    0.730000E-01   1.00800           0   0.00000       0.00000    
      9437 IM1      110      IM1      N2       ND2R5B    2.24930       13.6070           0 -0.840000       1.00000    
      9438 IM1      110      IM1      DN2      DRUD     -2.24930      0.400000           0   0.00000       0.00000    
      9439 IM1      110      IM1      H7       DUMH      0.00000       1.00800           0   0.00000       0.00000    
      9440 IM1      110      IM1      LPN21    LPD     -0.474000       0.00000          -1   0.00000       0.00000    
      9441 IM1      111      IM1      C1       CD33G     2.39060       11.6110           0  -1.08100       1.00000    
      9442 IM1      111      IM1      DC1      DRUD     -2.55160      0.400000           0   0.00000       0.00000    
      9443 IM1      111      IM1      H1       HDA3A    0.940000E-01   1.00800           0   0.00000       0.00000    
      9444 IM1      111      IM1      H2       HDA3A    0.940000E-01   1.00800           0   0.00000       0.00000    
      9445 IM1      111      IM1      H3       HDA3A    0.940000E-01   1.00800           0   0.00000       0.00000    
      9446 IM1      111      IM1      N1       ND2R5A    2.67030       13.6070           0  -1.06300       1.30000    
      9447 IM1      111      IM1      DN1      DRUD     -2.53030      0.400000           0   0.00000       0.00000    
      9448 IM1      111      IM1      C2       CD2R5A    2.51190       11.6110           0  -1.37800       1.30000    
      9449 IM1      111      IM1      DC2      DRUD     -2.88090      0.400000           0   0.00000       0.00000    
      9450 IM1      111      IM1      H4       HDR5A    0.150000       1.00800           0   0.00000       0.00000    
      9451 IM1      111      IM1      C3       CD2R5A    3.06890       11.6110           0  -1.37800       1.30000    
      9452 IM1      111      IM1      DC3      DRUD     -2.88090      0.400000           0   0.00000       0.00000    
      9453 IM1      111      IM1      H5       HDR5A    0.530000E-01   1.00800           0   0.00000       0.00000    
      9454 IM1      111      IM1      C4       CD2R5B    2.40440       11.6110           0 -0.868000       1.30000    
      9455 IM1      111      IM1      DC4      DRUD     -2.28640      0.400000           0   0.00000       0.00000    
      9456 IM1      111      IM1      H6       HDR5B    0.730000E-01   1.00800           0   0.00000       0.00000    
      9457 IM1      111      IM1      N2       ND2R5B    2.24930       13.6070           0 -0.840000       1.00000    
      9458 IM1      111      IM1      DN2      DRUD     -2.24930      0.400000           0   0.00000       0.00000    
      9459 IM1      111      IM1      H7       DUMH      0.00000       1.00800           0   0.00000       0.00000    
      9460 IM1      111      IM1      LPN21    LPD     -0.474000       0.00000          -1   0.00000       0.00000    
      9461 IM1      112      IM1      C1       CD33G     2.39060       11.6110           0  -1.08100       1.00000    
      9462 IM1      112      IM1      DC1      DRUD     -2.55160      0.400000           0   0.00000       0.00000    
      9463 IM1      112      IM1      H1       HDA3A    0.940000E-01   1.00800           0   0.00000       0.00000    
      9464 IM1      112      IM1      H2       HDA3A    0.940000E-01   1.00800           0   0.00000       0.00000    
      9465 IM1      112      IM1      H3       HDA3A    0.940000E-01   1.00800           0   0.00000       0.00000    
      9466 IM1      112      IM1      N1       ND2R5A    2.67030       13.6070           0  -1.06300       1.30000    
      9467 IM1      112      IM1      DN1      DRUD     -2.53030      0.400000           0   0.00000       0.00000    
      9468 IM1      112      IM1      C2       CD2R5A    2.51190       11.6110           0  -1.37800       1.30000    
      9469 IM1      112      IM1      DC2      DRUD     -2.88090      0.400000           0   0.00000       0.00000    
      9470 IM1      112      IM1      H4       HDR5A    0.150000       1.00800           0   0.00000       0.00000    
      9471 IM1      112      IM1      C3       CD2R5A    3.06890       11.6110           0  -1.37800       1.30000    
      9472 IM1      112      IM1      DC3      DRUD     -2.88090      0.400000           0   0.00000       0.00000    
      9473 IM1      112      IM1      H5       HDR5A    0.530000E-01   1.00800           0   0.00000       0.00000    
      9474 IM1      112      IM1      C4       CD2R5B    2.40440       11.6110           0 -0.868000       1.30000    
      9475 IM1      112      IM1      DC4      DRUD     -2.28640      0.400000           0   0.00000       0.00000    
      9476 IM1      112      IM1      H6       HDR5B    0.730000E-01   1.00800           0   0.00000       0.00000    
      9477 IM1      112      IM1      N2       ND2R5B    2.24930       13.6070           0 -0.840000       1.00000    
      9478 IM1      112      IM1      DN2      DRUD     -2.24930      0.400000           0   0.00000       0.00000    
      9479 IM1      112      IM1      H7       DUMH      0.00000       1.00800           0   0.00000       0.00000    
      9480 IM1      112      IM1      LPN21    LPD     -0.474000       0.00000          -1   0.00000       0.00000    
      9481 IM1      113      IM1      C1       CD33G     2.39060       11.6110           0  -1.08100       1.00000    
      9482 IM1      113      IM1      DC1      DRUD     -2.55160      0.400000           0   0.00000       0.00000    
      9483 IM1      113      IM1      H1       HDA3A    0.940000E-01   1.00800           0   0.00000       0.00000    
      9484 IM1      113      IM1      H2       HDA3A    0.940000E-01   1.00800           0   0.00000       0.00000    
      9485 IM1      113      IM1      H3       HDA3A    0.940000E-01   1.00800           0   0.00000       0.00000    
      9486 IM1      113      IM1      N1       ND2R5A    2.67030       13.6070           0  -1.06300       1.30000    
      9487 IM1      113      IM1      DN1      DRUD     -2.53030      0.400000           0   0.00000       0.00000    
      9488 IM1      113      IM1      C2       CD2R5A    2.51190       11.6110           0  -1.37800       1.30000    
      9489 IM1      113      IM1      DC2      DRUD     -2.88090      0.400000           0   0.00000       0.00000    
      9490 IM1      113      IM1      H4       HDR5A    0.150000       1.00800           0   0.00000       0.00000    
      9491 IM1      113      IM1      C3       CD2R5A    3.06890       11.6110           0  -1.37800       1.30000    
      9492 IM1      113      IM1      DC3      DRUD     -2.88090      0.400000           0   0.00000       0.00000    
      9493 IM1      113      IM1      H5       HDR5A    0.530000E-01   1.00800           0   0.00000       0.00000    
      9494 IM1      113      IM1      C4       CD2R5B    2.40440       11.6110           0 -0.868000       1.30000    
      9495 IM1      113      IM1      DC4      DRUD     -2.28640      0.400000           0   0.00000       0.00000    
      9496 IM1      113      IM1      H6       HDR5B    0.730000E-01   1.00800           0   0.00000       0.00000    
      9497 IM1      113      IM1      N2       ND2R5B    2.24930       13.6070           0 -0.840000       1.00000    
      9498 IM1      113      IM1      DN2      DRUD     -2.24930      0.400000           0   0.00000       0.00000    
      9499 IM1      113      IM1      H7       DUMH      0.00000       1.00800           0   0.00000       0.00000    
      9500 IM1      113      IM1      LPN21    LPD     -0.474000       0.00000          -1   0.00000       0.00000    
      9501 IM1      114      IM1      C1       CD33G     2.39060       11.6110           0  -1.08100       1.00000    
      9502 IM1      114      IM1      DC1      DRUD     -2.55160      0.400000           0   0.00000       0.00000    
      9503 IM1      114      IM1      H1       HDA3A    0.940000E-01   1.00800           0   0.00000       0.00000    
      9504 IM1      114      IM1      H2       HDA3A    0.940000E-01   1.00800           0   0.00000       0.00000    
      9505 IM1      114      IM1      H3       HDA3A    0.940000E-01   1.00800           0   0.00000       0.00000    
      9506 IM1      114      IM1      N1       ND2R5A    2.67030       13.6070           0  -1.06300       1.30000    
      9507 IM1      114      IM1      DN1      DRUD     -2.53030      0.400000           0   0.00000       0.00000    
      9508 IM1      114      IM1      C2       CD2R5A    2.51190       11.6110           0  -1.37800       1.30000    
      9509 IM1      114      IM1      DC2      DRUD     -2.88090      0.400000           0   0.00000       0.00000    
      9510 IM1      114      IM1      H4       HDR5A    0.150000       1.00800           0   0.00000       0.00000    
      9511 IM1      114      IM1      C3       CD2R5A    3.06890       11.6110           0  -1.37800       1.30000    
      9512 IM1      114      IM1      DC3      DRUD     -2.88090      0.400000           0   0.00000       0.00000    
      9513 IM1      114      IM1      H5       HDR5A    0.530000E-01   1.00800           0   0.00000       0.00000    
      9514 IM1      114      IM1      C4       CD2R5B    2.40440       11.6110           0 -0.868000       1.30000    
      9515 IM1      114      IM1      DC4      DRUD     -2.28640      0.400000           0   0.00000       0.00000    
      9516 IM1      114      IM1      H6       HDR5B    0.730000E-01   1.00800           0   0.00000       0.00000    
      9517 IM1      114      IM1      N2       ND2R5B    2.24930       13.6070           0 -0.840000       1.00000    
      9518 IM1      114      IM1      DN2      DRUD     -2.24930      0.400000           0   0.00000       0.00000    
      9519 IM1      114      IM1      H7       DUMH      0.00000       1.00800           0   0.00000       0.00000    
      9520 IM1      114      IM1      LPN21    LPD     -0.474000       0.00000          -1   0.00000       0.00000    
      9521 IM1      115      IM1      C1       CD33G     2.39060       11.6110           0  -1.08100       1.00000    
      9522 IM1      115      IM1      DC1      DRUD     -2.55160      0.400000           0   0.00000       0.00000    
      9523 IM1      115      IM1      H1       HDA3A    0.940000E-01   1.00800           0   0.00000       0.00000    
      9524 IM1      115      IM1      H2       HDA3A    0.940000E-01   1.00800           0   0.00000       0.00000    
      9525 IM1      115      IM1      H3       HDA3A    0.940000E-01   1.00800           0   0.00000       0.00000    
      9526 IM1      115      IM1      N1       ND2R5A    2.67030       13.6070           0  -1.06300       1.30000    
      9527 IM1      115      IM1      DN1      DRUD     -2.53030      0.400000           0   0.00000       0.00000    
      9528 IM1      115      IM1      C2       CD2R5A    2.51190       11.6110           0  -1.37800       1.30000    
      9529 IM1      115      IM1      DC2      DRUD     -2.88090      0.400000           0   0.00000       0.00000    
      9530 IM1      115      IM1      H4       HDR5A    0.150000       1.00800           0   0.00000       0.00000    
      9531 IM1      115      IM1      C3       CD2R5A    3.06890       11.6110           0  -1.37800       1.30000    
      9532 IM1      115      IM1      DC3      DRUD     -2.88090      0.400000           0   0.00000       0.00000    
      9533 IM1      115      IM1      H5       HDR5A    0.530000E-01   1.00800           0   0.00000       0.00000    
      9534 IM1      115      IM1      C4       CD2R5B    2.40440       11.6110           0 -0.868000       1.30000    
      9535 IM1      115      IM1      DC4      DRUD     -2.28640      0.400000           0   0.00000       0.00000    
      9536 IM1      115      IM1      H6       HDR5B    0.730000E-01   1.00800           0   0.00000       0.00000    
      9537 IM1      115      IM1      N2       ND2R5B    2.24930       13.6070           0 -0.840000       1.00000    
      9538 IM1      115      IM1      DN2      DRUD     -2.24930      0.400000           0   0.00000       0.00000    
      9539 IM1      115      IM1      H7       DUMH      0.00000       1.00800           0   0.00000       0.00000    
      9540 IM1      115      IM1      LPN21    LPD     -0.474000       0.00000          -1   0.00000       0.00000    
      9541 IM1      116      IM1      C1       CD33G     2.39060       11.6110           0  -1.08100       1.00000    
      9542 IM1      116      IM1      DC1      DRUD     -2.55160      0.400000           0   0.00000       0.00000    
      9543 IM1      116      IM1      H1       HDA3A    0.940000E-01   1.00800           0   0.00000       0.00000    
      9544 IM1      116      IM1      H2       HDA3A    0.940000E-01   1.00800           0   0.00000       0.00000    
      9545 IM1      116      IM1      H3       HDA3A    0.940000E-01   1.00800           0   0.00000       0.00000    
      9546 IM1      116      IM1      N1       ND2R5A    2.67030       13.6070           0  -1.06300       1.30000    
      9547 IM1      116      IM1      DN1      DRUD     -2.53030      0.400000           0   0.00000       0.00000    
      9548 IM1      116      IM1      C2       CD2R5A    2.51190       11.6110           0  -1.37800       1.30000    
      9549 IM1      116      IM1      DC2      DRUD     -2.88090      0.400000           0   0.00000       0.00000    
      9550 IM1      116      IM1      H4       HDR5A    0.150000       1.00800           0   0.00000       0.00000    
      9551 IM1      116      IM1      C3       CD2R5A    3.06890       11.6110           0  -1.37800       1.30000    
      9552 IM1      116      IM1      DC3      DRUD     -2.88090      0.400000           0   0.00000       0.00000    
      9553 IM1      116      IM1      H5       HDR5A    0.530000E-01   1.00800           0   0.00000       0.00000    
      9554 IM1      116      IM1      C4       CD2R5B    2.40440       11.6110           0 -0.868000       1.30000    
      9555 IM1      116      IM1      DC4      DRUD     -2.28640      0.400000           0   0.00000       0.00000    
      9556 IM1      116      IM1      H6       HDR5B    0.730000E-01   1.00800           0   0.00000       0.00000    
      9557 IM1      116      IM1      N2       ND2R5B    2.24930       13.6070           0 -0.840000       1.00000    
      9558 IM1      116      IM1      DN2      DRUD     -2.24930      0.400000           0   0.00000       0.00000    
      9559 IM1      116      IM1      H7       DUMH      0.00000       1.00800           0   0.00000       0.00000    
      9560 IM1      116      IM1      LPN21    LPD     -0.474000       0.00000          -1   0.00000       0.00000    
      9561 IM1      117      IM1      C1       CD33G     2.39060       11.6110           0  -1.08100       1.00000    
      9562 IM1      117      IM1      DC1      DRUD     -2.55160      0.400000           0   0.00000       0.00000    
      9563 IM1      117      IM1      H1       HDA3A    0.940000E-01   1.00800           0   0.00000       0.00000    
      9564 IM1      117      IM1      H2       HDA3A    0.940000E-01   1.00800           0   0.00000       0.00000    
      9565 IM1      117      IM1      H3       HDA3A    0.940000E-01   1.00800           0   0.00000       0.00000    
      9566 IM1      117      IM1      N1       ND2R5A    2.67030       13.6070           0  -1.06300       1.30000    
      9567 IM1      117      IM1      DN1      DRUD     -2.53030      0.400000           0   0.00000       0.00000    
      9568 IM1      117      IM1      C2       CD2R5A    2.51190       11.6110           0  -1.37800       1.30000    
      9569 IM1      117      IM1      DC2      DRUD     -2.88090      0.400000           0   0.00000       0.00000    
      9570 IM1      117      IM1      H4       HDR5A    0.150000       1.00800           0   0.00000       0.00000    
      9571 IM1      117      IM1      C3       CD2R5A    3.06890       11.6110           0  -1.37800       1.30000    
      9572 IM1      117      IM1      DC3      DRUD     -2.88090      0.400000           0   0.00000       0.00000    
      9573 IM1      117      IM1      H5       HDR5A    0.530000E-01   1.00800           0   0.00000       0.00000    
      9574 IM1      117      IM1      C4       CD2R5B    2.40440       11.6110           0 -0.868000       1.30000    
      9575 IM1      117      IM1      DC4      DRUD     -2.28640      0.400000           0   0.00000       0.00000    
      9576 IM1      117      IM1      H6       HDR5B    0.730000E-01   1.00800           0   0.00000       0.00000    
      9577 IM1      117      IM1      N2       ND2R5B    2.24930       13.6070           0 -0.840000       1.00000    
      9578 IM1      117      IM1      DN2      DRUD     -2.24930      0.400000           0   0.00000       0.00000    
      9579 IM1      117      IM1      H7       DUMH      0.00000       1.00800           0   0.00000       0.00000    
      9580 IM1      117      IM1      LPN21    LPD     -0.474000       0.00000          -1   0.00000       0.00000    
      9581 IM1      118      IM1      C1       CD33G     2.39060       11.6110           0  -1.08100       1.00000    
      9582 IM1      118      IM1      DC1      DRUD     -2.55160      0.400000           0   0.00000       0.00000    
      9583 IM1      118      IM1      H1       HDA3A    0.940000E-01   1.00800           0   0.00000       0.00000    
      9584 IM1      118      IM1      H2       HDA3A    0.940000E-01   1.00800           0   0.00000       0.00000    
      9585 IM1      118      IM1      H3       HDA3A    0.940000E-01   1.00800           0   0.00000       0.00000    
      9586 IM1      118      IM1      N1       ND2R5A    2.67030       13.6070           0  -1.06300       1.30000    
      9587 IM1      118      IM1      DN1      DRUD     -2.53030      0.400000           0   0.00000       0.00000    
      9588 IM1      118      IM1      C2       CD2R5A    2.51190       11.6110           0  -1.37800       1.30000    
      9589 IM1      118      IM1      DC2      DRUD     -2.88090      0.400000           0   0.00000       0.00000    
      9590 IM1      118      IM1      H4       HDR5A    0.150000       1.00800           0   0.00000       0.00000    
      9591 IM1      118      IM1      C3       CD2R5A    3.06890       11.6110           0  -1.37800       1.30000    
      9592 IM1      118      IM1      DC3      DRUD     -2.88090      0.400000           0   0.00000       0.00000    
      9593 IM1      118      IM1      H5       HDR5A    0.530000E-01   1.00800           0   0.00000       0.00000    
      9594 IM1      118      IM1      C4       CD2R5B    2.40440       11.6110           0 -0.868000       1.30000    
      9595 IM1      118      IM1      DC4      DRUD     -2.28640      0.400000           0   0.00000       0.00000    
      9596 IM1      118      IM1      H6       HDR5B    0.730000E-01   1.00800           0   0.00000       0.00000    
      9597 IM1      118      IM1      N2       ND2R5B    2.24930       13.6070           0 -0.840000       1.00000    
      9598 IM1      118      IM1      DN2      DRUD     -2.24930      0.400000           0   0.00000       0.00000    
      9599 IM1      118      IM1      H7       DUMH      0.00000       1.00800           0   0.00000       0.00000    
      9600 IM1      118      IM1      LPN21    LPD     -0.474000       0.00000          -1   0.00000       0.00000    
      9601 IM1      119      IM1      C1       CD33G     2.39060       11.6110           0  -1.08100       1.00000    
      9602 IM1      119      IM1      DC1      DRUD     -2.55160      0.400000           0   0.00000       0.00000    
      9603 IM1      119      IM1      H1       HDA3A    0.940000E-01   1.00800           0   0.00000       0.00000    
      9604 IM1      119      IM1      H2       HDA3A    0.940000E-01   1.00800           0   0.00000       0.00000    
      9605 IM1      119      IM1      H3       HDA3A    0.940000E-01   1.00800           0   0.00000       0.00000    
      9606 IM1      119      IM1      N1       ND2R5A    2.67030       13.6070           0  -1.06300       1.30000    
      9607 IM1      119      IM1      DN1      DRUD     -2.53030      0.400000           0   0.00000       0.00000    
      9608 IM1      119      IM1      C2       CD2R5A    2.51190       11.6110           0  -1.37800       1.30000    
      9609 IM1      119      IM1      DC2      DRUD     -2.88090      0.400000           0   0.00000       0.00000    
      9610 IM1      119      IM1      H4       HDR5A    0.150000       1.00800           0   0.00000       0.00000    
      9611 IM1      119      IM1      C3       CD2R5A    3.06890       11.6110           0  -1.37800       1.30000    
      9612 IM1      119      IM1      DC3      DRUD     -2.88090      0.400000           0   0.00000       0.00000    
      9613 IM1      119      IM1      H5       HDR5A    0.530000E-01   1.00800           0   0.00000       0.00000    
      9614 IM1      119      IM1      C4       CD2R5B    2.40440       11.6110           0 -0.868000       1.30000    
      9615 IM1      119      IM1      DC4      DRUD     -2.28640      0.400000           0   0.00000       0.00000    
      9616 IM1      119      IM1      H6       HDR5B    0.730000E-01   1.00800           0   0.00000       0.00000    
      9617 IM1      119      IM1      N2       ND2R5B    2.24930       13.6070           0 -0.840000       1.00000    
      9618 IM1      119      IM1      DN2      DRUD     -2.24930      0.400000           0   0.00000       0.00000    
      9619 IM1      119      IM1      H7       DUMH      0.00000       1.00800           0   0.00000       0.00000    
      9620 IM1      119      IM1      LPN21    LPD     -0.474000       0.00000          -1   0.00000       0.00000    
      9621 IM1      120      IM1      C1       CD33G     2.39060       11.6110           0  -1.08100       1.00000    
      9622 IM1      120      IM1      DC1      DRUD     -2.55160      0.400000           0   0.00000       0.00000    
      9623 IM1      120      IM1      H1       HDA3A    0.940000E-01   1.00800           0   0.00000       0.00000    
      9624 IM1      120      IM1      H2       HDA3A    0.940000E-01   1.00800           0   0.00000       0.00000    
      9625 IM1      120      IM1      H3       HDA3A    0.940000E-01   1.00800           0   0.00000       0.00000    
      9626 IM1      120      IM1      N1       ND2R5A    2.67030       13.6070           0  -1.06300       1.30000    
      9627 IM1      120      IM1      DN1      DRUD     -2.53030      0.400000           0   0.00000       0.00000    
      9628 IM1      120      IM1      C2       CD2R5A    2.51190       11.6110           0  -1.37800       1.30000    
      9629 IM1      120      IM1      DC2      DRUD     -2.88090      0.400000           0   0.00000       0.00000    
      9630 IM1      120      IM1      H4       HDR5A    0.150000       1.00800           0   0.00000       0.00000    
      9631 IM1      120      IM1      C3       CD2R5A    3.06890       11.6110           0  -1.37800       1.30000    
      9632 IM1      120      IM1      DC3      DRUD     -2.88090      0.400000           0   0.00000       0.00000    
      9633 IM1      120      IM1      H5       HDR5A    0.530000E-01   1.00800           0   0.00000       0.00000    
      9634 IM1      120      IM1      C4       CD2R5B    2.40440       11.6110           0 -0.868000       1.30000    
      9635 IM1      120      IM1      DC4      DRUD     -2.28640      0.400000           0   0.00000       0.00000    
      9636 IM1      120      IM1      H6       HDR5B    0.730000E-01   1.00800           0   0.00000       0.00000    
      9637 IM1      120      IM1      N2       ND2R5B    2.24930       13.6070           0 -0.840000       1.00000    
      9638 IM1      120      IM1      DN2      DRUD     -2.24930      0.400000           0   0.00000       0.00000    
      9639 IM1      120      IM1      H7       DUMH      0.00000       1.00800           0   0.00000       0.00000    
      9640 IM1      120      IM1      LPN21    LPD     -0.474000       0.00000          -1   0.00000       0.00000    
      9641 IM1      121      IM1      C1       CD33G     2.39060       11.6110           0  -1.08100       1.00000    
      9642 IM1      121      IM1      DC1      DRUD     -2.55160      0.400000           0   0.00000       0.00000    
      9643 IM1      121      IM1      H1       HDA3A    0.940000E-01   1.00800           0   0.00000       0.00000    
      9644 IM1      121      IM1      H2       HDA3A    0.940000E-01   1.00800           0   0.00000       0.00000    
      9645 IM1      121      IM1      H3       HDA3A    0.940000E-01   1.00800           0   0.00000       0.00000    
      9646 IM1      121      IM1      N1       ND2R5A    2.67030       13.6070           0  -1.06300       1.30000    
      9647 IM1      121      IM1      DN1      DRUD     -2.53030      0.400000           0   0.00000       0.00000    
      9648 IM1      121      IM1      C2       CD2R5A    2.51190       11.6110           0  -1.37800       1.30000    
      9649 IM1      121      IM1      DC2      DRUD     -2.88090      0.400000           0   0.00000       0.00000    
      9650 IM1      121      IM1      H4       HDR5A    0.150000       1.00800           0   0.00000       0.00000    
      9651 IM1      121      IM1      C3       CD2R5A    3.06890       11.6110           0  -1.37800       1.30000    
      9652 IM1      121      IM1      DC3      DRUD     -2.88090      0.400000           0   0.00000       0.00000    
      9653 IM1      121      IM1      H5       HDR5A    0.530000E-01   1.00800           0   0.00000       0.00000    
      9654 IM1      121      IM1      C4       CD2R5B    2.40440       11.6110           0 -0.868000       1.30000    
      9655 IM1      121      IM1      DC4      DRUD     -2.28640      0.400000           0   0.00000       0.00000    
      9656 IM1      121      IM1      H6       HDR5B    0.730000E-01   1.00800           0   0.00000       0.00000    
      9657 IM1      121      IM1      N2       ND2R5B    2.24930       13.6070           0 -0.840000       1.00000    
      9658 IM1      121      IM1      DN2      DRUD     -2.24930      0.400000           0   0.00000       0.00000    
      9659 IM1      121      IM1      H7       DUMH      0.00000       1.00800           0   0.00000       0.00000    
      9660 IM1      121      IM1      LPN21    LPD     -0.474000       0.00000          -1   0.00000       0.00000    
      9661 IM1      122      IM1      C1       CD33G     2.39060       11.6110           0  -1.08100       1.00000    
      9662 IM1      122      IM1      DC1      DRUD     -2.55160      0.400000           0   0.00000       0.00000    
      9663 IM1      122      IM1      H1       HDA3A    0.940000E-01   1.00800           0   0.00000       0.00000    
      9664 IM1      122      IM1      H2       HDA3A    0.940000E-01   1.00800           0   0.00000       0.00000    
      9665 IM1      122      IM1      H3       HDA3A    0.940000E-01   1.00800           0   0.00000       0.00000    
      9666 IM1      122      IM1      N1       ND2R5A    2.67030       13.6070           0  -1.06300       1.30000    
      9667 IM1      122      IM1      DN1      DRUD     -2.53030      0.400000           0   0.00000       0.00000    
      9668 IM1      122      IM1      C2       CD2R5A    2.51190       11.6110           0  -1.37800       1.30000    
      9669 IM1      122      IM1      DC2      DRUD     -2.88090      0.400000           0   0.00000       0.00000    
      9670 IM1      122      IM1      H4       HDR5A    0.150000       1.00800           0   0.00000       0.00000    
      9671 IM1      122      IM1      C3       CD2R5A    3.06890       11.6110           0  -1.37800       1.30000    
      9672 IM1      122      IM1      DC3      DRUD     -2.88090      0.400000           0   0.00000       0.00000    
      9673 IM1      122      IM1      H5       HDR5A    0.530000E-01   1.00800           0   0.00000       0.00000    
      9674 IM1      122      IM1      C4       CD2R5B    2.40440       11.6110           0 -0.868000       1.30000    
      9675 IM1      122      IM1      DC4      DRUD     -2.28640      0.400000           0   0.00000       0.00000    
      9676 IM1      122      IM1      H6       HDR5B    0.730000E-01   1.00800           0   0.00000       0.00000    
      9677 IM1      122      IM1      N2       ND2R5B    2.24930       13.6070           0 -0.840000       1.00000    
      9678 IM1      122      IM1      DN2      DRUD     -2.24930      0.400000           0   0.00000       0.00000    
      9679 IM1      122      IM1      H7       DUMH      0.00000       1.00800           0   0.00000       0.00000    
      9680 IM1      122      IM1      LPN21    LPD     -0.474000       0.00000          -1   0.00000       0.00000    
      9681 IM1      123      IM1      C1       CD33G     2.39060       11.6110           0  -1.08100       1.00000    
      9682 IM1      123      IM1      DC1      DRUD     -2.55160      0.400000           0   0.00000       0.00000    
      9683 IM1      123      IM1      H1       HDA3A    0.940000E-01   1.00800           0   0.00000       0.00000    
      9684 IM1      123      IM1      H2       HDA3A    0.940000E-01   1.00800           0   0.00000       0.00000    
      9685 IM1      123      IM1      H3       HDA3A    0.940000E-01   1.00800           0   0.00000       0.00000    
      9686 IM1      123      IM1      N1       ND2R5A    2.67030       13.6070           0  -1.06300       1.30000    
      9687 IM1      123      IM1      DN1      DRUD     -2.53030      0.400000           0   0.00000       0.00000    
      9688 IM1      123      IM1      C2       CD2R5A    2.51190       11.6110           0  -1.37800       1.30000    
      9689 IM1      123      IM1      DC2      DRUD     -2.88090      0.400000           0   0.00000       0.00000    
      9690 IM1      123      IM1      H4       HDR5A    0.150000       1.00800           0   0.00000       0.00000    
      9691 IM1      123      IM1      C3       CD2R5A    3.06890       11.6110           0  -1.37800       1.30000    
      9692 IM1      123      IM1      DC3      DRUD     -2.88090      0.400000           0   0.00000       0.00000    
      9693 IM1      123      IM1      H5       HDR5A    0.530000E-01   1.00800           0   0.00000       0.00000    
      9694 IM1      123      IM1      C4       CD2R5B    2.40440       11.6110           0 -0.868000       1.30000    
      9695 IM1      123      IM1      DC4      DRUD     -2.28640      0.400000           0   0.00000       0.00000    
      9696 IM1      123      IM1      H6       HDR5B    0.730000E-01   1.00800           0   0.00000       0.00000    
      9697 IM1      123      IM1      N2       ND2R5B    2.24930       13.6070           0 -0.840000       1.00000    
      9698 IM1      123      IM1      DN2      DRUD     -2.24930      0.400000           0   0.00000       0.00000    
      9699 IM1      123      IM1      H7       DUMH      0.00000       1.00800           0   0.00000       0.00000    
      9700 IM1      123      IM1      LPN21    LPD     -0.474000       0.00000          -1   0.00000       0.00000    
      9701 IM1      124      IM1      C1       CD33G     2.39060       11.6110           0  -1.08100       1.00000    
      9702 IM1      124      IM1      DC1      DRUD     -2.55160      0.400000           0   0.00000       0.00000    
      9703 IM1      124      IM1      H1       HDA3A    0.940000E-01   1.00800           0   0.00000       0.00000    
      9704 IM1      124      IM1      H2       HDA3A    0.940000E-01   1.00800           0   0.00000       0.00000    
      9705 IM1      124      IM1      H3       HDA3A    0.940000E-01   1.00800           0   0.00000       0.00000    
      9706 IM1      124      IM1      N1       ND2R5A    2.67030       13.6070           0  -1.06300       1.30000    
      9707 IM1      124      IM1      DN1      DRUD     -2.53030      0.400000           0   0.00000       0.00000    
      9708 IM1      124      IM1      C2       CD2R5A    2.51190       11.6110           0  -1.37800       1.30000    
      9709 IM1      124      IM1      DC2      DRUD     -2.88090      0.400000           0   0.00000       0.00000    
      9710 IM1      124      IM1      H4       HDR5A    0.150000       1.00800           0   0.00000       0.00000    
      9711 IM1      124      IM1      C3       CD2R5A    3.06890       11.6110           0  -1.37800       1.30000    
      9712 IM1      124      IM1      DC3      DRUD     -2.88090      0.400000           0   0.00000       0.00000    
      9713 IM1      124      IM1      H5       HDR5A    0.530000E-01   1.00800           0   0.00000       0.00000    
      9714 IM1      124      IM1      C4       CD2R5B    2.40440       11.6110           0 -0.868000       1.30000    
      9715 IM1      124      IM1      DC4      DRUD     -2.28640      0.400000           0   0.00000       0.00000    
      9716 IM1      124      IM1      H6       HDR5B    0.730000E-01   1.00800           0   0.00000       0.00000    
      9717 IM1      124      IM1      N2       ND2R5B    2.24930       13.6070           0 -0.840000       1.00000    
      9718 IM1      124      IM1      DN2      DRUD     -2.24930      0.400000           0   0.00000       0.00000    
      9719 IM1      124      IM1      H7       DUMH      0.00000       1.00800           0   0.00000       0.00000    
      9720 IM1      124      IM1      LPN21    LPD     -0.474000       0.00000          -1   0.00000       0.00000    
      9721 IM1      125      IM1      C1       CD33G     2.39060       11.6110           0  -1.08100       1.00000    
      9722 IM1      125      IM1      DC1      DRUD     -2.55160      0.400000           0   0.00000       0.00000    
      9723 IM1      125      IM1      H1       HDA3A    0.940000E-01   1.00800           0   0.00000       0.00000    
      9724 IM1      125      IM1      H2       HDA3A    0.940000E-01   1.00800           0   0.00000       0.00000    
      9725 IM1      125      IM1      H3       HDA3A    0.940000E-01   1.00800           0   0.00000       0.00000    
      9726 IM1      125      IM1      N1       ND2R5A    2.67030       13.6070           0  -1.06300       1.30000    
      9727 IM1      125      IM1      DN1      DRUD     -2.53030      0.400000           0   0.00000       0.00000    
      9728 IM1      125      IM1      C2       CD2R5A    2.51190       11.6110           0  -1.37800       1.30000    
      9729 IM1      125      IM1      DC2      DRUD     -2.88090      0.400000           0   0.00000       0.00000    
      9730 IM1      125      IM1      H4       HDR5A    0.150000       1.00800           0   0.00000       0.00000    
      9731 IM1      125      IM1      C3       CD2R5A    3.06890       11.6110           0  -1.37800       1.30000    
      9732 IM1      125      IM1      DC3      DRUD     -2.88090      0.400000           0   0.00000       0.00000    
      9733 IM1      125      IM1      H5       HDR5A    0.530000E-01   1.00800           0   0.00000       0.00000    
      9734 IM1      125      IM1      C4       CD2R5B    2.40440       11.6110           0 -0.868000       1.30000    
      9735 IM1      125      IM1      DC4      DRUD     -2.28640      0.400000           0   0.00000       0.00000    
      9736 IM1      125      IM1      H6       HDR5B    0.730000E-01   1.00800           0   0.00000       0.00000    
      9737 IM1      125      IM1      N2       ND2R5B    2.24930       13.6070           0 -0.840000       1.00000    
      9738 IM1      125      IM1      DN2      DRUD     -2.24930      0.400000           0   0.00000       0.00000    
      9739 IM1      125      IM1      H7       DUMH      0.00000       1.00800           0   0.00000       0.00000    
      9740 IM1      125      IM1      LPN21    LPD     -0.474000       0.00000          -1   0.00000       0.00000    
      9741 IM1      126      IM1      C1       CD33G     2.39060       11.6110           0  -1.08100       1.00000    
      9742 IM1      126      IM1      DC1      DRUD     -2.55160      0.400000           0   0.00000       0.00000    
      9743 IM1      126      IM1      H1       HDA3A    0.940000E-01   1.00800           0   0.00000       0.00000    
      9744 IM1      126      IM1      H2       HDA3A    0.940000E-01   1.00800           0   0.00000       0.00000    
      9745 IM1      126      IM1      H3       HDA3A    0.940000E-01   1.00800           0   0.00000       0.00000    
      9746 IM1      126      IM1      N1       ND2R5A    2.67030       13.6070           0  -1.06300       1.30000    
      9747 IM1      126      IM1      DN1      DRUD     -2.53030      0.400000           0   0.00000       0.00000    
      9748 IM1      126      IM1      C2       CD2R5A    2.51190       11.6110           0  -1.37800       1.30000    
      9749 IM1      126      IM1      DC2      DRUD     -2.88090      0.400000           0   0.00000       0.00000    
      9750 IM1      126      IM1      H4       HDR5A    0.150000       1.00800           0   0.00000       0.00000    
      9751 IM1      126      IM1      C3       CD2R5A    3.06890       11.6110           0  -1.37800       1.30000    
      9752 IM1      126      IM1      DC3      DRUD     -2.88090      0.400000           0   0.00000       0.00000    
      9753 IM1      126      IM1      H5       HDR5A    0.530000E-01   1.00800           0   0.00000       0.00000    
      9754 IM1      126      IM1      C4       CD2R5B    2.40440       11.6110           0 -0.868000       1.30000    
      9755 IM1      126      IM1      DC4      DRUD     -2.28640      0.400000           0   0.00000       0.00000    
      9756 IM1      126      IM1      H6       HDR5B    0.730000E-01   1.00800           0   0.00000       0.00000    
      9757 IM1      126      IM1      N2       ND2R5B    2.24930       13.6070           0 -0.840000       1.00000    
      9758 IM1      126      IM1      DN2      DRUD     -2.24930      0.400000           0   0.00000       0.00000    
      9759 IM1      126      IM1      H7       DUMH      0.00000       1.00800           0   0.00000       0.00000    
      9760 IM1      126      IM1      LPN21    LPD     -0.474000       0.00000          -1   0.00000       0.00000    
      9761 IM1      127      IM1      C1       CD33G     2.39060       11.6110           0  -1.08100       1.00000    
      9762 IM1      127      IM1      DC1      DRUD     -2.55160      0.400000           0   0.00000       0.00000    
      9763 IM1      127      IM1      H1       HDA3A    0.940000E-01   1.00800           0   0.00000       0.00000    
      9764 IM1      127      IM1      H2       HDA3A    0.940000E-01   1.00800           0   0.00000       0.00000    
      9765 IM1      127      IM1      H3       HDA3A    0.940000E-01   1.00800           0   0.00000       0.00000    
      9766 IM1      127      IM1      N1       ND2R5A    2.67030       13.6070           0  -1.06300       1.30000    
      9767 IM1      127      IM1      DN1      DRUD     -2.53030      0.400000           0   0.00000       0.00000    
      9768 IM1      127      IM1      C2       CD2R5A    2.51190       11.6110           0  -1.37800       1.30000    
      9769 IM1      127      IM1      DC2      DRUD     -2.88090      0.400000           0   0.00000       0.00000    
      9770 IM1      127      IM1      H4       HDR5A    0.150000       1.00800           0   0.00000       0.00000    
      9771 IM1      127      IM1      C3       CD2R5A    3.06890       11.6110           0  -1.37800       1.30000    
      9772 IM1      127      IM1      DC3      DRUD     -2.88090      0.400000           0   0.00000       0.00000    
      9773 IM1      127      IM1      H5       HDR5A    0.530000E-01   1.00800           0   0.00000       0.00000    
      9774 IM1      127      IM1      C4       CD2R5B    2.40440       11.6110           0 -0.868000       1.30000    
      9775 IM1      127      IM1      DC4      DRUD     -2.28640      0.400000           0   0.00000       0.00000    
      9776 IM1      127      IM1      H6       HDR5B    0.730000E-01   1.00800           0   0.00000       0.00000    
      9777 IM1      127      IM1      N2       ND2R5B    2.24930       13.6070           0 -0.840000       1.00000    
      9778 IM1      127      IM1      DN2      DRUD     -2.24930      0.400000           0   0.00000       0.00000    
      9779 IM1      127      IM1      H7       DUMH      0.00000       1.00800           0   0.00000       0.00000    
      9780 IM1      127      IM1      LPN21    LPD     -0.474000       0.00000          -1   0.00000       0.00000    
      9781 IM1      128      IM1      C1       CD33G     2.39060       11.6110           0  -1.08100       1.00000    
      9782 IM1      128      IM1      DC1      DRUD     -2.55160      0.400000           0   0.00000       0.00000    
      9783 IM1      128      IM1      H1       HDA3A    0.940000E-01   1.00800           0   0.00000       0.00000    
      9784 IM1      128      IM1      H2       HDA3A    0.940000E-01   1.00800           0   0.00000       0.00000    
      9785 IM1      128      IM1      H3       HDA3A    0.940000E-01   1.00800           0   0.00000       0.00000    
      9786 IM1      128      IM1      N1       ND2R5A    2.67030       13.6070           0  -1.06300       1.30000    
      9787 IM1      128      IM1      DN1      DRUD     -2.53030      0.400000           0   0.00000       0.00000    
      9788 IM1      128      IM1      C2       CD2R5A    2.51190       11.6110           0  -1.37800       1.30000    
      9789 IM1      128      IM1      DC2      DRUD     -2.88090      0.400000           0   0.00000       0.00000    
      9790 IM1      128      IM1      H4       HDR5A    0.150000       1.00800           0   0.00000       0.00000    
      9791 IM1      128      IM1      C3       CD2R5A    3.06890       11.6110           0  -1.37800       1.30000    
      9792 IM1      128      IM1      DC3      DRUD     -2.88090      0.400000           0   0.00000       0.00000    
      9793 IM1      128      IM1      H5       HDR5A    0.530000E-01   1.00800           0   0.00000       0.00000    
      9794 IM1      128      IM1      C4       CD2R5B    2.40440       11.6110           0 -0.868000       1.30000    
      9795 IM1      128      IM1      DC4      DRUD     -2.28640      0.400000           0   0.00000       0.00000    
      9796 IM1      128      IM1      H6       HDR5B    0.730000E-01   1.00800           0   0.00000       0.00000    
      9797 IM1      128      IM1      N2       ND2R5B    2.24930       13.6070           0 -0.840000       1.00000    
      9798 IM1      128      IM1      DN2      DRUD     -2.24930      0.400000           0   0.00000       0.00000    
      9799 IM1      128      IM1      H7       DUMH      0.00000       1.00800           0   0.00000       0.00000    
      9800 IM1      128      IM1      LPN21    LPD     -0.474000       0.00000          -1   0.00000       0.00000    
      9801 IM1      129      IM1      C1       CD33G     2.39060       11.6110           0  -1.08100       1.00000    
      9802 IM1      129      IM1      DC1      DRUD     -2.55160      0.400000           0   0.00000       0.00000    
      9803 IM1      129      IM1      H1       HDA3A    0.940000E-01   1.00800           0   0.00000       0.00000    
      9804 IM1      129      IM1      H2       HDA3A    0.940000E-01   1.00800           0   0.00000       0.00000    
      9805 IM1      129      IM1      H3       HDA3A    0.940000E-01   1.00800           0   0.00000       0.00000    
      9806 IM1      129      IM1      N1       ND2R5A    2.67030       13.6070           0  -1.06300       1.30000    
      9807 IM1      129      IM1      DN1      DRUD     -2.53030      0.400000           0   0.00000       0.00000    
      9808 IM1      129      IM1      C2       CD2R5A    2.51190       11.6110           0  -1.37800       1.30000    
      9809 IM1      129      IM1      DC2      DRUD     -2.88090      0.400000           0   0.00000       0.00000    
      9810 IM1      129      IM1      H4       HDR5A    0.150000       1.00800           0   0.00000       0.00000    
      9811 IM1      129      IM1      C3       CD2R5A    3.06890       11.6110           0  -1.37800       1.30000    
      9812 IM1      129      IM1      DC3      DRUD     -2.88090      0.400000           0   0.00000       0.00000    
      9813 IM1      129      IM1      H5       HDR5A    0.530000E-01   1.00800           0   0.00000       0.00000    
      9814 IM1      129      IM1      C4       CD2R5B    2.40440       11.6110           0 -0.868000       1.30000    
      9815 IM1      129      IM1      DC4      DRUD     -2.28640      0.400000           0   0.00000       0.00000    
      9816 IM1      129      IM1      H6       HDR5B    0.730000E-01   1.00800           0   0.00000       0.00000    
      9817 IM1      129      IM1      N2       ND2R5B    2.24930       13.6070           0 -0.840000       1.00000    
      9818 IM1      129      IM1      DN2      DRUD     -2.24930      0.400000           0   0.00000       0.00000    
      9819 IM1      129      IM1      H7       DUMH      0.00000       1.00800           0   0.00000       0.00000    
      9820 IM1      129      IM1      LPN21    LPD     -0.474000       0.00000          -1   0.00000       0.00000    
      9821 IM1      130      IM1      C1       CD33G     2.39060       11.6110           0  -1.08100       1.00000    
      9822 IM1      130      IM1      DC1      DRUD     -2.55160      0.400000           0   0.00000       0.00000    
      9823 IM1      130      IM1      H1       HDA3A    0.940000E-01   1.00800           0   0.00000       0.00000    
      9824 IM1      130      IM1      H2       HDA3A    0.940000E-01   1.00800           0   0.00000       0.00000    
      9825 IM1      130      IM1      H3       HDA3A    0.940000E-01   1.00800           0   0.00000       0.00000    
      9826 IM1      130      IM1      N1       ND2R5A    2.67030       13.6070           0  -1.06300       1.30000    
      9827 IM1      130      IM1      DN1      DRUD     -2.53030      0.400000           0   0.00000       0.00000    
      9828 IM1      130      IM1      C2       CD2R5A    2.51190       11.6110           0  -1.37800       1.30000    
      9829 IM1      130      IM1      DC2      DRUD     -2.88090      0.400000           0   0.00000       0.00000    
      9830 IM1      130      IM1      H4       HDR5A    0.150000       1.00800           0   0.00000       0.00000    
      9831 IM1      130      IM1      C3       CD2R5A    3.06890       11.6110           0  -1.37800       1.30000    
      9832 IM1      130      IM1      DC3      DRUD     -2.88090      0.400000           0   0.00000       0.00000    
      9833 IM1      130      IM1      H5       HDR5A    0.530000E-01   1.00800           0   0.00000       0.00000    
      9834 IM1      130      IM1      C4       CD2R5B    2.40440       11.6110           0 -0.868000       1.30000    
      9835 IM1      130      IM1      DC4      DRUD     -2.28640      0.400000           0   0.00000       0.00000    
      9836 IM1      130      IM1      H6       HDR5B    0.730000E-01   1.00800           0   0.00000       0.00000    
      9837 IM1      130      IM1      N2       ND2R5B    2.24930       13.6070           0 -0.840000       1.00000    
      9838 IM1      130      IM1      DN2      DRUD     -2.24930      0.400000           0   0.00000       0.00000    
      9839 IM1      130      IM1      H7       DUMH      0.00000       1.00800           0   0.00000       0.00000    
      9840 IM1      130      IM1      LPN21    LPD     -0.474000       0.00000          -1   0.00000       0.00000    
      9841 IM1      131      IM1      C1       CD33G     2.39060       11.6110           0  -1.08100       1.00000    
      9842 IM1      131      IM1      DC1      DRUD     -2.55160      0.400000           0   0.00000       0.00000    
      9843 IM1      131      IM1      H1       HDA3A    0.940000E-01   1.00800           0   0.00000       0.00000    
      9844 IM1      131      IM1      H2       HDA3A    0.940000E-01   1.00800           0   0.00000       0.00000    
      9845 IM1      131      IM1      H3       HDA3A    0.940000E-01   1.00800           0   0.00000       0.00000    
      9846 IM1      131      IM1      N1       ND2R5A    2.67030       13.6070           0  -1.06300       1.30000    
      9847 IM1      131      IM1      DN1      DRUD     -2.53030      0.400000           0   0.00000       0.00000    
      9848 IM1      131      IM1      C2       CD2R5A    2.51190       11.6110           0  -1.37800       1.30000    
      9849 IM1      131      IM1      DC2      DRUD     -2.88090      0.400000           0   0.00000       0.00000    
      9850 IM1      131      IM1      H4       HDR5A    0.150000       1.00800           0   0.00000       0.00000    
      9851 IM1      131      IM1      C3       CD2R5A    3.06890       11.6110           0  -1.37800       1.30000    
      9852 IM1      131      IM1      DC3      DRUD     -2.88090      0.400000           0   0.00000       0.00000    
      9853 IM1      131      IM1      H5       HDR5A    0.530000E-01   1.00800           0   0.00000       0.00000    
      9854 IM1      131      IM1      C4       CD2R5B    2.40440       11.6110           0 -0.868000       1.30000    
      9855 IM1      131      IM1      DC4      DRUD     -2.28640      0.400000           0   0.00000       0.00000    
      9856 IM1      131      IM1      H6       HDR5B    0.730000E-01   1.00800           0   0.00000       0.00000    
      9857 IM1      131      IM1      N2       ND2R5B    2.24930       13.6070           0 -0.840000       1.00000    
      9858 IM1      131      IM1      DN2      DRUD     -2.24930      0.400000           0   0.00000       0.00000    
      9859 IM1      131      IM1      H7       DUMH      0.00000       1.00800           0   0.00000       0.00000    
      9860 IM1      131      IM1      LPN21    LPD     -0.474000       0.00000          -1   0.00000       0.00000    
      9861 IM1      132      IM1      C1       CD33G     2.39060       11.6110           0  -1.08100       1.00000    
      9862 IM1      132      IM1      DC1      DRUD     -2.55160      0.400000           0   0.00000       0.00000    
      9863 IM1      132      IM1      H1       HDA3A    0.940000E-01   1.00800           0   0.00000       0.00000    
      9864 IM1      132      IM1      H2       HDA3A    0.940000E-01   1.00800           0   0.00000       0.00000    
      9865 IM1      132      IM1      H3       HDA3A    0.940000E-01   1.00800           0   0.00000       0.00000    
      9866 IM1      132      IM1      N1       ND2R5A    2.67030       13.6070           0  -1.06300       1.30000    
      9867 IM1      132      IM1      DN1      DRUD     -2.53030      0.400000           0   0.00000       0.00000    
      9868 IM1      132      IM1      C2       CD2R5A    2.51190       11.6110           0  -1.37800       1.30000    
      9869 IM1      132      IM1      DC2      DRUD     -2.88090      0.400000           0   0.00000       0.00000    
      9870 IM1      132      IM1      H4       HDR5A    0.150000       1.00800           0   0.00000       0.00000    
      9871 IM1      132      IM1      C3       CD2R5A    3.06890       11.6110           0  -1.37800       1.30000    
      9872 IM1      132      IM1      DC3      DRUD     -2.88090      0.400000           0   0.00000       0.00000    
      9873 IM1      132      IM1      H5       HDR5A    0.530000E-01   1.00800           0   0.00000       0.00000    
      9874 IM1      132      IM1      C4       CD2R5B    2.40440       11.6110           0 -0.868000       1.30000    
      9875 IM1      132      IM1      DC4      DRUD     -2.28640      0.400000           0   0.00000       0.00000    
      9876 IM1      132      IM1      H6       HDR5B    0.730000E-01   1.00800           0   0.00000       0.00000    
      9877 IM1      132      IM1      N2       ND2R5B    2.24930       13.6070           0 -0.840000       1.00000    
      9878 IM1      132      IM1      DN2      DRUD     -2.24930      0.400000           0   0.00000       0.00000    
      9879 IM1      132      IM1      H7       DUMH      0.00000       1.00800           0   0.00000       0.00000    
      9880 IM1      132      IM1      LPN21    LPD     -0.474000       0.00000          -1   0.00000       0.00000    
      9881 IM1      133      IM1      C1       CD33G     2.39060       11.6110           0  -1.08100       1.00000    
      9882 IM1      133      IM1      DC1      DRUD     -2.55160      0.400000           0   0.00000       0.00000    
      9883 IM1      133      IM1      H1       HDA3A    0.940000E-01   1.00800           0   0.00000       0.00000    
      9884 IM1      133      IM1      H2       HDA3A    0.940000E-01   1.00800           0   0.00000       0.00000    
      9885 IM1      133      IM1      H3       HDA3A    0.940000E-01   1.00800           0   0.00000       0.00000    
      9886 IM1      133      IM1      N1       ND2R5A    2.67030       13.6070           0  -1.06300       1.30000    
      9887 IM1      133      IM1      DN1      DRUD     -2.53030      0.400000           0   0.00000       0.00000    
      9888 IM1      133      IM1      C2       CD2R5A    2.51190       11.6110           0  -1.37800       1.30000    
      9889 IM1      133      IM1      DC2      DRUD     -2.88090      0.400000           0   0.00000       0.00000    
      9890 IM1      133      IM1      H4       HDR5A    0.150000       1.00800           0   0.00000       0.00000    
      9891 IM1      133      IM1      C3       CD2R5A    3.06890       11.6110           0  -1.37800       1.30000    
      9892 IM1      133      IM1      DC3      DRUD     -2.88090      0.400000           0   0.00000       0.00000    
      9893 IM1      133      IM1      H5       HDR5A    0.530000E-01   1.00800           0   0.00000       0.00000    
      9894 IM1      133      IM1      C4       CD2R5B    2.40440       11.6110           0 -0.868000       1.30000    
      9895 IM1      133      IM1      DC4      DRUD     -2.28640      0.400000           0   0.00000       0.00000    
      9896 IM1      133      IM1      H6       HDR5B    0.730000E-01   1.00800           0   0.00000       0.00000    
      9897 IM1      133      IM1      N2       ND2R5B    2.24930       13.6070           0 -0.840000       1.00000    
      9898 IM1      133      IM1      DN2      DRUD     -2.24930      0.400000           0   0.00000       0.00000    
      9899 IM1      133      IM1      H7       DUMH      0.00000       1.00800           0   0.00000       0.00000    
      9900 IM1      133      IM1      LPN21    LPD     -0.474000       0.00000          -1   0.00000       0.00000    
      9901 IM1      134      IM1      C1       CD33G     2.39060       11.6110           0  -1.08100       1.00000    
      9902 IM1      134      IM1      DC1      DRUD     -2.55160      0.400000           0   0.00000       0.00000    
      9903 IM1      134      IM1      H1       HDA3A    0.940000E-01   1.00800           0   0.00000       0.00000    
      9904 IM1      134      IM1      H2       HDA3A    0.940000E-01   1.00800           0   0.00000       0.00000    
      9905 IM1      134      IM1      H3       HDA3A    0.940000E-01   1.00800           0   0.00000       0.00000    
      9906 IM1      134      IM1      N1       ND2R5A    2.67030       13.6070           0  -1.06300       1.30000    
      9907 IM1      134      IM1      DN1      DRUD     -2.53030      0.400000           0   0.00000       0.00000    
      9908 IM1      134      IM1      C2       CD2R5A    2.51190       11.6110           0  -1.37800       1.30000    
      9909 IM1      134      IM1      DC2      DRUD     -2.88090      0.400000           0   0.00000       0.00000    
      9910 IM1      134      IM1      H4       HDR5A    0.150000       1.00800           0   0.00000       0.00000    
      9911 IM1      134      IM1      C3       CD2R5A    3.06890       11.6110           0  -1.37800       1.30000    
      9912 IM1      134      IM1      DC3      DRUD     -2.88090      0.400000           0   0.00000       0.00000    
      9913 IM1      134      IM1      H5       HDR5A    0.530000E-01   1.00800           0   0.00000       0.00000    
      9914 IM1      134      IM1      C4       CD2R5B    2.40440       11.6110           0 -0.868000       1.30000    
      9915 IM1      134      IM1      DC4      DRUD     -2.28640      0.400000           0   0.00000       0.00000    
      9916 IM1      134      IM1      H6       HDR5B    0.730000E-01   1.00800           0   0.00000       0.00000    
      9917 IM1      134      IM1      N2       ND2R5B    2.24930       13.6070           0 -0.840000       1.00000    
      9918 IM1      134      IM1      DN2      DRUD     -2.24930      0.400000           0   0.00000       0.00000    
      9919 IM1      134      IM1      H7       DUMH      0.00000       1.00800           0   0.00000       0.00000    
      9920 IM1      134      IM1      LPN21    LPD     -0.474000       0.00000          -1   0.00000       0.00000    
      9921 IM1      135      IM1      C1       CD33G     2.39060       11.6110           0  -1.08100       1.00000    
      9922 IM1      135      IM1      DC1      DRUD     -2.55160      0.400000           0   0.00000       0.00000    
      9923 IM1      135      IM1      H1       HDA3A    0.940000E-01   1.00800           0   0.00000       0.00000    
      9924 IM1      135      IM1      H2       HDA3A    0.940000E-01   1.00800           0   0.00000       0.00000    
      9925 IM1      135      IM1      H3       HDA3A    0.940000E-01   1.00800           0   0.00000       0.00000    
      9926 IM1      135      IM1      N1       ND2R5A    2.67030       13.6070           0  -1.06300       1.30000    
      9927 IM1      135      IM1      DN1      DRUD     -2.53030      0.400000           0   0.00000       0.00000    
      9928 IM1      135      IM1      C2       CD2R5A    2.51190       11.6110           0  -1.37800       1.30000    
      9929 IM1      135      IM1      DC2      DRUD     -2.88090      0.400000           0   0.00000       0.00000    
      9930 IM1      135      IM1      H4       HDR5A    0.150000       1.00800           0   0.00000       0.00000    
      9931 IM1      135      IM1      C3       CD2R5A    3.06890       11.6110           0  -1.37800       1.30000    
      9932 IM1      135      IM1      DC3      DRUD     -2.88090      0.400000           0   0.00000       0.00000    
      9933 IM1      135      IM1      H5       HDR5A    0.530000E-01   1.00800           0   0.00000       0.00000    
      9934 IM1      135      IM1      C4       CD2R5B    2.40440       11.6110           0 -0.868000       1.30000    
      9935 IM1      135      IM1      DC4      DRUD     -2.28640      0.400000           0   0.00000       0.00000    
      9936 IM1      135      IM1      H6       HDR5B    0.730000E-01   1.00800           0   0.00000       0.00000    
      9937 IM1      135      IM1      N2       ND2R5B    2.24930       13.6070           0 -0.840000       1.00000    
      9938 IM1      135      IM1      DN2      DRUD     -2.24930      0.400000           0   0.00000       0.00000    
      9939 IM1      135      IM1      H7       DUMH      0.00000       1.00800           0   0.00000       0.00000    
      9940 IM1      135      IM1      LPN21    LPD     -0.474000       0.00000          -1   0.00000       0.00000    
      9941 IM1      136      IM1      C1       CD33G     2.39060       11.6110           0  -1.08100       1.00000    
      9942 IM1      136      IM1      DC1      DRUD     -2.55160      0.400000           0   0.00000       0.00000    
      9943 IM1      136      IM1      H1       HDA3A    0.940000E-01   1.00800           0   0.00000       0.00000    
      9944 IM1      136      IM1      H2       HDA3A    0.940000E-01   1.00800           0   0.00000       0.00000    
      9945 IM1      136      IM1      H3       HDA3A    0.940000E-01   1.00800           0   0.00000       0.00000    
      9946 IM1      136      IM1      N1       ND2R5A    2.67030       13.6070           0  -1.06300       1.30000    
      9947 IM1      136      IM1      DN1      DRUD     -2.53030      0.400000           0   0.00000       0.00000    
      9948 IM1      136      IM1      C2       CD2R5A    2.51190       11.6110           0  -1.37800       1.30000    
      9949 IM1      136      IM1      DC2      DRUD     -2.88090      0.400000           0   0.00000       0.00000    
      9950 IM1      136      IM1      H4       HDR5A    0.150000       1.00800           0   0.00000       0.00000    
      9951 IM1      136      IM1      C3       CD2R5A    3.06890       11.6110           0  -1.37800       1.30000    
      9952 IM1      136      IM1      DC3      DRUD     -2.88090      0.400000           0   0.00000       0.00000    
      9953 IM1      136      IM1      H5       HDR5A    0.530000E-01   1.00800           0   0.00000       0.00000    
      9954 IM1      136      IM1      C4       CD2R5B    2.40440       11.6110           0 -0.868000       1.30000    
      9955 IM1      136      IM1      DC4      DRUD     -2.28640      0.400000           0   0.00000       0.00000    
      9956 IM1      136      IM1      H6       HDR5B    0.730000E-01   1.00800           0   0.00000       0.00000    
      9957 IM1      136      IM1      N2       ND2R5B    2.24930       13.6070           0 -0.840000       1.00000    
      9958 IM1      136      IM1      DN2      DRUD     -2.24930      0.400000           0   0.00000       0.00000    
      9959 IM1      136      IM1      H7       DUMH      0.00000       1.00800           0   0.00000       0.00000    
      9960 IM1      136      IM1      LPN21    LPD     -0.474000       0.00000          -1   0.00000       0.00000    
      9961 IM1      137      IM1      C1       CD33G     2.39060       11.6110           0  -1.08100       1.00000    
      9962 IM1      137      IM1      DC1      DRUD     -2.55160      0.400000           0   0.00000       0.00000    
      9963 IM1      137      IM1      H1       HDA3A    0.940000E-01   1.00800           0   0.00000       0.00000    
      9964 IM1      137      IM1      H2       HDA3A    0.940000E-01   1.00800           0   0.00000       0.00000    
      9965 IM1      137      IM1      H3       HDA3A    0.940000E-01   1.00800           0   0.00000       0.00000    
      9966 IM1      137      IM1      N1       ND2R5A    2.67030       13.6070           0  -1.06300       1.30000    
      9967 IM1      137      IM1      DN1      DRUD     -2.53030      0.400000           0   0.00000       0.00000    
      9968 IM1      137      IM1      C2       CD2R5A    2.51190       11.6110           0  -1.37800       1.30000    
      9969 IM1      137      IM1      DC2      DRUD     -2.88090      0.400000           0   0.00000       0.00000    
      9970 IM1      137      IM1      H4       HDR5A    0.150000       1.00800           0   0.00000       0.00000    
      9971 IM1      137      IM1      C3       CD2R5A    3.06890       11.6110           0  -1.37800       1.30000    
      9972 IM1      137      IM1      DC3      DRUD     -2.88090      0.400000           0   0.00000       0.00000    
      9973 IM1      137      IM1      H5       HDR5A    0.530000E-01   1.00800           0   0.00000       0.00000    
      9974 IM1      137      IM1      C4       CD2R5B    2.40440       11.6110           0 -0.868000       1.30000    
      9975 IM1      137      IM1      DC4      DRUD     -2.28640      0.400000           0   0.00000       0.00000    
      9976 IM1      137      IM1      H6       HDR5B    0.730000E-01   1.00800           0   0.00000       0.00000    
      9977 IM1      137      IM1      N2       ND2R5B    2.24930       13.6070           0 -0.840000       1.00000    
      9978 IM1      137      IM1      DN2      DRUD     -2.24930      0.400000           0   0.00000       0.00000    
      9979 IM1      137      IM1      H7       DUMH      0.00000       1.00800           0   0.00000       0.00000    
      9980 IM1      137      IM1      LPN21    LPD     -0.474000       0.00000          -1   0.00000       0.00000    
      9981 IM1      138      IM1      C1       CD33G     2.39060       11.6110           0  -1.08100       1.00000    
      9982 IM1      138      IM1      DC1      DRUD     -2.55160      0.400000           0   0.00000       0.00000    
      9983 IM1      138      IM1      H1       HDA3A    0.940000E-01   1.00800           0   0.00000       0.00000    
      9984 IM1      138      IM1      H2       HDA3A    0.940000E-01   1.00800           0   0.00000       0.00000    
      9985 IM1      138      IM1      H3       HDA3A    0.940000E-01   1.00800           0   0.00000       0.00000    
      9986 IM1      138      IM1      N1       ND2R5A    2.67030       13.6070           0  -1.06300       1.30000    
      9987 IM1      138      IM1      DN1      DRUD     -2.53030      0.400000           0   0.00000       0.00000    
      9988 IM1      138      IM1      C2       CD2R5A    2.51190       11.6110           0  -1.37800       1.30000    
      9989 IM1      138      IM1      DC2      DRUD     -2.88090      0.400000           0   0.00000       0.00000    
      9990 IM1      138      IM1      H4       HDR5A    0.150000       1.00800           0   0.00000       0.00000    
      9991 IM1      138      IM1      C3       CD2R5A    3.06890       11.6110           0  -1.37800       1.30000    
      9992 IM1      138      IM1      DC3      DRUD     -2.88090      0.400000           0   0.00000       0.00000    
      9993 IM1      138      IM1      H5       HDR5A    0.530000E-01   1.00800           0   0.00000       0.00000    
      9994 IM1      138      IM1      C4       CD2R5B    2.40440       11.6110           0 -0.868000       1.30000    
      9995 IM1      138      IM1      DC4      DRUD     -2.28640      0.400000           0   0.00000       0.00000    
      9996 IM1      138      IM1      H6       HDR5B    0.730000E-01   1.00800           0   0.00000       0.00000    
      9997 IM1      138      IM1      N2       ND2R5B    2.24930       13.6070           0 -0.840000       1.00000    
      9998 IM1      138      IM1      DN2      DRUD     -2.24930      0.400000           0   0.00000       0.00000    
      9999 IM1      138      IM1      H7       DUMH      0.00000       1.00800           0   0.00000       0.00000    
     10000 IM1      138      IM1      LPN21    LPD     -0.474000       0.00000          -1   0.00000       0.00000    
     10001 IM1      139      IM1      C1       CD33G     2.39060       11.6110           0  -1.08100       1.00000    
     10002 IM1      139      IM1      DC1      DRUD     -2.55160      0.400000           0   0.00000       0.00000    
     10003 IM1      139      IM1      H1       HDA3A    0.940000E-01   1.00800           0   0.00000       0.00000    
     10004 IM1      139      IM1      H2       HDA3A    0.940000E-01   1.00800           0   0.00000       0.00000    
     10005 IM1      139      IM1      H3       HDA3A    0.940000E-01   1.00800           0   0.00000       0.00000    
     10006 IM1      139      IM1      N1       ND2R5A    2.67030       13.6070           0  -1.06300       1.30000    
     10007 IM1      139      IM1      DN1      DRUD     -2.53030      0.400000           0   0.00000       0.00000    
     10008 IM1      139      IM1      C2       CD2R5A    2.51190       11.6110           0  -1.37800       1.30000    
     10009 IM1      139      IM1      DC2      DRUD     -2.88090      0.400000           0   0.00000       0.00000    
     10010 IM1      139      IM1      H4       HDR5A    0.150000       1.00800           0   0.00000       0.00000    
     10011 IM1      139      IM1      C3       CD2R5A    3.06890       11.6110           0  -1.37800       1.30000    
     10012 IM1      139      IM1      DC3      DRUD     -2.88090      0.400000           0   0.00000       0.00000    
     10013 IM1      139      IM1      H5       HDR5A    0.530000E-01   1.00800           0   0.00000       0.00000    
     10014 IM1      139      IM1      C4       CD2R5B    2.40440       11.6110           0 -0.868000       1.30000    
     10015 IM1      139      IM1      DC4      DRUD     -2.28640      0.400000           0   0.00000       0.00000    
     10016 IM1      139      IM1      H6       HDR5B    0.730000E-01   1.00800           0   0.00000       0.00000    
     10017 IM1      139      IM1      N2       ND2R5B    2.24930       13.6070           0 -0.840000       1.00000    
     10018 IM1      139      IM1      DN2      DRUD     -2.24930      0.400000           0   0.00000       0.00000    
     10019 IM1      139      IM1      H7       DUMH      0.00000       1.00800           0   0.00000       0.00000    
     10020 IM1      139      IM1      LPN21    LPD     -0.474000       0.00000          -1   0.00000       0.00000    
     10021 IM1      140      IM1      C1       CD33G     2.39060       11.6110           0  -1.08100       1.00000    
     10022 IM1      140      IM1      DC1      DRUD     -2.55160      0.400000           0   0.00000       0.00000    
     10023 IM1      140      IM1      H1       HDA3A    0.940000E-01   1.00800           0   0.00000       0.00000    
     10024 IM1      140      IM1      H2       HDA3A    0.940000E-01   1.00800           0   0.00000       0.00000    
     10025 IM1      140      IM1      H3       HDA3A    0.940000E-01   1.00800           0   0.00000       0.00000    
     10026 IM1      140      IM1      N1       ND2R5A    2.67030       13.6070           0  -1.06300       1.30000    
     10027 IM1      140      IM1      DN1      DRUD     -2.53030      0.400000           0   0.00000       0.00000    
     10028 IM1      140      IM1      C2       CD2R5A    2.51190       11.6110           0  -1.37800       1.30000    
     10029 IM1      140      IM1      DC2      DRUD     -2.88090      0.400000           0   0.00000       0.00000    
     10030 IM1      140      IM1      H4       HDR5A    0.150000       1.00800           0   0.00000       0.00000    
     10031 IM1      140      IM1      C3       CD2R5A    3.06890       11.6110           0  -1.37800       1.30000    
     10032 IM1      140      IM1      DC3      DRUD     -2.88090      0.400000           0   0.00000       0.00000    
     10033 IM1      140      IM1      H5       HDR5A    0.530000E-01   1.00800           0   0.00000       0.00000    
     10034 IM1      140      IM1      C4       CD2R5B    2.40440       11.6110           0 -0.868000       1.30000    
     10035 IM1      140      IM1      DC4      DRUD     -2.28640      0.400000           0   0.00000       0.00000    
     10036 IM1      140      IM1      H6       HDR5B    0.730000E-01   1.00800           0   0.00000       0.00000    
     10037 IM1      140      IM1      N2       ND2R5B    2.24930       13.6070           0 -0.840000       1.00000    
     10038 IM1      140      IM1      DN2      DRUD     -2.24930      0.400000           0   0.00000       0.00000    
     10039 IM1      140      IM1      H7       DUMH      0.00000       1.00800           0   0.00000       0.00000    
     10040 IM1      140      IM1      LPN21    LPD     -0.474000       0.00000          -1   0.00000       0.00000    
     10041 IM1      141      IM1      C1       CD33G     2.39060       11.6110           0  -1.08100       1.00000    
     10042 IM1      141      IM1      DC1      DRUD     -2.55160      0.400000           0   0.00000       0.00000    
     10043 IM1      141      IM1      H1       HDA3A    0.940000E-01   1.00800           0   0.00000       0.00000    
     10044 IM1      141      IM1      H2       HDA3A    0.940000E-01   1.00800           0   0.00000       0.00000    
     10045 IM1      141      IM1      H3       HDA3A    0.940000E-01   1.00800           0   0.00000       0.00000    
     10046 IM1      141      IM1      N1       ND2R5A    2.67030       13.6070           0  -1.06300       1.30000    
     10047 IM1      141      IM1      DN1      DRUD     -2.53030      0.400000           0   0.00000       0.00000    
     10048 IM1      141      IM1      C2       CD2R5A    2.51190       11.6110           0  -1.37800       1.30000    
     10049 IM1      141      IM1      DC2      DRUD     -2.88090      0.400000           0   0.00000       0.00000    
     10050 IM1      141      IM1      H4       HDR5A    0.150000       1.00800           0   0.00000       0.00000    
     10051 IM1      141      IM1      C3       CD2R5A    3.06890       11.6110           0  -1.37800       1.30000    
     10052 IM1      141      IM1      DC3      DRUD     -2.88090      0.400000           0   0.00000       0.00000    
     10053 IM1      141      IM1      H5       HDR5A    0.530000E-01   1.00800           0   0.00000       0.00000    
     10054 IM1      141      IM1      C4       CD2R5B    2.40440       11.6110           0 -0.868000       1.30000    
     10055 IM1      141      IM1      DC4      DRUD     -2.28640      0.400000           0   0.00000       0.00000    
     10056 IM1      141      IM1      H6       HDR5B    0.730000E-01   1.00800           0   0.00000       0.00000    
     10057 IM1      141      IM1      N2       ND2R5B    2.24930       13.6070           0 -0.840000       1.00000    
     10058 IM1      141      IM1      DN2      DRUD     -2.24930      0.400000           0   0.00000       0.00000    
     10059 IM1      141      IM1      H7       DUMH      0.00000       1.00800           0   0.00000       0.00000    
     10060 IM1      141      IM1      LPN21    LPD     -0.474000       0.00000          -1   0.00000       0.00000    
     10061 IM1      142      IM1      C1       CD33G     2.39060       11.6110           0  -1.08100       1.00000    
     10062 IM1      142      IM1      DC1      DRUD     -2.55160      0.400000           0   0.00000       0.00000    
     10063 IM1      142      IM1      H1       HDA3A    0.940000E-01   1.00800           0   0.00000       0.00000    
     10064 IM1      142      IM1      H2       HDA3A    0.940000E-01   1.00800           0   0.00000       0.00000    
     10065 IM1      142      IM1      H3       HDA3A    0.940000E-01   1.00800           0   0.00000       0.00000    
     10066 IM1      142      IM1      N1       ND2R5A    2.67030       13.6070           0  -1.06300       1.30000    
     10067 IM1      142      IM1      DN1      DRUD     -2.53030      0.400000           0   0.00000       0.00000    
     10068 IM1      142      IM1      C2       CD2R5A    2.51190       11.6110           0  -1.37800       1.30000    
     10069 IM1      142      IM1      DC2      DRUD     -2.88090      0.400000           0   0.00000       0.00000    
     10070 IM1      142      IM1      H4       HDR5A    0.150000       1.00800           0   0.00000       0.00000    
     10071 IM1      142      IM1      C3       CD2R5A    3.06890       11.6110           0  -1.37800       1.30000    
     10072 IM1      142      IM1      DC3      DRUD     -2.88090      0.400000           0   0.00000       0.00000    
     10073 IM1      142      IM1      H5       HDR5A    0.530000E-01   1.00800           0   0.00000       0.00000    
     10074 IM1      142      IM1      C4       CD2R5B    2.40440       11.6110           0 -0.868000       1.30000    
     10075 IM1      142      IM1      DC4      DRUD     -2.28640      0.400000           0   0.00000       0.00000    
     10076 IM1      142      IM1      H6       HDR5B    0.730000E-01   1.00800           0   0.00000       0.00000    
     10077 IM1      142      IM1      N2       ND2R5B    2.24930       13.6070           0 -0.840000       1.00000    
     10078 IM1      142      IM1      DN2      DRUD     -2.24930      0.400000           0   0.00000       0.00000    
     10079 IM1      142      IM1      H7       DUMH      0.00000       1.00800           0   0.00000       0.00000    
     10080 IM1      142      IM1      LPN21    LPD     -0.474000       0.00000          -1   0.00000       0.00000    
     10081 IM1      143      IM1      C1       CD33G     2.39060       11.6110           0  -1.08100       1.00000    
     10082 IM1      143      IM1      DC1      DRUD     -2.55160      0.400000           0   0.00000       0.00000    
     10083 IM1      143      IM1      H1       HDA3A    0.940000E-01   1.00800           0   0.00000       0.00000    
     10084 IM1      143      IM1      H2       HDA3A    0.940000E-01   1.00800           0   0.00000       0.00000    
     10085 IM1      143      IM1      H3       HDA3A    0.940000E-01   1.00800           0   0.00000       0.00000    
     10086 IM1      143      IM1      N1       ND2R5A    2.67030       13.6070           0  -1.06300       1.30000    
     10087 IM1      143      IM1      DN1      DRUD     -2.53030      0.400000           0   0.00000       0.00000    
     10088 IM1      143      IM1      C2       CD2R5A    2.51190       11.6110           0  -1.37800       1.30000    
     10089 IM1      143      IM1      DC2      DRUD     -2.88090      0.400000           0   0.00000       0.00000    
     10090 IM1      143      IM1      H4       HDR5A    0.150000       1.00800           0   0.00000       0.00000    
     10091 IM1      143      IM1      C3       CD2R5A    3.06890       11.6110           0  -1.37800       1.30000    
     10092 IM1      143      IM1      DC3      DRUD     -2.88090      0.400000           0   0.00000       0.00000    
     10093 IM1      143      IM1      H5       HDR5A    0.530000E-01   1.00800           0   0.00000       0.00000    
     10094 IM1      143      IM1      C4       CD2R5B    2.40440       11.6110           0 -0.868000       1.30000    
     10095 IM1      143      IM1      DC4      DRUD     -2.28640      0.400000           0   0.00000       0.00000    
     10096 IM1      143      IM1      H6       HDR5B    0.730000E-01   1.00800           0   0.00000       0.00000    
     10097 IM1      143      IM1      N2       ND2R5B    2.24930       13.6070           0 -0.840000       1.00000    
     10098 IM1      143      IM1      DN2      DRUD     -2.24930      0.400000           0   0.00000       0.00000    
     10099 IM1      143      IM1      H7       DUMH      0.00000       1.00800           0   0.00000       0.00000    
     10100 IM1      143      IM1      LPN21    LPD     -0.474000       0.00000          -1   0.00000       0.00000    
     10101 IM1      144      IM1      C1       CD33G     2.39060       11.6110           0  -1.08100       1.00000    
     10102 IM1      144      IM1      DC1      DRUD     -2.55160      0.400000           0   0.00000       0.00000    
     10103 IM1      144      IM1      H1       HDA3A    0.940000E-01   1.00800           0   0.00000       0.00000    
     10104 IM1      144      IM1      H2       HDA3A    0.940000E-01   1.00800           0   0.00000       0.00000    
     10105 IM1      144      IM1      H3       HDA3A    0.940000E-01   1.00800           0   0.00000       0.00000    
     10106 IM1      144      IM1      N1       ND2R5A    2.67030       13.6070           0  -1.06300       1.30000    
     10107 IM1      144      IM1      DN1      DRUD     -2.53030      0.400000           0   0.00000       0.00000    
     10108 IM1      144      IM1      C2       CD2R5A    2.51190       11.6110           0  -1.37800       1.30000    
     10109 IM1      144      IM1      DC2      DRUD     -2.88090      0.400000           0   0.00000       0.00000    
     10110 IM1      144      IM1      H4       HDR5A    0.150000       1.00800           0   0.00000       0.00000    
     10111 IM1      144      IM1      C3       CD2R5A    3.06890       11.6110           0  -1.37800       1.30000    
     10112 IM1      144      IM1      DC3      DRUD     -2.88090      0.400000           0   0.00000       0.00000    
     10113 IM1      144      IM1      H5       HDR5A    0.530000E-01   1.00800           0   0.00000       0.00000    
     10114 IM1      144      IM1      C4       CD2R5B    2.40440       11.6110           0 -0.868000       1.30000    
     10115 IM1      144      IM1      DC4      DRUD     -2.28640      0.400000           0   0.00000       0.00000    
     10116 IM1      144      IM1      H6       HDR5B    0.730000E-01   1.00800           0   0.00000       0.00000    
     10117 IM1      144      IM1      N2       ND2R5B    2.24930       13.6070           0 -0.840000       1.00000    
     10118 IM1      144      IM1      DN2      DRUD     -2.24930      0.400000           0   0.00000       0.00000    
     10119 IM1      144      IM1      H7       DUMH      0.00000       1.00800           0   0.00000       0.00000    
     10120 IM1      144      IM1      LPN21    LPD     -0.474000       0.00000          -1   0.00000       0.00000    
     10121 IM1      145      IM1      C1       CD33G     2.39060       11.6110           0  -1.08100       1.00000    
     10122 IM1      145      IM1      DC1      DRUD     -2.55160      0.400000           0   0.00000       0.00000    
     10123 IM1      145      IM1      H1       HDA3A    0.940000E-01   1.00800           0   0.00000       0.00000    
     10124 IM1      145      IM1      H2       HDA3A    0.940000E-01   1.00800           0   0.00000       0.00000    
     10125 IM1      145      IM1      H3       HDA3A    0.940000E-01   1.00800           0   0.00000       0.00000    
     10126 IM1      145      IM1      N1       ND2R5A    2.67030       13.6070           0  -1.06300       1.30000    
     10127 IM1      145      IM1      DN1      DRUD     -2.53030      0.400000           0   0.00000       0.00000    
     10128 IM1      145      IM1      C2       CD2R5A    2.51190       11.6110           0  -1.37800       1.30000    
     10129 IM1      145      IM1      DC2      DRUD     -2.88090      0.400000           0   0.00000       0.00000    
     10130 IM1      145      IM1      H4       HDR5A    0.150000       1.00800           0   0.00000       0.00000    
     10131 IM1      145      IM1      C3       CD2R5A    3.06890       11.6110           0  -1.37800       1.30000    
     10132 IM1      145      IM1      DC3      DRUD     -2.88090      0.400000           0   0.00000       0.00000    
     10133 IM1      145      IM1      H5       HDR5A    0.530000E-01   1.00800           0   0.00000       0.00000    
     10134 IM1      145      IM1      C4       CD2R5B    2.40440       11.6110           0 -0.868000       1.30000    
     10135 IM1      145      IM1      DC4      DRUD     -2.28640      0.400000           0   0.00000       0.00000    
     10136 IM1      145      IM1      H6       HDR5B    0.730000E-01   1.00800           0   0.00000       0.00000    
     10137 IM1      145      IM1      N2       ND2R5B    2.24930       13.6070           0 -0.840000       1.00000    
     10138 IM1      145      IM1      DN2      DRUD     -2.24930      0.400000           0   0.00000       0.00000    
     10139 IM1      145      IM1      H7       DUMH      0.00000       1.00800           0   0.00000       0.00000    
     10140 IM1      145      IM1      LPN21    LPD     -0.474000       0.00000          -1   0.00000       0.00000    
     10141 IM1      146      IM1      C1       CD33G     2.39060       11.6110           0  -1.08100       1.00000    
     10142 IM1      146      IM1      DC1      DRUD     -2.55160      0.400000           0   0.00000       0.00000    
     10143 IM1      146      IM1      H1       HDA3A    0.940000E-01   1.00800           0   0.00000       0.00000    
     10144 IM1      146      IM1      H2       HDA3A    0.940000E-01   1.00800           0   0.00000       0.00000    
     10145 IM1      146      IM1      H3       HDA3A    0.940000E-01   1.00800           0   0.00000       0.00000    
     10146 IM1      146      IM1      N1       ND2R5A    2.67030       13.6070           0  -1.06300       1.30000    
     10147 IM1      146      IM1      DN1      DRUD     -2.53030      0.400000           0   0.00000       0.00000    
     10148 IM1      146      IM1      C2       CD2R5A    2.51190       11.6110           0  -1.37800       1.30000    
     10149 IM1      146      IM1      DC2      DRUD     -2.88090      0.400000           0   0.00000       0.00000    
     10150 IM1      146      IM1      H4       HDR5A    0.150000       1.00800           0   0.00000       0.00000    
     10151 IM1      146      IM1      C3       CD2R5A    3.06890       11.6110           0  -1.37800       1.30000    
     10152 IM1      146      IM1      DC3      DRUD     -2.88090      0.400000           0   0.00000       0.00000    
     10153 IM1      146      IM1      H5       HDR5A    0.530000E-01   1.00800           0   0.00000       0.00000    
     10154 IM1      146      IM1      C4       CD2R5B    2.40440       11.6110           0 -0.868000       1.30000    
     10155 IM1      146      IM1      DC4      DRUD     -2.28640      0.400000           0   0.00000       0.00000    
     10156 IM1      146      IM1      H6       HDR5B    0.730000E-01   1.00800           0   0.00000       0.00000    
     10157 IM1      146      IM1      N2       ND2R5B    2.24930       13.6070           0 -0.840000       1.00000    
     10158 IM1      146      IM1      DN2      DRUD     -2.24930      0.400000           0   0.00000       0.00000    
     10159 IM1      146      IM1      H7       DUMH      0.00000       1.00800           0   0.00000       0.00000    
     10160 IM1      146      IM1      LPN21    LPD     -0.474000       0.00000          -1   0.00000       0.00000    
     10161 IM1      147      IM1      C1       CD33G     2.39060       11.6110           0  -1.08100       1.00000    
     10162 IM1      147      IM1      DC1      DRUD     -2.55160      0.400000           0   0.00000       0.00000    
     10163 IM1      147      IM1      H1       HDA3A    0.940000E-01   1.00800           0   0.00000       0.00000    
     10164 IM1      147      IM1      H2       HDA3A    0.940000E-01   1.00800           0   0.00000       0.00000    
     10165 IM1      147      IM1      H3       HDA3A    0.940000E-01   1.00800           0   0.00000       0.00000    
     10166 IM1      147      IM1      N1       ND2R5A    2.67030       13.6070           0  -1.06300       1.30000    
     10167 IM1      147      IM1      DN1      DRUD     -2.53030      0.400000           0   0.00000       0.00000    
     10168 IM1      147      IM1      C2       CD2R5A    2.51190       11.6110           0  -1.37800       1.30000    
     10169 IM1      147      IM1      DC2      DRUD     -2.88090      0.400000           0   0.00000       0.00000    
     10170 IM1      147      IM1      H4       HDR5A    0.150000       1.00800           0   0.00000       0.00000    
     10171 IM1      147      IM1      C3       CD2R5A    3.06890       11.6110           0  -1.37800       1.30000    
     10172 IM1      147      IM1      DC3      DRUD     -2.88090      0.400000           0   0.00000       0.00000    
     10173 IM1      147      IM1      H5       HDR5A    0.530000E-01   1.00800           0   0.00000       0.00000    
     10174 IM1      147      IM1      C4       CD2R5B    2.40440       11.6110           0 -0.868000       1.30000    
     10175 IM1      147      IM1      DC4      DRUD     -2.28640      0.400000           0   0.00000       0.00000    
     10176 IM1      147      IM1      H6       HDR5B    0.730000E-01   1.00800           0   0.00000       0.00000    
     10177 IM1      147      IM1      N2       ND2R5B    2.24930       13.6070           0 -0.840000       1.00000    
     10178 IM1      147      IM1      DN2      DRUD     -2.24930      0.400000           0   0.00000       0.00000    
     10179 IM1      147      IM1      H7       DUMH      0.00000       1.00800           0   0.00000       0.00000    
     10180 IM1      147      IM1      LPN21    LPD     -0.474000       0.00000          -1   0.00000       0.00000    
     10181 IM1      148      IM1      C1       CD33G     2.39060       11.6110           0  -1.08100       1.00000    
     10182 IM1      148      IM1      DC1      DRUD     -2.55160      0.400000           0   0.00000       0.00000    
     10183 IM1      148      IM1      H1       HDA3A    0.940000E-01   1.00800           0   0.00000       0.00000    
     10184 IM1      148      IM1      H2       HDA3A    0.940000E-01   1.00800           0   0.00000       0.00000    
     10185 IM1      148      IM1      H3       HDA3A    0.940000E-01   1.00800           0   0.00000       0.00000    
     10186 IM1      148      IM1      N1       ND2R5A    2.67030       13.6070           0  -1.06300       1.30000    
     10187 IM1      148      IM1      DN1      DRUD     -2.53030      0.400000           0   0.00000       0.00000    
     10188 IM1      148      IM1      C2       CD2R5A    2.51190       11.6110           0  -1.37800       1.30000    
     10189 IM1      148      IM1      DC2      DRUD     -2.88090      0.400000           0   0.00000       0.00000    
     10190 IM1      148      IM1      H4       HDR5A    0.150000       1.00800           0   0.00000       0.00000    
     10191 IM1      148      IM1      C3       CD2R5A    3.06890       11.6110           0  -1.37800       1.30000    
     10192 IM1      148      IM1      DC3      DRUD     -2.88090      0.400000           0   0.00000       0.00000    
     10193 IM1      148      IM1      H5       HDR5A    0.530000E-01   1.00800           0   0.00000       0.00000    
     10194 IM1      148      IM1      C4       CD2R5B    2.40440       11.6110           0 -0.868000       1.30000    
     10195 IM1      148      IM1      DC4      DRUD     -2.28640      0.400000           0   0.00000       0.00000    
     10196 IM1      148      IM1      H6       HDR5B    0.730000E-01   1.00800           0   0.00000       0.00000    
     10197 IM1      148      IM1      N2       ND2R5B    2.24930       13.6070           0 -0.840000       1.00000    
     10198 IM1      148      IM1      DN2      DRUD     -2.24930      0.400000           0   0.00000       0.00000    
     10199 IM1      148      IM1      H7       DUMH      0.00000       1.00800           0   0.00000       0.00000    
     10200 IM1      148      IM1      LPN21    LPD     -0.474000       0.00000          -1   0.00000       0.00000    
     10201 IM1      149      IM1      C1       CD33G     2.39060       11.6110           0  -1.08100       1.00000    
     10202 IM1      149      IM1      DC1      DRUD     -2.55160      0.400000           0   0.00000       0.00000    
     10203 IM1      149      IM1      H1       HDA3A    0.940000E-01   1.00800           0   0.00000       0.00000    
     10204 IM1      149      IM1      H2       HDA3A    0.940000E-01   1.00800           0   0.00000       0.00000    
     10205 IM1      149      IM1      H3       HDA3A    0.940000E-01   1.00800           0   0.00000       0.00000    
     10206 IM1      149      IM1      N1       ND2R5A    2.67030       13.6070           0  -1.06300       1.30000    
     10207 IM1      149      IM1      DN1      DRUD     -2.53030      0.400000           0   0.00000       0.00000    
     10208 IM1      149      IM1      C2       CD2R5A    2.51190       11.6110           0  -1.37800       1.30000    
     10209 IM1      149      IM1      DC2      DRUD     -2.88090      0.400000           0   0.00000       0.00000    
     10210 IM1      149      IM1      H4       HDR5A    0.150000       1.00800           0   0.00000       0.00000    
     10211 IM1      149      IM1      C3       CD2R5A    3.06890       11.6110           0  -1.37800       1.30000    
     10212 IM1      149      IM1      DC3      DRUD     -2.88090      0.400000           0   0.00000       0.00000    
     10213 IM1      149      IM1      H5       HDR5A    0.530000E-01   1.00800           0   0.00000       0.00000    
     10214 IM1      149      IM1      C4       CD2R5B    2.40440       11.6110           0 -0.868000       1.30000    
     10215 IM1      149      IM1      DC4      DRUD     -2.28640      0.400000           0   0.00000       0.00000    
     10216 IM1      149      IM1      H6       HDR5B    0.730000E-01   1.00800           0   0.00000       0.00000    
     10217 IM1      149      IM1      N2       ND2R5B    2.24930       13.6070           0 -0.840000       1.00000    
     10218 IM1      149      IM1      DN2      DRUD     -2.24930      0.400000           0   0.00000       0.00000    
     10219 IM1      149      IM1      H7       DUMH      0.00000       1.00800           0   0.00000       0.00000    
     10220 IM1      149      IM1      LPN21    LPD     -0.474000       0.00000          -1   0.00000       0.00000    
     10221 IM1      150      IM1      C1       CD33G     2.39060       11.6110           0  -1.08100       1.00000    
     10222 IM1      150      IM1      DC1      DRUD     -2.55160      0.400000           0   0.00000       0.00000    
     10223 IM1      150      IM1      H1       HDA3A    0.940000E-01   1.00800           0   0.00000       0.00000    
     10224 IM1      150      IM1      H2       HDA3A    0.940000E-01   1.00800           0   0.00000       0.00000    
     10225 IM1      150      IM1      H3       HDA3A    0.940000E-01   1.00800           0   0.00000       0.00000    
     10226 IM1      150      IM1      N1       ND2R5A    2.67030       13.6070           0  -1.06300       1.30000    
     10227 IM1      150      IM1      DN1      DRUD     -2.53030      0.400000           0   0.00000       0.00000    
     10228 IM1      150      IM1      C2       CD2R5A    2.51190       11.6110           0  -1.37800       1.30000    
     10229 IM1      150      IM1      DC2      DRUD     -2.88090      0.400000           0   0.00000       0.00000    
     10230 IM1      150      IM1      H4       HDR5A    0.150000       1.00800           0   0.00000       0.00000    
     10231 IM1      150      IM1      C3       CD2R5A    3.06890       11.6110           0  -1.37800       1.30000    
     10232 IM1      150      IM1      DC3      DRUD     -2.88090      0.400000           0   0.00000       0.00000    
     10233 IM1      150      IM1      H5       HDR5A    0.530000E-01   1.00800           0   0.00000       0.00000    
     10234 IM1      150      IM1      C4       CD2R5B    2.40440       11.6110           0 -0.868000       1.30000    
     10235 IM1      150      IM1      DC4      DRUD     -2.28640      0.400000           0   0.00000       0.00000    
     10236 IM1      150      IM1      H6       HDR5B    0.730000E-01   1.00800           0   0.00000       0.00000    
     10237 IM1      150      IM1      N2       ND2R5B    2.24930       13.6070           0 -0.840000       1.00000    
     10238 IM1      150      IM1      DN2      DRUD     -2.24930      0.400000           0   0.00000       0.00000    
     10239 IM1      150      IM1      H7       DUMH      0.00000       1.00800           0   0.00000       0.00000    
     10240 IM1      150      IM1      LPN21    LPD     -0.474000       0.00000          -1   0.00000       0.00000    
     10241 IM1      151      IM1      C1       CD33G     2.39060       11.6110           0  -1.08100       1.00000    
     10242 IM1      151      IM1      DC1      DRUD     -2.55160      0.400000           0   0.00000       0.00000    
     10243 IM1      151      IM1      H1       HDA3A    0.940000E-01   1.00800           0   0.00000       0.00000    
     10244 IM1      151      IM1      H2       HDA3A    0.940000E-01   1.00800           0   0.00000       0.00000    
     10245 IM1      151      IM1      H3       HDA3A    0.940000E-01   1.00800           0   0.00000       0.00000    
     10246 IM1      151      IM1      N1       ND2R5A    2.67030       13.6070           0  -1.06300       1.30000    
     10247 IM1      151      IM1      DN1      DRUD     -2.53030      0.400000           0   0.00000       0.00000    
     10248 IM1      151      IM1      C2       CD2R5A    2.51190       11.6110           0  -1.37800       1.30000    
     10249 IM1      151      IM1      DC2      DRUD     -2.88090      0.400000           0   0.00000       0.00000    
     10250 IM1      151      IM1      H4       HDR5A    0.150000       1.00800           0   0.00000       0.00000    
     10251 IM1      151      IM1      C3       CD2R5A    3.06890       11.6110           0  -1.37800       1.30000    
     10252 IM1      151      IM1      DC3      DRUD     -2.88090      0.400000           0   0.00000       0.00000    
     10253 IM1      151      IM1      H5       HDR5A    0.530000E-01   1.00800           0   0.00000       0.00000    
     10254 IM1      151      IM1      C4       CD2R5B    2.40440       11.6110           0 -0.868000       1.30000    
     10255 IM1      151      IM1      DC4      DRUD     -2.28640      0.400000           0   0.00000       0.00000    
     10256 IM1      151      IM1      H6       HDR5B    0.730000E-01   1.00800           0   0.00000       0.00000    
     10257 IM1      151      IM1      N2       ND2R5B    2.24930       13.6070           0 -0.840000       1.00000    
     10258 IM1      151      IM1      DN2      DRUD     -2.24930      0.400000           0   0.00000       0.00000    
     10259 IM1      151      IM1      H7       DUMH      0.00000       1.00800           0   0.00000       0.00000    
     10260 IM1      151      IM1      LPN21    LPD     -0.474000       0.00000          -1   0.00000       0.00000    
     10261 IM1      152      IM1      C1       CD33G     2.39060       11.6110           0  -1.08100       1.00000    
     10262 IM1      152      IM1      DC1      DRUD     -2.55160      0.400000           0   0.00000       0.00000    
     10263 IM1      152      IM1      H1       HDA3A    0.940000E-01   1.00800           0   0.00000       0.00000    
     10264 IM1      152      IM1      H2       HDA3A    0.940000E-01   1.00800           0   0.00000       0.00000    
     10265 IM1      152      IM1      H3       HDA3A    0.940000E-01   1.00800           0   0.00000       0.00000    
     10266 IM1      152      IM1      N1       ND2R5A    2.67030       13.6070           0  -1.06300       1.30000    
     10267 IM1      152      IM1      DN1      DRUD     -2.53030      0.400000           0   0.00000       0.00000    
     10268 IM1      152      IM1      C2       CD2R5A    2.51190       11.6110           0  -1.37800       1.30000    
     10269 IM1      152      IM1      DC2      DRUD     -2.88090      0.400000           0   0.00000       0.00000    
     10270 IM1      152      IM1      H4       HDR5A    0.150000       1.00800           0   0.00000       0.00000    
     10271 IM1      152      IM1      C3       CD2R5A    3.06890       11.6110           0  -1.37800       1.30000    
     10272 IM1      152      IM1      DC3      DRUD     -2.88090      0.400000           0   0.00000       0.00000    
     10273 IM1      152      IM1      H5       HDR5A    0.530000E-01   1.00800           0   0.00000       0.00000    
     10274 IM1      152      IM1      C4       CD2R5B    2.40440       11.6110           0 -0.868000       1.30000    
     10275 IM1      152      IM1      DC4      DRUD     -2.28640      0.400000           0   0.00000       0.00000    
     10276 IM1      152      IM1      H6       HDR5B    0.730000E-01   1.00800           0   0.00000       0.00000    
     10277 IM1      152      IM1      N2       ND2R5B    2.24930       13.6070           0 -0.840000       1.00000    
     10278 IM1      152      IM1      DN2      DRUD     -2.24930      0.400000           0   0.00000       0.00000    
     10279 IM1      152      IM1      H7       DUMH      0.00000       1.00800           0   0.00000       0.00000    
     10280 IM1      152      IM1      LPN21    LPD     -0.474000       0.00000          -1   0.00000       0.00000    
     10281 IM1      153      IM1      C1       CD33G     2.39060       11.6110           0  -1.08100       1.00000    
     10282 IM1      153      IM1      DC1      DRUD     -2.55160      0.400000           0   0.00000       0.00000    
     10283 IM1      153      IM1      H1       HDA3A    0.940000E-01   1.00800           0   0.00000       0.00000    
     10284 IM1      153      IM1      H2       HDA3A    0.940000E-01   1.00800           0   0.00000       0.00000    
     10285 IM1      153      IM1      H3       HDA3A    0.940000E-01   1.00800           0   0.00000       0.00000    
     10286 IM1      153      IM1      N1       ND2R5A    2.67030       13.6070           0  -1.06300       1.30000    
     10287 IM1      153      IM1      DN1      DRUD     -2.53030      0.400000           0   0.00000       0.00000    
     10288 IM1      153      IM1      C2       CD2R5A    2.51190       11.6110           0  -1.37800       1.30000    
     10289 IM1      153      IM1      DC2      DRUD     -2.88090      0.400000           0   0.00000       0.00000    
     10290 IM1      153      IM1      H4       HDR5A    0.150000       1.00800           0   0.00000       0.00000    
     10291 IM1      153      IM1      C3       CD2R5A    3.06890       11.6110           0  -1.37800       1.30000    
     10292 IM1      153      IM1      DC3      DRUD     -2.88090      0.400000           0   0.00000       0.00000    
     10293 IM1      153      IM1      H5       HDR5A    0.530000E-01   1.00800           0   0.00000       0.00000    
     10294 IM1      153      IM1      C4       CD2R5B    2.40440       11.6110           0 -0.868000       1.30000    
     10295 IM1      153      IM1      DC4      DRUD     -2.28640      0.400000           0   0.00000       0.00000    
     10296 IM1      153      IM1      H6       HDR5B    0.730000E-01   1.00800           0   0.00000       0.00000    
     10297 IM1      153      IM1      N2       ND2R5B    2.24930       13.6070           0 -0.840000       1.00000    
     10298 IM1      153      IM1      DN2      DRUD     -2.24930      0.400000           0   0.00000       0.00000    
     10299 IM1      153      IM1      H7       DUMH      0.00000       1.00800           0   0.00000       0.00000    
     10300 IM1      153      IM1      LPN21    LPD     -0.474000       0.00000          -1   0.00000       0.00000    
     10301 IM1      154      IM1      C1       CD33G     2.39060       11.6110           0  -1.08100       1.00000    
     10302 IM1      154      IM1      DC1      DRUD     -2.55160      0.400000           0   0.00000       0.00000    
     10303 IM1      154      IM1      H1       HDA3A    0.940000E-01   1.00800           0   0.00000       0.00000    
     10304 IM1      154      IM1      H2       HDA3A    0.940000E-01   1.00800           0   0.00000       0.00000    
     10305 IM1      154      IM1      H3       HDA3A    0.940000E-01   1.00800           0   0.00000       0.00000    
     10306 IM1      154      IM1      N1       ND2R5A    2.67030       13.6070           0  -1.06300       1.30000    
     10307 IM1      154      IM1      DN1      DRUD     -2.53030      0.400000           0   0.00000       0.00000    
     10308 IM1      154      IM1      C2       CD2R5A    2.51190       11.6110           0  -1.37800       1.30000    
     10309 IM1      154      IM1      DC2      DRUD     -2.88090      0.400000           0   0.00000       0.00000    
     10310 IM1      154      IM1      H4       HDR5A    0.150000       1.00800           0   0.00000       0.00000    
     10311 IM1      154      IM1      C3       CD2R5A    3.06890       11.6110           0  -1.37800       1.30000    
     10312 IM1      154      IM1      DC3      DRUD     -2.88090      0.400000           0   0.00000       0.00000    
     10313 IM1      154      IM1      H5       HDR5A    0.530000E-01   1.00800           0   0.00000       0.00000    
     10314 IM1      154      IM1      C4       CD2R5B    2.40440       11.6110           0 -0.868000       1.30000    
     10315 IM1      154      IM1      DC4      DRUD     -2.28640      0.400000           0   0.00000       0.00000    
     10316 IM1      154      IM1      H6       HDR5B    0.730000E-01   1.00800           0   0.00000       0.00000    
     10317 IM1      154      IM1      N2       ND2R5B    2.24930       13.6070           0 -0.840000       1.00000    
     10318 IM1      154      IM1      DN2      DRUD     -2.24930      0.400000           0   0.00000       0.00000    
     10319 IM1      154      IM1      H7       DUMH      0.00000       1.00800           0   0.00000       0.00000    
     10320 IM1      154      IM1      LPN21    LPD     -0.474000       0.00000          -1   0.00000       0.00000    
     10321 IM1      155      IM1      C1       CD33G     2.39060       11.6110           0  -1.08100       1.00000    
     10322 IM1      155      IM1      DC1      DRUD     -2.55160      0.400000           0   0.00000       0.00000    
     10323 IM1      155      IM1      H1       HDA3A    0.940000E-01   1.00800           0   0.00000       0.00000    
     10324 IM1      155      IM1      H2       HDA3A    0.940000E-01   1.00800           0   0.00000       0.00000    
     10325 IM1      155      IM1      H3       HDA3A    0.940000E-01   1.00800           0   0.00000       0.00000    
     10326 IM1      155      IM1      N1       ND2R5A    2.67030       13.6070           0  -1.06300       1.30000    
     10327 IM1      155      IM1      DN1      DRUD     -2.53030      0.400000           0   0.00000       0.00000    
     10328 IM1      155      IM1      C2       CD2R5A    2.51190       11.6110           0  -1.37800       1.30000    
     10329 IM1      155      IM1      DC2      DRUD     -2.88090      0.400000           0   0.00000       0.00000    
     10330 IM1      155      IM1      H4       HDR5A    0.150000       1.00800           0   0.00000       0.00000    
     10331 IM1      155      IM1      C3       CD2R5A    3.06890       11.6110           0  -1.37800       1.30000    
     10332 IM1      155      IM1      DC3      DRUD     -2.88090      0.400000           0   0.00000       0.00000    
     10333 IM1      155      IM1      H5       HDR5A    0.530000E-01   1.00800           0   0.00000       0.00000    
     10334 IM1      155      IM1      C4       CD2R5B    2.40440       11.6110           0 -0.868000       1.30000    
     10335 IM1      155      IM1      DC4      DRUD     -2.28640      0.400000           0   0.00000       0.00000    
     10336 IM1      155      IM1      H6       HDR5B    0.730000E-01   1.00800           0   0.00000       0.00000    
     10337 IM1      155      IM1      N2       ND2R5B    2.24930       13.6070           0 -0.840000       1.00000    
     10338 IM1      155      IM1      DN2      DRUD     -2.24930      0.400000           0   0.00000       0.00000    
     10339 IM1      155      IM1      H7       DUMH      0.00000       1.00800           0   0.00000       0.00000    
     10340 IM1      155      IM1      LPN21    LPD     -0.474000       0.00000          -1   0.00000       0.00000    
     10341 IM1      156      IM1      C1       CD33G     2.39060       11.6110           0  -1.08100       1.00000    
     10342 IM1      156      IM1      DC1      DRUD     -2.55160      0.400000           0   0.00000       0.00000    
     10343 IM1      156      IM1      H1       HDA3A    0.940000E-01   1.00800           0   0.00000       0.00000    
     10344 IM1      156      IM1      H2       HDA3A    0.940000E-01   1.00800           0   0.00000       0.00000    
     10345 IM1      156      IM1      H3       HDA3A    0.940000E-01   1.00800           0   0.00000       0.00000    
     10346 IM1      156      IM1      N1       ND2R5A    2.67030       13.6070           0  -1.06300       1.30000    
     10347 IM1      156      IM1      DN1      DRUD     -2.53030      0.400000           0   0.00000       0.00000    
     10348 IM1      156      IM1      C2       CD2R5A    2.51190       11.6110           0  -1.37800       1.30000    
     10349 IM1      156      IM1      DC2      DRUD     -2.88090      0.400000           0   0.00000       0.00000    
     10350 IM1      156      IM1      H4       HDR5A    0.150000       1.00800           0   0.00000       0.00000    
     10351 IM1      156      IM1      C3       CD2R5A    3.06890       11.6110           0  -1.37800       1.30000    
     10352 IM1      156      IM1      DC3      DRUD     -2.88090      0.400000           0   0.00000       0.00000    
     10353 IM1      156      IM1      H5       HDR5A    0.530000E-01   1.00800           0   0.00000       0.00000    
     10354 IM1      156      IM1      C4       CD2R5B    2.40440       11.6110           0 -0.868000       1.30000    
     10355 IM1      156      IM1      DC4      DRUD     -2.28640      0.400000           0   0.00000       0.00000    
     10356 IM1      156      IM1      H6       HDR5B    0.730000E-01   1.00800           0   0.00000       0.00000    
     10357 IM1      156      IM1      N2       ND2R5B    2.24930       13.6070           0 -0.840000       1.00000    
     10358 IM1      156      IM1      DN2      DRUD     -2.24930      0.400000           0   0.00000       0.00000    
     10359 IM1      156      IM1      H7       DUMH      0.00000       1.00800           0   0.00000       0.00000    
     10360 IM1      156      IM1      LPN21    LPD     -0.474000       0.00000          -1   0.00000       0.00000    
     10361 IM1      157      IM1      C1       CD33G     2.39060       11.6110           0  -1.08100       1.00000    
     10362 IM1      157      IM1      DC1      DRUD     -2.55160      0.400000           0   0.00000       0.00000    
     10363 IM1      157      IM1      H1       HDA3A    0.940000E-01   1.00800           0   0.00000       0.00000    
     10364 IM1      157      IM1      H2       HDA3A    0.940000E-01   1.00800           0   0.00000       0.00000    
     10365 IM1      157      IM1      H3       HDA3A    0.940000E-01   1.00800           0   0.00000       0.00000    
     10366 IM1      157      IM1      N1       ND2R5A    2.67030       13.6070           0  -1.06300       1.30000    
     10367 IM1      157      IM1      DN1      DRUD     -2.53030      0.400000           0   0.00000       0.00000    
     10368 IM1      157      IM1      C2       CD2R5A    2.51190       11.6110           0  -1.37800       1.30000    
     10369 IM1      157      IM1      DC2      DRUD     -2.88090      0.400000           0   0.00000       0.00000    
     10370 IM1      157      IM1      H4       HDR5A    0.150000       1.00800           0   0.00000       0.00000    
     10371 IM1      157      IM1      C3       CD2R5A    3.06890       11.6110           0  -1.37800       1.30000    
     10372 IM1      157      IM1      DC3      DRUD     -2.88090      0.400000           0   0.00000       0.00000    
     10373 IM1      157      IM1      H5       HDR5A    0.530000E-01   1.00800           0   0.00000       0.00000    
     10374 IM1      157      IM1      C4       CD2R5B    2.40440       11.6110           0 -0.868000       1.30000    
     10375 IM1      157      IM1      DC4      DRUD     -2.28640      0.400000           0   0.00000       0.00000    
     10376 IM1      157      IM1      H6       HDR5B    0.730000E-01   1.00800           0   0.00000       0.00000    
     10377 IM1      157      IM1      N2       ND2R5B    2.24930       13.6070           0 -0.840000       1.00000    
     10378 IM1      157      IM1      DN2      DRUD     -2.24930      0.400000           0   0.00000       0.00000    
     10379 IM1      157      IM1      H7       DUMH      0.00000       1.00800           0   0.00000       0.00000    
     10380 IM1      157      IM1      LPN21    LPD     -0.474000       0.00000          -1   0.00000       0.00000    
     10381 IM1      158      IM1      C1       CD33G     2.39060       11.6110           0  -1.08100       1.00000    
     10382 IM1      158      IM1      DC1      DRUD     -2.55160      0.400000           0   0.00000       0.00000    
     10383 IM1      158      IM1      H1       HDA3A    0.940000E-01   1.00800           0   0.00000       0.00000    
     10384 IM1      158      IM1      H2       HDA3A    0.940000E-01   1.00800           0   0.00000       0.00000    
     10385 IM1      158      IM1      H3       HDA3A    0.940000E-01   1.00800           0   0.00000       0.00000    
     10386 IM1      158      IM1      N1       ND2R5A    2.67030       13.6070           0  -1.06300       1.30000    
     10387 IM1      158      IM1      DN1      DRUD     -2.53030      0.400000           0   0.00000       0.00000    
     10388 IM1      158      IM1      C2       CD2R5A    2.51190       11.6110           0  -1.37800       1.30000    
     10389 IM1      158      IM1      DC2      DRUD     -2.88090      0.400000           0   0.00000       0.00000    
     10390 IM1      158      IM1      H4       HDR5A    0.150000       1.00800           0   0.00000       0.00000    
     10391 IM1      158      IM1      C3       CD2R5A    3.06890       11.6110           0  -1.37800       1.30000    
     10392 IM1      158      IM1      DC3      DRUD     -2.88090      0.400000           0   0.00000       0.00000    
     10393 IM1      158      IM1      H5       HDR5A    0.530000E-01   1.00800           0   0.00000       0.00000    
     10394 IM1      158      IM1      C4       CD2R5B    2.40440       11.6110           0 -0.868000       1.30000    
     10395 IM1      158      IM1      DC4      DRUD     -2.28640      0.400000           0   0.00000       0.00000    
     10396 IM1      158      IM1      H6       HDR5B    0.730000E-01   1.00800           0   0.00000       0.00000    
     10397 IM1      158      IM1      N2       ND2R5B    2.24930       13.6070           0 -0.840000       1.00000    
     10398 IM1      158      IM1      DN2      DRUD     -2.24930      0.400000           0   0.00000       0.00000    
     10399 IM1      158      IM1      H7       DUMH      0.00000       1.00800           0   0.00000       0.00000    
     10400 IM1      158      IM1      LPN21    LPD     -0.474000       0.00000          -1   0.00000       0.00000    
     10401 IM1      159      IM1      C1       CD33G     2.39060       11.6110           0  -1.08100       1.00000    
     10402 IM1      159      IM1      DC1      DRUD     -2.55160      0.400000           0   0.00000       0.00000    
     10403 IM1      159      IM1      H1       HDA3A    0.940000E-01   1.00800           0   0.00000       0.00000    
     10404 IM1      159      IM1      H2       HDA3A    0.940000E-01   1.00800           0   0.00000       0.00000    
     10405 IM1      159      IM1      H3       HDA3A    0.940000E-01   1.00800           0   0.00000       0.00000    
     10406 IM1      159      IM1      N1       ND2R5A    2.67030       13.6070           0  -1.06300       1.30000    
     10407 IM1      159      IM1      DN1      DRUD     -2.53030      0.400000           0   0.00000       0.00000    
     10408 IM1      159      IM1      C2       CD2R5A    2.51190       11.6110           0  -1.37800       1.30000    
     10409 IM1      159      IM1      DC2      DRUD     -2.88090      0.400000           0   0.00000       0.00000    
     10410 IM1      159      IM1      H4       HDR5A    0.150000       1.00800           0   0.00000       0.00000    
     10411 IM1      159      IM1      C3       CD2R5A    3.06890       11.6110           0  -1.37800       1.30000    
     10412 IM1      159      IM1      DC3      DRUD     -2.88090      0.400000           0   0.00000       0.00000    
     10413 IM1      159      IM1      H5       HDR5A    0.530000E-01   1.00800           0   0.00000       0.00000    
     10414 IM1      159      IM1      C4       CD2R5B    2.40440       11.6110           0 -0.868000       1.30000    
     10415 IM1      159      IM1      DC4      DRUD     -2.28640      0.400000           0   0.00000       0.00000    
     10416 IM1      159      IM1      H6       HDR5B    0.730000E-01   1.00800           0   0.00000       0.00000    
     10417 IM1      159      IM1      N2       ND2R5B    2.24930       13.6070           0 -0.840000       1.00000    
     10418 IM1      159      IM1      DN2      DRUD     -2.24930      0.400000           0   0.00000       0.00000    
     10419 IM1      159      IM1      H7       DUMH      0.00000       1.00800           0   0.00000       0.00000    
     10420 IM1      159      IM1      LPN21    LPD     -0.474000       0.00000          -1   0.00000       0.00000    
     10421 IM1      160      IM1      C1       CD33G     2.39060       11.6110           0  -1.08100       1.00000    
     10422 IM1      160      IM1      DC1      DRUD     -2.55160      0.400000           0   0.00000       0.00000    
     10423 IM1      160      IM1      H1       HDA3A    0.940000E-01   1.00800           0   0.00000       0.00000    
     10424 IM1      160      IM1      H2       HDA3A    0.940000E-01   1.00800           0   0.00000       0.00000    
     10425 IM1      160      IM1      H3       HDA3A    0.940000E-01   1.00800           0   0.00000       0.00000    
     10426 IM1      160      IM1      N1       ND2R5A    2.67030       13.6070           0  -1.06300       1.30000    
     10427 IM1      160      IM1      DN1      DRUD     -2.53030      0.400000           0   0.00000       0.00000    
     10428 IM1      160      IM1      C2       CD2R5A    2.51190       11.6110           0  -1.37800       1.30000    
     10429 IM1      160      IM1      DC2      DRUD     -2.88090      0.400000           0   0.00000       0.00000    
     10430 IM1      160      IM1      H4       HDR5A    0.150000       1.00800           0   0.00000       0.00000    
     10431 IM1      160      IM1      C3       CD2R5A    3.06890       11.6110           0  -1.37800       1.30000    
     10432 IM1      160      IM1      DC3      DRUD     -2.88090      0.400000           0   0.00000       0.00000    
     10433 IM1      160      IM1      H5       HDR5A    0.530000E-01   1.00800           0   0.00000       0.00000    
     10434 IM1      160      IM1      C4       CD2R5B    2.40440       11.6110           0 -0.868000       1.30000    
     10435 IM1      160      IM1      DC4      DRUD     -2.28640      0.400000           0   0.00000       0.00000    
     10436 IM1      160      IM1      H6       HDR5B    0.730000E-01   1.00800           0   0.00000       0.00000    
     10437 IM1      160      IM1      N2       ND2R5B    2.24930       13.6070           0 -0.840000       1.00000    
     10438 IM1      160      IM1      DN2      DRUD     -2.24930      0.400000           0   0.00000       0.00000    
     10439 IM1      160      IM1      H7       DUMH      0.00000       1.00800           0   0.00000       0.00000    
     10440 IM1      160      IM1      LPN21    LPD     -0.474000       0.00000          -1   0.00000       0.00000    
     10441 IM1      161      IM1      C1       CD33G     2.39060       11.6110           0  -1.08100       1.00000    
     10442 IM1      161      IM1      DC1      DRUD     -2.55160      0.400000           0   0.00000       0.00000    
     10443 IM1      161      IM1      H1       HDA3A    0.940000E-01   1.00800           0   0.00000       0.00000    
     10444 IM1      161      IM1      H2       HDA3A    0.940000E-01   1.00800           0   0.00000       0.00000    
     10445 IM1      161      IM1      H3       HDA3A    0.940000E-01   1.00800           0   0.00000       0.00000    
     10446 IM1      161      IM1      N1       ND2R5A    2.67030       13.6070           0  -1.06300       1.30000    
     10447 IM1      161      IM1      DN1      DRUD     -2.53030      0.400000           0   0.00000       0.00000    
     10448 IM1      161      IM1      C2       CD2R5A    2.51190       11.6110           0  -1.37800       1.30000    
     10449 IM1      161      IM1      DC2      DRUD     -2.88090      0.400000           0   0.00000       0.00000    
     10450 IM1      161      IM1      H4       HDR5A    0.150000       1.00800           0   0.00000       0.00000    
     10451 IM1      161      IM1      C3       CD2R5A    3.06890       11.6110           0  -1.37800       1.30000    
     10452 IM1      161      IM1      DC3      DRUD     -2.88090      0.400000           0   0.00000       0.00000    
     10453 IM1      161      IM1      H5       HDR5A    0.530000E-01   1.00800           0   0.00000       0.00000    
     10454 IM1      161      IM1      C4       CD2R5B    2.40440       11.6110           0 -0.868000       1.30000    
     10455 IM1      161      IM1      DC4      DRUD     -2.28640      0.400000           0   0.00000       0.00000    
     10456 IM1      161      IM1      H6       HDR5B    0.730000E-01   1.00800           0   0.00000       0.00000    
     10457 IM1      161      IM1      N2       ND2R5B    2.24930       13.6070           0 -0.840000       1.00000    
     10458 IM1      161      IM1      DN2      DRUD     -2.24930      0.400000           0   0.00000       0.00000    
     10459 IM1      161      IM1      H7       DUMH      0.00000       1.00800           0   0.00000       0.00000    
     10460 IM1      161      IM1      LPN21    LPD     -0.474000       0.00000          -1   0.00000       0.00000    
     10461 IM1      162      IM1      C1       CD33G     2.39060       11.6110           0  -1.08100       1.00000    
     10462 IM1      162      IM1      DC1      DRUD     -2.55160      0.400000           0   0.00000       0.00000    
     10463 IM1      162      IM1      H1       HDA3A    0.940000E-01   1.00800           0   0.00000       0.00000    
     10464 IM1      162      IM1      H2       HDA3A    0.940000E-01   1.00800           0   0.00000       0.00000    
     10465 IM1      162      IM1      H3       HDA3A    0.940000E-01   1.00800           0   0.00000       0.00000    
     10466 IM1      162      IM1      N1       ND2R5A    2.67030       13.6070           0  -1.06300       1.30000    
     10467 IM1      162      IM1      DN1      DRUD     -2.53030      0.400000           0   0.00000       0.00000    
     10468 IM1      162      IM1      C2       CD2R5A    2.51190       11.6110           0  -1.37800       1.30000    
     10469 IM1      162      IM1      DC2      DRUD     -2.88090      0.400000           0   0.00000       0.00000    
     10470 IM1      162      IM1      H4       HDR5A    0.150000       1.00800           0   0.00000       0.00000    
     10471 IM1      162      IM1      C3       CD2R5A    3.06890       11.6110           0  -1.37800       1.30000    
     10472 IM1      162      IM1      DC3      DRUD     -2.88090      0.400000           0   0.00000       0.00000    
     10473 IM1      162      IM1      H5       HDR5A    0.530000E-01   1.00800           0   0.00000       0.00000    
     10474 IM1      162      IM1      C4       CD2R5B    2.40440       11.6110           0 -0.868000       1.30000    
     10475 IM1      162      IM1      DC4      DRUD     -2.28640      0.400000           0   0.00000       0.00000    
     10476 IM1      162      IM1      H6       HDR5B    0.730000E-01   1.00800           0   0.00000       0.00000    
     10477 IM1      162      IM1      N2       ND2R5B    2.24930       13.6070           0 -0.840000       1.00000    
     10478 IM1      162      IM1      DN2      DRUD     -2.24930      0.400000           0   0.00000       0.00000    
     10479 IM1      162      IM1      H7       DUMH      0.00000       1.00800           0   0.00000       0.00000    
     10480 IM1      162      IM1      LPN21    LPD     -0.474000       0.00000          -1   0.00000       0.00000    
     10481 IM1      163      IM1      C1       CD33G     2.39060       11.6110           0  -1.08100       1.00000    
     10482 IM1      163      IM1      DC1      DRUD     -2.55160      0.400000           0   0.00000       0.00000    
     10483 IM1      163      IM1      H1       HDA3A    0.940000E-01   1.00800           0   0.00000       0.00000    
     10484 IM1      163      IM1      H2       HDA3A    0.940000E-01   1.00800           0   0.00000       0.00000    
     10485 IM1      163      IM1      H3       HDA3A    0.940000E-01   1.00800           0   0.00000       0.00000    
     10486 IM1      163      IM1      N1       ND2R5A    2.67030       13.6070           0  -1.06300       1.30000    
     10487 IM1      163      IM1      DN1      DRUD     -2.53030      0.400000           0   0.00000       0.00000    
     10488 IM1      163      IM1      C2       CD2R5A    2.51190       11.6110           0  -1.37800       1.30000    
     10489 IM1      163      IM1      DC2      DRUD     -2.88090      0.400000           0   0.00000       0.00000    
     10490 IM1      163      IM1      H4       HDR5A    0.150000       1.00800           0   0.00000       0.00000    
     10491 IM1      163      IM1      C3       CD2R5A    3.06890       11.6110           0  -1.37800       1.30000    
     10492 IM1      163      IM1      DC3      DRUD     -2.88090      0.400000           0   0.00000       0.00000    
     10493 IM1      163      IM1      H5       HDR5A    0.530000E-01   1.00800           0   0.00000       0.00000    
     10494 IM1      163      IM1      C4       CD2R5B    2.40440       11.6110           0 -0.868000       1.30000    
     10495 IM1      163      IM1      DC4      DRUD     -2.28640      0.400000           0   0.00000       0.00000    
     10496 IM1      163      IM1      H6       HDR5B    0.730000E-01   1.00800           0   0.00000       0.00000    
     10497 IM1      163      IM1      N2       ND2R5B    2.24930       13.6070           0 -0.840000       1.00000    
     10498 IM1      163      IM1      DN2      DRUD     -2.24930      0.400000           0   0.00000       0.00000    
     10499 IM1      163      IM1      H7       DUMH      0.00000       1.00800           0   0.00000       0.00000    
     10500 IM1      163      IM1      LPN21    LPD     -0.474000       0.00000          -1   0.00000       0.00000    
     10501 IM1      164      IM1      C1       CD33G     2.39060       11.6110           0  -1.08100       1.00000    
     10502 IM1      164      IM1      DC1      DRUD     -2.55160      0.400000           0   0.00000       0.00000    
     10503 IM1      164      IM1      H1       HDA3A    0.940000E-01   1.00800           0   0.00000       0.00000    
     10504 IM1      164      IM1      H2       HDA3A    0.940000E-01   1.00800           0   0.00000       0.00000    
     10505 IM1      164      IM1      H3       HDA3A    0.940000E-01   1.00800           0   0.00000       0.00000    
     10506 IM1      164      IM1      N1       ND2R5A    2.67030       13.6070           0  -1.06300       1.30000    
     10507 IM1      164      IM1      DN1      DRUD     -2.53030      0.400000           0   0.00000       0.00000    
     10508 IM1      164      IM1      C2       CD2R5A    2.51190       11.6110           0  -1.37800       1.30000    
     10509 IM1      164      IM1      DC2      DRUD     -2.88090      0.400000           0   0.00000       0.00000    
     10510 IM1      164      IM1      H4       HDR5A    0.150000       1.00800           0   0.00000       0.00000    
     10511 IM1      164      IM1      C3       CD2R5A    3.06890       11.6110           0  -1.37800       1.30000    
     10512 IM1      164      IM1      DC3      DRUD     -2.88090      0.400000           0   0.00000       0.00000    
     10513 IM1      164      IM1      H5       HDR5A    0.530000E-01   1.00800           0   0.00000       0.00000    
     10514 IM1      164      IM1      C4       CD2R5B    2.40440       11.6110           0 -0.868000       1.30000    
     10515 IM1      164      IM1      DC4      DRUD     -2.28640      0.400000           0   0.00000       0.00000    
     10516 IM1      164      IM1      H6       HDR5B    0.730000E-01   1.00800           0   0.00000       0.00000    
     10517 IM1      164      IM1      N2       ND2R5B    2.24930       13.6070           0 -0.840000       1.00000    
     10518 IM1      164      IM1      DN2      DRUD     -2.24930      0.400000           0   0.00000       0.00000    
     10519 IM1      164      IM1      H7       DUMH      0.00000       1.00800           0   0.00000       0.00000    
     10520 IM1      164      IM1      LPN21    LPD     -0.474000       0.00000          -1   0.00000       0.00000    
     10521 IM1      165      IM1      C1       CD33G     2.39060       11.6110           0  -1.08100       1.00000    
     10522 IM1      165      IM1      DC1      DRUD     -2.55160      0.400000           0   0.00000       0.00000    
     10523 IM1      165      IM1      H1       HDA3A    0.940000E-01   1.00800           0   0.00000       0.00000    
     10524 IM1      165      IM1      H2       HDA3A    0.940000E-01   1.00800           0   0.00000       0.00000    
     10525 IM1      165      IM1      H3       HDA3A    0.940000E-01   1.00800           0   0.00000       0.00000    
     10526 IM1      165      IM1      N1       ND2R5A    2.67030       13.6070           0  -1.06300       1.30000    
     10527 IM1      165      IM1      DN1      DRUD     -2.53030      0.400000           0   0.00000       0.00000    
     10528 IM1      165      IM1      C2       CD2R5A    2.51190       11.6110           0  -1.37800       1.30000    
     10529 IM1      165      IM1      DC2      DRUD     -2.88090      0.400000           0   0.00000       0.00000    
     10530 IM1      165      IM1      H4       HDR5A    0.150000       1.00800           0   0.00000       0.00000    
     10531 IM1      165      IM1      C3       CD2R5A    3.06890       11.6110           0  -1.37800       1.30000    
     10532 IM1      165      IM1      DC3      DRUD     -2.88090      0.400000           0   0.00000       0.00000    
     10533 IM1      165      IM1      H5       HDR5A    0.530000E-01   1.00800           0   0.00000       0.00000    
     10534 IM1      165      IM1      C4       CD2R5B    2.40440       11.6110           0 -0.868000       1.30000    
     10535 IM1      165      IM1      DC4      DRUD     -2.28640      0.400000           0   0.00000       0.00000    
     10536 IM1      165      IM1      H6       HDR5B    0.730000E-01   1.00800           0   0.00000       0.00000    
     10537 IM1      165      IM1      N2       ND2R5B    2.24930       13.6070           0 -0.840000       1.00000    
     10538 IM1      165      IM1      DN2      DRUD     -2.24930      0.400000           0   0.00000       0.00000    
     10539 IM1      165      IM1      H7       DUMH      0.00000       1.00800           0   0.00000       0.00000    
     10540 IM1      165      IM1      LPN21    LPD     -0.474000       0.00000          -1   0.00000       0.00000    
     10541 IM1      166      IM1      C1       CD33G     2.39060       11.6110           0  -1.08100       1.00000    
     10542 IM1      166      IM1      DC1      DRUD     -2.55160      0.400000           0   0.00000       0.00000    
     10543 IM1      166      IM1      H1       HDA3A    0.940000E-01   1.00800           0   0.00000       0.00000    
     10544 IM1      166      IM1      H2       HDA3A    0.940000E-01   1.00800           0   0.00000       0.00000    
     10545 IM1      166      IM1      H3       HDA3A    0.940000E-01   1.00800           0   0.00000       0.00000    
     10546 IM1      166      IM1      N1       ND2R5A    2.67030       13.6070           0  -1.06300       1.30000    
     10547 IM1      166      IM1      DN1      DRUD     -2.53030      0.400000           0   0.00000       0.00000    
     10548 IM1      166      IM1      C2       CD2R5A    2.51190       11.6110           0  -1.37800       1.30000    
     10549 IM1      166      IM1      DC2      DRUD     -2.88090      0.400000           0   0.00000       0.00000    
     10550 IM1      166      IM1      H4       HDR5A    0.150000       1.00800           0   0.00000       0.00000    
     10551 IM1      166      IM1      C3       CD2R5A    3.06890       11.6110           0  -1.37800       1.30000    
     10552 IM1      166      IM1      DC3      DRUD     -2.88090      0.400000           0   0.00000       0.00000    
     10553 IM1      166      IM1      H5       HDR5A    0.530000E-01   1.00800           0   0.00000       0.00000    
     10554 IM1      166      IM1      C4       CD2R5B    2.40440       11.6110           0 -0.868000       1.30000    
     10555 IM1      166      IM1      DC4      DRUD     -2.28640      0.400000           0   0.00000       0.00000    
     10556 IM1      166      IM1      H6       HDR5B    0.730000E-01   1.00800           0   0.00000       0.00000    
     10557 IM1      166      IM1      N2       ND2R5B    2.24930       13.6070           0 -0.840000       1.00000    
     10558 IM1      166      IM1      DN2      DRUD     -2.24930      0.400000           0   0.00000       0.00000    
     10559 IM1      166      IM1      H7       DUMH      0.00000       1.00800           0   0.00000       0.00000    
     10560 IM1      166      IM1      LPN21    LPD     -0.474000       0.00000          -1   0.00000       0.00000    
     10561 IM1      167      IM1      C1       CD33G     2.39060       11.6110           0  -1.08100       1.00000    
     10562 IM1      167      IM1      DC1      DRUD     -2.55160      0.400000           0   0.00000       0.00000    
     10563 IM1      167      IM1      H1       HDA3A    0.940000E-01   1.00800           0   0.00000       0.00000    
     10564 IM1      167      IM1      H2       HDA3A    0.940000E-01   1.00800           0   0.00000       0.00000    
     10565 IM1      167      IM1      H3       HDA3A    0.940000E-01   1.00800           0   0.00000       0.00000    
     10566 IM1      167      IM1      N1       ND2R5A    2.67030       13.6070           0  -1.06300       1.30000    
     10567 IM1      167      IM1      DN1      DRUD     -2.53030      0.400000           0   0.00000       0.00000    
     10568 IM1      167      IM1      C2       CD2R5A    2.51190       11.6110           0  -1.37800       1.30000    
     10569 IM1      167      IM1      DC2      DRUD     -2.88090      0.400000           0   0.00000       0.00000    
     10570 IM1      167      IM1      H4       HDR5A    0.150000       1.00800           0   0.00000       0.00000    
     10571 IM1      167      IM1      C3       CD2R5A    3.06890       11.6110           0  -1.37800       1.30000    
     10572 IM1      167      IM1      DC3      DRUD     -2.88090      0.400000           0   0.00000       0.00000    
     10573 IM1      167      IM1      H5       HDR5A    0.530000E-01   1.00800           0   0.00000       0.00000    
     10574 IM1      167      IM1      C4       CD2R5B    2.40440       11.6110           0 -0.868000       1.30000    
     10575 IM1      167      IM1      DC4      DRUD     -2.28640      0.400000           0   0.00000       0.00000    
     10576 IM1      167      IM1      H6       HDR5B    0.730000E-01   1.00800           0   0.00000       0.00000    
     10577 IM1      167      IM1      N2       ND2R5B    2.24930       13.6070           0 -0.840000       1.00000    
     10578 IM1      167      IM1      DN2      DRUD     -2.24930      0.400000           0   0.00000       0.00000    
     10579 IM1      167      IM1      H7       DUMH      0.00000       1.00800           0   0.00000       0.00000    
     10580 IM1      167      IM1      LPN21    LPD     -0.474000       0.00000          -1   0.00000       0.00000    
     10581 IM1      168      IM1      C1       CD33G     2.39060       11.6110           0  -1.08100       1.00000    
     10582 IM1      168      IM1      DC1      DRUD     -2.55160      0.400000           0   0.00000       0.00000    
     10583 IM1      168      IM1      H1       HDA3A    0.940000E-01   1.00800           0   0.00000       0.00000    
     10584 IM1      168      IM1      H2       HDA3A    0.940000E-01   1.00800           0   0.00000       0.00000    
     10585 IM1      168      IM1      H3       HDA3A    0.940000E-01   1.00800           0   0.00000       0.00000    
     10586 IM1      168      IM1      N1       ND2R5A    2.67030       13.6070           0  -1.06300       1.30000    
     10587 IM1      168      IM1      DN1      DRUD     -2.53030      0.400000           0   0.00000       0.00000    
     10588 IM1      168      IM1      C2       CD2R5A    2.51190       11.6110           0  -1.37800       1.30000    
     10589 IM1      168      IM1      DC2      DRUD     -2.88090      0.400000           0   0.00000       0.00000    
     10590 IM1      168      IM1      H4       HDR5A    0.150000       1.00800           0   0.00000       0.00000    
     10591 IM1      168      IM1      C3       CD2R5A    3.06890       11.6110           0  -1.37800       1.30000    
     10592 IM1      168      IM1      DC3      DRUD     -2.88090      0.400000           0   0.00000       0.00000    
     10593 IM1      168      IM1      H5       HDR5A    0.530000E-01   1.00800           0   0.00000       0.00000    
     10594 IM1      168      IM1      C4       CD2R5B    2.40440       11.6110           0 -0.868000       1.30000    
     10595 IM1      168      IM1      DC4      DRUD     -2.28640      0.400000           0   0.00000       0.00000    
     10596 IM1      168      IM1      H6       HDR5B    0.730000E-01   1.00800           0   0.00000       0.00000    
     10597 IM1      168      IM1      N2       ND2R5B    2.24930       13.6070           0 -0.840000       1.00000    
     10598 IM1      168      IM1      DN2      DRUD     -2.24930      0.400000           0   0.00000       0.00000    
     10599 IM1      168      IM1      H7       DUMH      0.00000       1.00800           0   0.00000       0.00000    
     10600 IM1      168      IM1      LPN21    LPD     -0.474000       0.00000          -1   0.00000       0.00000    
     10601 IM1      169      IM1      C1       CD33G     2.39060       11.6110           0  -1.08100       1.00000    
     10602 IM1      169      IM1      DC1      DRUD     -2.55160      0.400000           0   0.00000       0.00000    
     10603 IM1      169      IM1      H1       HDA3A    0.940000E-01   1.00800           0   0.00000       0.00000    
     10604 IM1      169      IM1      H2       HDA3A    0.940000E-01   1.00800           0   0.00000       0.00000    
     10605 IM1      169      IM1      H3       HDA3A    0.940000E-01   1.00800           0   0.00000       0.00000    
     10606 IM1      169      IM1      N1       ND2R5A    2.67030       13.6070           0  -1.06300       1.30000    
     10607 IM1      169      IM1      DN1      DRUD     -2.53030      0.400000           0   0.00000       0.00000    
     10608 IM1      169      IM1      C2       CD2R5A    2.51190       11.6110           0  -1.37800       1.30000    
     10609 IM1      169      IM1      DC2      DRUD     -2.88090      0.400000           0   0.00000       0.00000    
     10610 IM1      169      IM1      H4       HDR5A    0.150000       1.00800           0   0.00000       0.00000    
     10611 IM1      169      IM1      C3       CD2R5A    3.06890       11.6110           0  -1.37800       1.30000    
     10612 IM1      169      IM1      DC3      DRUD     -2.88090      0.400000           0   0.00000       0.00000    
     10613 IM1      169      IM1      H5       HDR5A    0.530000E-01   1.00800           0   0.00000       0.00000    
     10614 IM1      169      IM1      C4       CD2R5B    2.40440       11.6110           0 -0.868000       1.30000    
     10615 IM1      169      IM1      DC4      DRUD     -2.28640      0.400000           0   0.00000       0.00000    
     10616 IM1      169      IM1      H6       HDR5B    0.730000E-01   1.00800           0   0.00000       0.00000    
     10617 IM1      169      IM1      N2       ND2R5B    2.24930       13.6070           0 -0.840000       1.00000    
     10618 IM1      169      IM1      DN2      DRUD     -2.24930      0.400000           0   0.00000       0.00000    
     10619 IM1      169      IM1      H7       DUMH      0.00000       1.00800           0   0.00000       0.00000    
     10620 IM1      169      IM1      LPN21    LPD     -0.474000       0.00000          -1   0.00000       0.00000    
     10621 IM1      170      IM1      C1       CD33G     2.39060       11.6110           0  -1.08100       1.00000    
     10622 IM1      170      IM1      DC1      DRUD     -2.55160      0.400000           0   0.00000       0.00000    
     10623 IM1      170      IM1      H1       HDA3A    0.940000E-01   1.00800           0   0.00000       0.00000    
     10624 IM1      170      IM1      H2       HDA3A    0.940000E-01   1.00800           0   0.00000       0.00000    
     10625 IM1      170      IM1      H3       HDA3A    0.940000E-01   1.00800           0   0.00000       0.00000    
     10626 IM1      170      IM1      N1       ND2R5A    2.67030       13.6070           0  -1.06300       1.30000    
     10627 IM1      170      IM1      DN1      DRUD     -2.53030      0.400000           0   0.00000       0.00000    
     10628 IM1      170      IM1      C2       CD2R5A    2.51190       11.6110           0  -1.37800       1.30000    
     10629 IM1      170      IM1      DC2      DRUD     -2.88090      0.400000           0   0.00000       0.00000    
     10630 IM1      170      IM1      H4       HDR5A    0.150000       1.00800           0   0.00000       0.00000    
     10631 IM1      170      IM1      C3       CD2R5A    3.06890       11.6110           0  -1.37800       1.30000    
     10632 IM1      170      IM1      DC3      DRUD     -2.88090      0.400000           0   0.00000       0.00000    
     10633 IM1      170      IM1      H5       HDR5A    0.530000E-01   1.00800           0   0.00000       0.00000    
     10634 IM1      170      IM1      C4       CD2R5B    2.40440       11.6110           0 -0.868000       1.30000    
     10635 IM1      170      IM1      DC4      DRUD     -2.28640      0.400000           0   0.00000       0.00000    
     10636 IM1      170      IM1      H6       HDR5B    0.730000E-01   1.00800           0   0.00000       0.00000    
     10637 IM1      170      IM1      N2       ND2R5B    2.24930       13.6070           0 -0.840000       1.00000    
     10638 IM1      170      IM1      DN2      DRUD     -2.24930      0.400000           0   0.00000       0.00000    
     10639 IM1      170      IM1      H7       DUMH      0.00000       1.00800           0   0.00000       0.00000    
     10640 IM1      170      IM1      LPN21    LPD     -0.474000       0.00000          -1   0.00000       0.00000    
     10641 IM1      171      IM1      C1       CD33G     2.39060       11.6110           0  -1.08100       1.00000    
     10642 IM1      171      IM1      DC1      DRUD     -2.55160      0.400000           0   0.00000       0.00000    
     10643 IM1      171      IM1      H1       HDA3A    0.940000E-01   1.00800           0   0.00000       0.00000    
     10644 IM1      171      IM1      H2       HDA3A    0.940000E-01   1.00800           0   0.00000       0.00000    
     10645 IM1      171      IM1      H3       HDA3A    0.940000E-01   1.00800           0   0.00000       0.00000    
     10646 IM1      171      IM1      N1       ND2R5A    2.67030       13.6070           0  -1.06300       1.30000    
     10647 IM1      171      IM1      DN1      DRUD     -2.53030      0.400000           0   0.00000       0.00000    
     10648 IM1      171      IM1      C2       CD2R5A    2.51190       11.6110           0  -1.37800       1.30000    
     10649 IM1      171      IM1      DC2      DRUD     -2.88090      0.400000           0   0.00000       0.00000    
     10650 IM1      171      IM1      H4       HDR5A    0.150000       1.00800           0   0.00000       0.00000    
     10651 IM1      171      IM1      C3       CD2R5A    3.06890       11.6110           0  -1.37800       1.30000    
     10652 IM1      171      IM1      DC3      DRUD     -2.88090      0.400000           0   0.00000       0.00000    
     10653 IM1      171      IM1      H5       HDR5A    0.530000E-01   1.00800           0   0.00000       0.00000    
     10654 IM1      171      IM1      C4       CD2R5B    2.40440       11.6110           0 -0.868000       1.30000    
     10655 IM1      171      IM1      DC4      DRUD     -2.28640      0.400000           0   0.00000       0.00000    
     10656 IM1      171      IM1      H6       HDR5B    0.730000E-01   1.00800           0   0.00000       0.00000    
     10657 IM1      171      IM1      N2       ND2R5B    2.24930       13.6070           0 -0.840000       1.00000    
     10658 IM1      171      IM1      DN2      DRUD     -2.24930      0.400000           0   0.00000       0.00000    
     10659 IM1      171      IM1      H7       DUMH      0.00000       1.00800           0   0.00000       0.00000    
     10660 IM1      171      IM1      LPN21    LPD     -0.474000       0.00000          -1   0.00000       0.00000    
     10661 IM1      172      IM1      C1       CD33G     2.39060       11.6110           0  -1.08100       1.00000    
     10662 IM1      172      IM1      DC1      DRUD     -2.55160      0.400000           0   0.00000       0.00000    
     10663 IM1      172      IM1      H1       HDA3A    0.940000E-01   1.00800           0   0.00000       0.00000    
     10664 IM1      172      IM1      H2       HDA3A    0.940000E-01   1.00800           0   0.00000       0.00000    
     10665 IM1      172      IM1      H3       HDA3A    0.940000E-01   1.00800           0   0.00000       0.00000    
     10666 IM1      172      IM1      N1       ND2R5A    2.67030       13.6070           0  -1.06300       1.30000    
     10667 IM1      172      IM1      DN1      DRUD     -2.53030      0.400000           0   0.00000       0.00000    
     10668 IM1      172      IM1      C2       CD2R5A    2.51190       11.6110           0  -1.37800       1.30000    
     10669 IM1      172      IM1      DC2      DRUD     -2.88090      0.400000           0   0.00000       0.00000    
     10670 IM1      172      IM1      H4       HDR5A    0.150000       1.00800           0   0.00000       0.00000    
     10671 IM1      172      IM1      C3       CD2R5A    3.06890       11.6110           0  -1.37800       1.30000    
     10672 IM1      172      IM1      DC3      DRUD     -2.88090      0.400000           0   0.00000       0.00000    
     10673 IM1      172      IM1      H5       HDR5A    0.530000E-01   1.00800           0   0.00000       0.00000    
     10674 IM1      172      IM1      C4       CD2R5B    2.40440       11.6110           0 -0.868000       1.30000    
     10675 IM1      172      IM1      DC4      DRUD     -2.28640      0.400000           0   0.00000       0.00000    
     10676 IM1      172      IM1      H6       HDR5B    0.730000E-01   1.00800           0   0.00000       0.00000    
     10677 IM1      172      IM1      N2       ND2R5B    2.24930       13.6070           0 -0.840000       1.00000    
     10678 IM1      172      IM1      DN2      DRUD     -2.24930      0.400000           0   0.00000       0.00000    
     10679 IM1      172      IM1      H7       DUMH      0.00000       1.00800           0   0.00000       0.00000    
     10680 IM1      172      IM1      LPN21    LPD     -0.474000       0.00000          -1   0.00000       0.00000    
     10681 IM1      173      IM1      C1       CD33G     2.39060       11.6110           0  -1.08100       1.00000    
     10682 IM1      173      IM1      DC1      DRUD     -2.55160      0.400000           0   0.00000       0.00000    
     10683 IM1      173      IM1      H1       HDA3A    0.940000E-01   1.00800           0   0.00000       0.00000    
     10684 IM1      173      IM1      H2       HDA3A    0.940000E-01   1.00800           0   0.00000       0.00000    
     10685 IM1      173      IM1      H3       HDA3A    0.940000E-01   1.00800           0   0.00000       0.00000    
     10686 IM1      173      IM1      N1       ND2R5A    2.67030       13.6070           0  -1.06300       1.30000    
     10687 IM1      173      IM1      DN1      DRUD     -2.53030      0.400000           0   0.00000       0.00000    
     10688 IM1      173      IM1      C2       CD2R5A    2.51190       11.6110           0  -1.37800       1.30000    
     10689 IM1      173      IM1      DC2      DRUD     -2.88090      0.400000           0   0.00000       0.00000    
     10690 IM1      173      IM1      H4       HDR5A    0.150000       1.00800           0   0.00000       0.00000    
     10691 IM1      173      IM1      C3       CD2R5A    3.06890       11.6110           0  -1.37800       1.30000    
     10692 IM1      173      IM1      DC3      DRUD     -2.88090      0.400000           0   0.00000       0.00000    
     10693 IM1      173      IM1      H5       HDR5A    0.530000E-01   1.00800           0   0.00000       0.00000    
     10694 IM1      173      IM1      C4       CD2R5B    2.40440       11.6110           0 -0.868000       1.30000    
     10695 IM1      173      IM1      DC4      DRUD     -2.28640      0.400000           0   0.00000       0.00000    
     10696 IM1      173      IM1      H6       HDR5B    0.730000E-01   1.00800           0   0.00000       0.00000    
     10697 IM1      173      IM1      N2       ND2R5B    2.24930       13.6070           0 -0.840000       1.00000    
     10698 IM1      173      IM1      DN2      DRUD     -2.24930      0.400000           0   0.00000       0.00000    
     10699 IM1      173      IM1      H7       DUMH      0.00000       1.00800           0   0.00000       0.00000    
     10700 IM1      173      IM1      LPN21    LPD     -0.474000       0.00000          -1   0.00000       0.00000    
     10701 IM1      174      IM1      C1       CD33G     2.39060       11.6110           0  -1.08100       1.00000    
     10702 IM1      174      IM1      DC1      DRUD     -2.55160      0.400000           0   0.00000       0.00000    
     10703 IM1      174      IM1      H1       HDA3A    0.940000E-01   1.00800           0   0.00000       0.00000    
     10704 IM1      174      IM1      H2       HDA3A    0.940000E-01   1.00800           0   0.00000       0.00000    
     10705 IM1      174      IM1      H3       HDA3A    0.940000E-01   1.00800           0   0.00000       0.00000    
     10706 IM1      174      IM1      N1       ND2R5A    2.67030       13.6070           0  -1.06300       1.30000    
     10707 IM1      174      IM1      DN1      DRUD     -2.53030      0.400000           0   0.00000       0.00000    
     10708 IM1      174      IM1      C2       CD2R5A    2.51190       11.6110           0  -1.37800       1.30000    
     10709 IM1      174      IM1      DC2      DRUD     -2.88090      0.400000           0   0.00000       0.00000    
     10710 IM1      174      IM1      H4       HDR5A    0.150000       1.00800           0   0.00000       0.00000    
     10711 IM1      174      IM1      C3       CD2R5A    3.06890       11.6110           0  -1.37800       1.30000    
     10712 IM1      174      IM1      DC3      DRUD     -2.88090      0.400000           0   0.00000       0.00000    
     10713 IM1      174      IM1      H5       HDR5A    0.530000E-01   1.00800           0   0.00000       0.00000    
     10714 IM1      174      IM1      C4       CD2R5B    2.40440       11.6110           0 -0.868000       1.30000    
     10715 IM1      174      IM1      DC4      DRUD     -2.28640      0.400000           0   0.00000       0.00000    
     10716 IM1      174      IM1      H6       HDR5B    0.730000E-01   1.00800           0   0.00000       0.00000    
     10717 IM1      174      IM1      N2       ND2R5B    2.24930       13.6070           0 -0.840000       1.00000    
     10718 IM1      174      IM1      DN2      DRUD     -2.24930      0.400000           0   0.00000       0.00000    
     10719 IM1      174      IM1      H7       DUMH      0.00000       1.00800           0   0.00000       0.00000    
     10720 IM1      174      IM1      LPN21    LPD     -0.474000       0.00000          -1   0.00000       0.00000    
     10721 IM1      175      IM1      C1       CD33G     2.39060       11.6110           0  -1.08100       1.00000    
     10722 IM1      175      IM1      DC1      DRUD     -2.55160      0.400000           0   0.00000       0.00000    
     10723 IM1      175      IM1      H1       HDA3A    0.940000E-01   1.00800           0   0.00000       0.00000    
     10724 IM1      175      IM1      H2       HDA3A    0.940000E-01   1.00800           0   0.00000       0.00000    
     10725 IM1      175      IM1      H3       HDA3A    0.940000E-01   1.00800           0   0.00000       0.00000    
     10726 IM1      175      IM1      N1       ND2R5A    2.67030       13.6070           0  -1.06300       1.30000    
     10727 IM1      175      IM1      DN1      DRUD     -2.53030      0.400000           0   0.00000       0.00000    
     10728 IM1      175      IM1      C2       CD2R5A    2.51190       11.6110           0  -1.37800       1.30000    
     10729 IM1      175      IM1      DC2      DRUD     -2.88090      0.400000           0   0.00000       0.00000    
     10730 IM1      175      IM1      H4       HDR5A    0.150000       1.00800           0   0.00000       0.00000    
     10731 IM1      175      IM1      C3       CD2R5A    3.06890       11.6110           0  -1.37800       1.30000    
     10732 IM1      175      IM1      DC3      DRUD     -2.88090      0.400000           0   0.00000       0.00000    
     10733 IM1      175      IM1      H5       HDR5A    0.530000E-01   1.00800           0   0.00000       0.00000    
     10734 IM1      175      IM1      C4       CD2R5B    2.40440       11.6110           0 -0.868000       1.30000    
     10735 IM1      175      IM1      DC4      DRUD     -2.28640      0.400000           0   0.00000       0.00000    
     10736 IM1      175      IM1      H6       HDR5B    0.730000E-01   1.00800           0   0.00000       0.00000    
     10737 IM1      175      IM1      N2       ND2R5B    2.24930       13.6070           0 -0.840000       1.00000    
     10738 IM1      175      IM1      DN2      DRUD     -2.24930      0.400000           0   0.00000       0.00000    
     10739 IM1      175      IM1      H7       DUMH      0.00000       1.00800           0   0.00000       0.00000    
     10740 IM1      175      IM1      LPN21    LPD     -0.474000       0.00000          -1   0.00000       0.00000    
     10741 IM1      176      IM1      C1       CD33G     2.39060       11.6110           0  -1.08100       1.00000    
     10742 IM1      176      IM1      DC1      DRUD     -2.55160      0.400000           0   0.00000       0.00000    
     10743 IM1      176      IM1      H1       HDA3A    0.940000E-01   1.00800           0   0.00000       0.00000    
     10744 IM1      176      IM1      H2       HDA3A    0.940000E-01   1.00800           0   0.00000       0.00000    
     10745 IM1      176      IM1      H3       HDA3A    0.940000E-01   1.00800           0   0.00000       0.00000    
     10746 IM1      176      IM1      N1       ND2R5A    2.67030       13.6070           0  -1.06300       1.30000    
     10747 IM1      176      IM1      DN1      DRUD     -2.53030      0.400000           0   0.00000       0.00000    
     10748 IM1      176      IM1      C2       CD2R5A    2.51190       11.6110           0  -1.37800       1.30000    
     10749 IM1      176      IM1      DC2      DRUD     -2.88090      0.400000           0   0.00000       0.00000    
     10750 IM1      176      IM1      H4       HDR5A    0.150000       1.00800           0   0.00000       0.00000    
     10751 IM1      176      IM1      C3       CD2R5A    3.06890       11.6110           0  -1.37800       1.30000    
     10752 IM1      176      IM1      DC3      DRUD     -2.88090      0.400000           0   0.00000       0.00000    
     10753 IM1      176      IM1      H5       HDR5A    0.530000E-01   1.00800           0   0.00000       0.00000    
     10754 IM1      176      IM1      C4       CD2R5B    2.40440       11.6110           0 -0.868000       1.30000    
     10755 IM1      176      IM1      DC4      DRUD     -2.28640      0.400000           0   0.00000       0.00000    
     10756 IM1      176      IM1      H6       HDR5B    0.730000E-01   1.00800           0   0.00000       0.00000    
     10757 IM1      176      IM1      N2       ND2R5B    2.24930       13.6070           0 -0.840000       1.00000    
     10758 IM1      176      IM1      DN2      DRUD     -2.24930      0.400000           0   0.00000       0.00000    
     10759 IM1      176      IM1      H7       DUMH      0.00000       1.00800           0   0.00000       0.00000    
     10760 IM1      176      IM1      LPN21    LPD     -0.474000       0.00000          -1   0.00000       0.00000    
     10761 IM1      177      IM1      C1       CD33G     2.39060       11.6110           0  -1.08100       1.00000    
     10762 IM1      177      IM1      DC1      DRUD     -2.55160      0.400000           0   0.00000       0.00000    
     10763 IM1      177      IM1      H1       HDA3A    0.940000E-01   1.00800           0   0.00000       0.00000    
     10764 IM1      177      IM1      H2       HDA3A    0.940000E-01   1.00800           0   0.00000       0.00000    
     10765 IM1      177      IM1      H3       HDA3A    0.940000E-01   1.00800           0   0.00000       0.00000    
     10766 IM1      177      IM1      N1       ND2R5A    2.67030       13.6070           0  -1.06300       1.30000    
     10767 IM1      177      IM1      DN1      DRUD     -2.53030      0.400000           0   0.00000       0.00000    
     10768 IM1      177      IM1      C2       CD2R5A    2.51190       11.6110           0  -1.37800       1.30000    
     10769 IM1      177      IM1      DC2      DRUD     -2.88090      0.400000           0   0.00000       0.00000    
     10770 IM1      177      IM1      H4       HDR5A    0.150000       1.00800           0   0.00000       0.00000    
     10771 IM1      177      IM1      C3       CD2R5A    3.06890       11.6110           0  -1.37800       1.30000    
     10772 IM1      177      IM1      DC3      DRUD     -2.88090      0.400000           0   0.00000       0.00000    
     10773 IM1      177      IM1      H5       HDR5A    0.530000E-01   1.00800           0   0.00000       0.00000    
     10774 IM1      177      IM1      C4       CD2R5B    2.40440       11.6110           0 -0.868000       1.30000    
     10775 IM1      177      IM1      DC4      DRUD     -2.28640      0.400000           0   0.00000       0.00000    
     10776 IM1      177      IM1      H6       HDR5B    0.730000E-01   1.00800           0   0.00000       0.00000    
     10777 IM1      177      IM1      N2       ND2R5B    2.24930       13.6070           0 -0.840000       1.00000    
     10778 IM1      177      IM1      DN2      DRUD     -2.24930      0.400000           0   0.00000       0.00000    
     10779 IM1      177      IM1      H7       DUMH      0.00000       1.00800           0   0.00000       0.00000    
     10780 IM1      177      IM1      LPN21    LPD     -0.474000       0.00000          -1   0.00000       0.00000    
     10781 IM1      178      IM1      C1       CD33G     2.39060       11.6110           0  -1.08100       1.00000    
     10782 IM1      178      IM1      DC1      DRUD     -2.55160      0.400000           0   0.00000       0.00000    
     10783 IM1      178      IM1      H1       HDA3A    0.940000E-01   1.00800           0   0.00000       0.00000    
     10784 IM1      178      IM1      H2       HDA3A    0.940000E-01   1.00800           0   0.00000       0.00000    
     10785 IM1      178      IM1      H3       HDA3A    0.940000E-01   1.00800           0   0.00000       0.00000    
     10786 IM1      178      IM1      N1       ND2R5A    2.67030       13.6070           0  -1.06300       1.30000    
     10787 IM1      178      IM1      DN1      DRUD     -2.53030      0.400000           0   0.00000       0.00000    
     10788 IM1      178      IM1      C2       CD2R5A    2.51190       11.6110           0  -1.37800       1.30000    
     10789 IM1      178      IM1      DC2      DRUD     -2.88090      0.400000           0   0.00000       0.00000    
     10790 IM1      178      IM1      H4       HDR5A    0.150000       1.00800           0   0.00000       0.00000    
     10791 IM1      178      IM1      C3       CD2R5A    3.06890       11.6110           0  -1.37800       1.30000    
     10792 IM1      178      IM1      DC3      DRUD     -2.88090      0.400000           0   0.00000       0.00000    
     10793 IM1      178      IM1      H5       HDR5A    0.530000E-01   1.00800           0   0.00000       0.00000    
     10794 IM1      178      IM1      C4       CD2R5B    2.40440       11.6110           0 -0.868000       1.30000    
     10795 IM1      178      IM1      DC4      DRUD     -2.28640      0.400000           0   0.00000       0.00000    
     10796 IM1      178      IM1      H6       HDR5B    0.730000E-01   1.00800           0   0.00000       0.00000    
     10797 IM1      178      IM1      N2       ND2R5B    2.24930       13.6070           0 -0.840000       1.00000    
     10798 IM1      178      IM1      DN2      DRUD     -2.24930      0.400000           0   0.00000       0.00000    
     10799 IM1      178      IM1      H7       DUMH      0.00000       1.00800           0   0.00000       0.00000    
     10800 IM1      178      IM1      LPN21    LPD     -0.474000       0.00000          -1   0.00000       0.00000    
     10801 IM1      179      IM1      C1       CD33G     2.39060       11.6110           0  -1.08100       1.00000    
     10802 IM1      179      IM1      DC1      DRUD     -2.55160      0.400000           0   0.00000       0.00000    
     10803 IM1      179      IM1      H1       HDA3A    0.940000E-01   1.00800           0   0.00000       0.00000    
     10804 IM1      179      IM1      H2       HDA3A    0.940000E-01   1.00800           0   0.00000       0.00000    
     10805 IM1      179      IM1      H3       HDA3A    0.940000E-01   1.00800           0   0.00000       0.00000    
     10806 IM1      179      IM1      N1       ND2R5A    2.67030       13.6070           0  -1.06300       1.30000    
     10807 IM1      179      IM1      DN1      DRUD     -2.53030      0.400000           0   0.00000       0.00000    
     10808 IM1      179      IM1      C2       CD2R5A    2.51190       11.6110           0  -1.37800       1.30000    
     10809 IM1      179      IM1      DC2      DRUD     -2.88090      0.400000           0   0.00000       0.00000    
     10810 IM1      179      IM1      H4       HDR5A    0.150000       1.00800           0   0.00000       0.00000    
     10811 IM1      179      IM1      C3       CD2R5A    3.06890       11.6110           0  -1.37800       1.30000    
     10812 IM1      179      IM1      DC3      DRUD     -2.88090      0.400000           0   0.00000       0.00000    
     10813 IM1      179      IM1      H5       HDR5A    0.530000E-01   1.00800           0   0.00000       0.00000    
     10814 IM1      179      IM1      C4       CD2R5B    2.40440       11.6110           0 -0.868000       1.30000    
     10815 IM1      179      IM1      DC4      DRUD     -2.28640      0.400000           0   0.00000       0.00000    
     10816 IM1      179      IM1      H6       HDR5B    0.730000E-01   1.00800           0   0.00000       0.00000    
     10817 IM1      179      IM1      N2       ND2R5B    2.24930       13.6070           0 -0.840000       1.00000    
     10818 IM1      179      IM1      DN2      DRUD     -2.24930      0.400000           0   0.00000       0.00000    
     10819 IM1      179      IM1      H7       DUMH      0.00000       1.00800           0   0.00000       0.00000    
     10820 IM1      179      IM1      LPN21    LPD     -0.474000       0.00000          -1   0.00000       0.00000    
     10821 IM1      180      IM1      C1       CD33G     2.39060       11.6110           0  -1.08100       1.00000    
     10822 IM1      180      IM1      DC1      DRUD     -2.55160      0.400000           0   0.00000       0.00000    
     10823 IM1      180      IM1      H1       HDA3A    0.940000E-01   1.00800           0   0.00000       0.00000    
     10824 IM1      180      IM1      H2       HDA3A    0.940000E-01   1.00800           0   0.00000       0.00000    
     10825 IM1      180      IM1      H3       HDA3A    0.940000E-01   1.00800           0   0.00000       0.00000    
     10826 IM1      180      IM1      N1       ND2R5A    2.67030       13.6070           0  -1.06300       1.30000    
     10827 IM1      180      IM1      DN1      DRUD     -2.53030      0.400000           0   0.00000       0.00000    
     10828 IM1      180      IM1      C2       CD2R5A    2.51190       11.6110           0  -1.37800       1.30000    
     10829 IM1      180      IM1      DC2      DRUD     -2.88090      0.400000           0   0.00000       0.00000    
     10830 IM1      180      IM1      H4       HDR5A    0.150000       1.00800           0   0.00000       0.00000    
     10831 IM1      180      IM1      C3       CD2R5A    3.06890       11.6110           0  -1.37800       1.30000    
     10832 IM1      180      IM1      DC3      DRUD     -2.88090      0.400000           0   0.00000       0.00000    
     10833 IM1      180      IM1      H5       HDR5A    0.530000E-01   1.00800           0   0.00000       0.00000    
     10834 IM1      180      IM1      C4       CD2R5B    2.40440       11.6110           0 -0.868000       1.30000    
     10835 IM1      180      IM1      DC4      DRUD     -2.28640      0.400000           0   0.00000       0.00000    
     10836 IM1      180      IM1      H6       HDR5B    0.730000E-01   1.00800           0   0.00000       0.00000    
     10837 IM1      180      IM1      N2       ND2R5B    2.24930       13.6070           0 -0.840000       1.00000    
     10838 IM1      180      IM1      DN2      DRUD     -2.24930      0.400000           0   0.00000       0.00000    
     10839 IM1      180      IM1      H7       DUMH      0.00000       1.00800           0   0.00000       0.00000    
     10840 IM1      180      IM1      LPN21    LPD     -0.474000       0.00000          -1   0.00000       0.00000    
     10841 IM1      181      IM1      C1       CD33G     2.39060       11.6110           0  -1.08100       1.00000    
     10842 IM1      181      IM1      DC1      DRUD     -2.55160      0.400000           0   0.00000       0.00000    
     10843 IM1      181      IM1      H1       HDA3A    0.940000E-01   1.00800           0   0.00000       0.00000    
     10844 IM1      181      IM1      H2       HDA3A    0.940000E-01   1.00800           0   0.00000       0.00000    
     10845 IM1      181      IM1      H3       HDA3A    0.940000E-01   1.00800           0   0.00000       0.00000    
     10846 IM1      181      IM1      N1       ND2R5A    2.67030       13.6070           0  -1.06300       1.30000    
     10847 IM1      181      IM1      DN1      DRUD     -2.53030      0.400000           0   0.00000       0.00000    
     10848 IM1      181      IM1      C2       CD2R5A    2.51190       11.6110           0  -1.37800       1.30000    
     10849 IM1      181      IM1      DC2      DRUD     -2.88090      0.400000           0   0.00000       0.00000    
     10850 IM1      181      IM1      H4       HDR5A    0.150000       1.00800           0   0.00000       0.00000    
     10851 IM1      181      IM1      C3       CD2R5A    3.06890       11.6110           0  -1.37800       1.30000    
     10852 IM1      181      IM1      DC3      DRUD     -2.88090      0.400000           0   0.00000       0.00000    
     10853 IM1      181      IM1      H5       HDR5A    0.530000E-01   1.00800           0   0.00000       0.00000    
     10854 IM1      181      IM1      C4       CD2R5B    2.40440       11.6110           0 -0.868000       1.30000    
     10855 IM1      181      IM1      DC4      DRUD     -2.28640      0.400000           0   0.00000       0.00000    
     10856 IM1      181      IM1      H6       HDR5B    0.730000E-01   1.00800           0   0.00000       0.00000    
     10857 IM1      181      IM1      N2       ND2R5B    2.24930       13.6070           0 -0.840000       1.00000    
     10858 IM1      181      IM1      DN2      DRUD     -2.24930      0.400000           0   0.00000       0.00000    
     10859 IM1      181      IM1      H7       DUMH      0.00000       1.00800           0   0.00000       0.00000    
     10860 IM1      181      IM1      LPN21    LPD     -0.474000       0.00000          -1   0.00000       0.00000    
     10861 IM1      182      IM1      C1       CD33G     2.39060       11.6110           0  -1.08100       1.00000    
     10862 IM1      182      IM1      DC1      DRUD     -2.55160      0.400000           0   0.00000       0.00000    
     10863 IM1      182      IM1      H1       HDA3A    0.940000E-01   1.00800           0   0.00000       0.00000    
     10864 IM1      182      IM1      H2       HDA3A    0.940000E-01   1.00800           0   0.00000       0.00000    
     10865 IM1      182      IM1      H3       HDA3A    0.940000E-01   1.00800           0   0.00000       0.00000    
     10866 IM1      182      IM1      N1       ND2R5A    2.67030       13.6070           0  -1.06300       1.30000    
     10867 IM1      182      IM1      DN1      DRUD     -2.53030      0.400000           0   0.00000       0.00000    
     10868 IM1      182      IM1      C2       CD2R5A    2.51190       11.6110           0  -1.37800       1.30000    
     10869 IM1      182      IM1      DC2      DRUD     -2.88090      0.400000           0   0.00000       0.00000    
     10870 IM1      182      IM1      H4       HDR5A    0.150000       1.00800           0   0.00000       0.00000    
     10871 IM1      182      IM1      C3       CD2R5A    3.06890       11.6110           0  -1.37800       1.30000    
     10872 IM1      182      IM1      DC3      DRUD     -2.88090      0.400000           0   0.00000       0.00000    
     10873 IM1      182      IM1      H5       HDR5A    0.530000E-01   1.00800           0   0.00000       0.00000    
     10874 IM1      182      IM1      C4       CD2R5B    2.40440       11.6110           0 -0.868000       1.30000    
     10875 IM1      182      IM1      DC4      DRUD     -2.28640      0.400000           0   0.00000       0.00000    
     10876 IM1      182      IM1      H6       HDR5B    0.730000E-01   1.00800           0   0.00000       0.00000    
     10877 IM1      182      IM1      N2       ND2R5B    2.24930       13.6070           0 -0.840000       1.00000    
     10878 IM1      182      IM1      DN2      DRUD     -2.24930      0.400000           0   0.00000       0.00000    
     10879 IM1      182      IM1      H7       DUMH      0.00000       1.00800           0   0.00000       0.00000    
     10880 IM1      182      IM1      LPN21    LPD     -0.474000       0.00000          -1   0.00000       0.00000    
     10881 IM1      183      IM1      C1       CD33G     2.39060       11.6110           0  -1.08100       1.00000    
     10882 IM1      183      IM1      DC1      DRUD     -2.55160      0.400000           0   0.00000       0.00000    
     10883 IM1      183      IM1      H1       HDA3A    0.940000E-01   1.00800           0   0.00000       0.00000    
     10884 IM1      183      IM1      H2       HDA3A    0.940000E-01   1.00800           0   0.00000       0.00000    
     10885 IM1      183      IM1      H3       HDA3A    0.940000E-01   1.00800           0   0.00000       0.00000    
     10886 IM1      183      IM1      N1       ND2R5A    2.67030       13.6070           0  -1.06300       1.30000    
     10887 IM1      183      IM1      DN1      DRUD     -2.53030      0.400000           0   0.00000       0.00000    
     10888 IM1      183      IM1      C2       CD2R5A    2.51190       11.6110           0  -1.37800       1.30000    
     10889 IM1      183      IM1      DC2      DRUD     -2.88090      0.400000           0   0.00000       0.00000    
     10890 IM1      183      IM1      H4       HDR5A    0.150000       1.00800           0   0.00000       0.00000    
     10891 IM1      183      IM1      C3       CD2R5A    3.06890       11.6110           0  -1.37800       1.30000    
     10892 IM1      183      IM1      DC3      DRUD     -2.88090      0.400000           0   0.00000       0.00000    
     10893 IM1      183      IM1      H5       HDR5A    0.530000E-01   1.00800           0   0.00000       0.00000    
     10894 IM1      183      IM1      C4       CD2R5B    2.40440       11.6110           0 -0.868000       1.30000    
     10895 IM1      183      IM1      DC4      DRUD     -2.28640      0.400000           0   0.00000       0.00000    
     10896 IM1      183      IM1      H6       HDR5B    0.730000E-01   1.00800           0   0.00000       0.00000    
     10897 IM1      183      IM1      N2       ND2R5B    2.24930       13.6070           0 -0.840000       1.00000    
     10898 IM1      183      IM1      DN2      DRUD     -2.24930      0.400000           0   0.00000       0.00000    
     10899 IM1      183      IM1      H7       DUMH      0.00000       1.00800           0   0.00000       0.00000    
     10900 IM1      183      IM1      LPN21    LPD     -0.474000       0.00000          -1   0.00000       0.00000    
     10901 IM1      184      IM1      C1       CD33G     2.39060       11.6110           0  -1.08100       1.00000    
     10902 IM1      184      IM1      DC1      DRUD     -2.55160      0.400000           0   0.00000       0.00000    
     10903 IM1      184      IM1      H1       HDA3A    0.940000E-01   1.00800           0   0.00000       0.00000    
     10904 IM1      184      IM1      H2       HDA3A    0.940000E-01   1.00800           0   0.00000       0.00000    
     10905 IM1      184      IM1      H3       HDA3A    0.940000E-01   1.00800           0   0.00000       0.00000    
     10906 IM1      184      IM1      N1       ND2R5A    2.67030       13.6070           0  -1.06300       1.30000    
     10907 IM1      184      IM1      DN1      DRUD     -2.53030      0.400000           0   0.00000       0.00000    
     10908 IM1      184      IM1      C2       CD2R5A    2.51190       11.6110           0  -1.37800       1.30000    
     10909 IM1      184      IM1      DC2      DRUD     -2.88090      0.400000           0   0.00000       0.00000    
     10910 IM1      184      IM1      H4       HDR5A    0.150000       1.00800           0   0.00000       0.00000    
     10911 IM1      184      IM1      C3       CD2R5A    3.06890       11.6110           0  -1.37800       1.30000    
     10912 IM1      184      IM1      DC3      DRUD     -2.88090      0.400000           0   0.00000       0.00000    
     10913 IM1      184      IM1      H5       HDR5A    0.530000E-01   1.00800           0   0.00000       0.00000    
     10914 IM1      184      IM1      C4       CD2R5B    2.40440       11.6110           0 -0.868000       1.30000    
     10915 IM1      184      IM1      DC4      DRUD     -2.28640      0.400000           0   0.00000       0.00000    
     10916 IM1      184      IM1      H6       HDR5B    0.730000E-01   1.00800           0   0.00000       0.00000    
     10917 IM1      184      IM1      N2       ND2R5B    2.24930       13.6070           0 -0.840000       1.00000    
     10918 IM1      184      IM1      DN2      DRUD     -2.24930      0.400000           0   0.00000       0.00000    
     10919 IM1      184      IM1      H7       DUMH      0.00000       1.00800           0   0.00000       0.00000    
     10920 IM1      184      IM1      LPN21    LPD     -0.474000       0.00000          -1   0.00000       0.00000    
     10921 IM1      185      IM1      C1       CD33G     2.39060       11.6110           0  -1.08100       1.00000    
     10922 IM1      185      IM1      DC1      DRUD     -2.55160      0.400000           0   0.00000       0.00000    
     10923 IM1      185      IM1      H1       HDA3A    0.940000E-01   1.00800           0   0.00000       0.00000    
     10924 IM1      185      IM1      H2       HDA3A    0.940000E-01   1.00800           0   0.00000       0.00000    
     10925 IM1      185      IM1      H3       HDA3A    0.940000E-01   1.00800           0   0.00000       0.00000    
     10926 IM1      185      IM1      N1       ND2R5A    2.67030       13.6070           0  -1.06300       1.30000    
     10927 IM1      185      IM1      DN1      DRUD     -2.53030      0.400000           0   0.00000       0.00000    
     10928 IM1      185      IM1      C2       CD2R5A    2.51190       11.6110           0  -1.37800       1.30000    
     10929 IM1      185      IM1      DC2      DRUD     -2.88090      0.400000           0   0.00000       0.00000    
     10930 IM1      185      IM1      H4       HDR5A    0.150000       1.00800           0   0.00000       0.00000    
     10931 IM1      185      IM1      C3       CD2R5A    3.06890       11.6110           0  -1.37800       1.30000    
     10932 IM1      185      IM1      DC3      DRUD     -2.88090      0.400000           0   0.00000       0.00000    
     10933 IM1      185      IM1      H5       HDR5A    0.530000E-01   1.00800           0   0.00000       0.00000    
     10934 IM1      185      IM1      C4       CD2R5B    2.40440       11.6110           0 -0.868000       1.30000    
     10935 IM1      185      IM1      DC4      DRUD     -2.28640      0.400000           0   0.00000       0.00000    
     10936 IM1      185      IM1      H6       HDR5B    0.730000E-01   1.00800           0   0.00000       0.00000    
     10937 IM1      185      IM1      N2       ND2R5B    2.24930       13.6070           0 -0.840000       1.00000    
     10938 IM1      185      IM1      DN2      DRUD     -2.24930      0.400000           0   0.00000       0.00000    
     10939 IM1      185      IM1      H7       DUMH      0.00000       1.00800           0   0.00000       0.00000    
     10940 IM1      185      IM1      LPN21    LPD     -0.474000       0.00000          -1   0.00000       0.00000    
     10941 IM1      186      IM1      C1       CD33G     2.39060       11.6110           0  -1.08100       1.00000    
     10942 IM1      186      IM1      DC1      DRUD     -2.55160      0.400000           0   0.00000       0.00000    
     10943 IM1      186      IM1      H1       HDA3A    0.940000E-01   1.00800           0   0.00000       0.00000    
     10944 IM1      186      IM1      H2       HDA3A    0.940000E-01   1.00800           0   0.00000       0.00000    
     10945 IM1      186      IM1      H3       HDA3A    0.940000E-01   1.00800           0   0.00000       0.00000    
     10946 IM1      186      IM1      N1       ND2R5A    2.67030       13.6070           0  -1.06300       1.30000    
     10947 IM1      186      IM1      DN1      DRUD     -2.53030      0.400000           0   0.00000       0.00000    
     10948 IM1      186      IM1      C2       CD2R5A    2.51190       11.6110           0  -1.37800       1.30000    
     10949 IM1      186      IM1      DC2      DRUD     -2.88090      0.400000           0   0.00000       0.00000    
     10950 IM1      186      IM1      H4       HDR5A    0.150000       1.00800           0   0.00000       0.00000    
     10951 IM1      186      IM1      C3       CD2R5A    3.06890       11.6110           0  -1.37800       1.30000    
     10952 IM1      186      IM1      DC3      DRUD     -2.88090      0.400000           0   0.00000       0.00000    
     10953 IM1      186      IM1      H5       HDR5A    0.530000E-01   1.00800           0   0.00000       0.00000    
     10954 IM1      186      IM1      C4       CD2R5B    2.40440       11.6110           0 -0.868000       1.30000    
     10955 IM1      186      IM1      DC4      DRUD     -2.28640      0.400000           0   0.00000       0.00000    
     10956 IM1      186      IM1      H6       HDR5B    0.730000E-01   1.00800           0   0.00000       0.00000    
     10957 IM1      186      IM1      N2       ND2R5B    2.24930       13.6070           0 -0.840000       1.00000    
     10958 IM1      186      IM1      DN2      DRUD     -2.24930      0.400000           0   0.00000       0.00000    
     10959 IM1      186      IM1      H7       DUMH      0.00000       1.00800           0   0.00000       0.00000    
     10960 IM1      186      IM1      LPN21    LPD     -0.474000       0.00000          -1   0.00000       0.00000    
     10961 IM1      187      IM1      C1       CD33G     2.39060       11.6110           0  -1.08100       1.00000    
     10962 IM1      187      IM1      DC1      DRUD     -2.55160      0.400000           0   0.00000       0.00000    
     10963 IM1      187      IM1      H1       HDA3A    0.940000E-01   1.00800           0   0.00000       0.00000    
     10964 IM1      187      IM1      H2       HDA3A    0.940000E-01   1.00800           0   0.00000       0.00000    
     10965 IM1      187      IM1      H3       HDA3A    0.940000E-01   1.00800           0   0.00000       0.00000    
     10966 IM1      187      IM1      N1       ND2R5A    2.67030       13.6070           0  -1.06300       1.30000    
     10967 IM1      187      IM1      DN1      DRUD     -2.53030      0.400000           0   0.00000       0.00000    
     10968 IM1      187      IM1      C2       CD2R5A    2.51190       11.6110           0  -1.37800       1.30000    
     10969 IM1      187      IM1      DC2      DRUD     -2.88090      0.400000           0   0.00000       0.00000    
     10970 IM1      187      IM1      H4       HDR5A    0.150000       1.00800           0   0.00000       0.00000    
     10971 IM1      187      IM1      C3       CD2R5A    3.06890       11.6110           0  -1.37800       1.30000    
     10972 IM1      187      IM1      DC3      DRUD     -2.88090      0.400000           0   0.00000       0.00000    
     10973 IM1      187      IM1      H5       HDR5A    0.530000E-01   1.00800           0   0.00000       0.00000    
     10974 IM1      187      IM1      C4       CD2R5B    2.40440       11.6110           0 -0.868000       1.30000    
     10975 IM1      187      IM1      DC4      DRUD     -2.28640      0.400000           0   0.00000       0.00000    
     10976 IM1      187      IM1      H6       HDR5B    0.730000E-01   1.00800           0   0.00000       0.00000    
     10977 IM1      187      IM1      N2       ND2R5B    2.24930       13.6070           0 -0.840000       1.00000    
     10978 IM1      187      IM1      DN2      DRUD     -2.24930      0.400000           0   0.00000       0.00000    
     10979 IM1      187      IM1      H7       DUMH      0.00000       1.00800           0   0.00000       0.00000    
     10980 IM1      187      IM1      LPN21    LPD     -0.474000       0.00000          -1   0.00000       0.00000    
     10981 IM1      188      IM1      C1       CD33G     2.39060       11.6110           0  -1.08100       1.00000    
     10982 IM1      188      IM1      DC1      DRUD     -2.55160      0.400000           0   0.00000       0.00000    
     10983 IM1      188      IM1      H1       HDA3A    0.940000E-01   1.00800           0   0.00000       0.00000    
     10984 IM1      188      IM1      H2       HDA3A    0.940000E-01   1.00800           0   0.00000       0.00000    
     10985 IM1      188      IM1      H3       HDA3A    0.940000E-01   1.00800           0   0.00000       0.00000    
     10986 IM1      188      IM1      N1       ND2R5A    2.67030       13.6070           0  -1.06300       1.30000    
     10987 IM1      188      IM1      DN1      DRUD     -2.53030      0.400000           0   0.00000       0.00000    
     10988 IM1      188      IM1      C2       CD2R5A    2.51190       11.6110           0  -1.37800       1.30000    
     10989 IM1      188      IM1      DC2      DRUD     -2.88090      0.400000           0   0.00000       0.00000    
     10990 IM1      188      IM1      H4       HDR5A    0.150000       1.00800           0   0.00000       0.00000    
     10991 IM1      188      IM1      C3       CD2R5A    3.06890       11.6110           0  -1.37800       1.30000    
     10992 IM1      188      IM1      DC3      DRUD     -2.88090      0.400000           0   0.00000       0.00000    
     10993 IM1      188      IM1      H5       HDR5A    0.530000E-01   1.00800           0   0.00000       0.00000    
     10994 IM1      188      IM1      C4       CD2R5B    2.40440       11.6110           0 -0.868000       1.30000    
     10995 IM1      188      IM1      DC4      DRUD     -2.28640      0.400000           0   0.00000       0.00000    
     10996 IM1      188      IM1      H6       HDR5B    0.730000E-01   1.00800           0   0.00000       0.00000    
     10997 IM1      188      IM1      N2       ND2R5B    2.24930       13.6070           0 -0.840000       1.00000    
     10998 IM1      188      IM1      DN2      DRUD     -2.24930      0.400000           0   0.00000       0.00000    
     10999 IM1      188      IM1      H7       DUMH      0.00000       1.00800           0   0.00000       0.00000    
     11000 IM1      188      IM1      LPN21    LPD     -0.474000       0.00000          -1   0.00000       0.00000    
     11001 IM1      189      IM1      C1       CD33G     2.39060       11.6110           0  -1.08100       1.00000    
     11002 IM1      189      IM1      DC1      DRUD     -2.55160      0.400000           0   0.00000       0.00000    
     11003 IM1      189      IM1      H1       HDA3A    0.940000E-01   1.00800           0   0.00000       0.00000    
     11004 IM1      189      IM1      H2       HDA3A    0.940000E-01   1.00800           0   0.00000       0.00000    
     11005 IM1      189      IM1      H3       HDA3A    0.940000E-01   1.00800           0   0.00000       0.00000    
     11006 IM1      189      IM1      N1       ND2R5A    2.67030       13.6070           0  -1.06300       1.30000    
     11007 IM1      189      IM1      DN1      DRUD     -2.53030      0.400000           0   0.00000       0.00000    
     11008 IM1      189      IM1      C2       CD2R5A    2.51190       11.6110           0  -1.37800       1.30000    
     11009 IM1      189      IM1      DC2      DRUD     -2.88090      0.400000           0   0.00000       0.00000    
     11010 IM1      189      IM1      H4       HDR5A    0.150000       1.00800           0   0.00000       0.00000    
     11011 IM1      189      IM1      C3       CD2R5A    3.06890       11.6110           0  -1.37800       1.30000    
     11012 IM1      189      IM1      DC3      DRUD     -2.88090      0.400000           0   0.00000       0.00000    
     11013 IM1      189      IM1      H5       HDR5A    0.530000E-01   1.00800           0   0.00000       0.00000    
     11014 IM1      189      IM1      C4       CD2R5B    2.40440       11.6110           0 -0.868000       1.30000    
     11015 IM1      189      IM1      DC4      DRUD     -2.28640      0.400000           0   0.00000       0.00000    
     11016 IM1      189      IM1      H6       HDR5B    0.730000E-01   1.00800           0   0.00000       0.00000    
     11017 IM1      189      IM1      N2       ND2R5B    2.24930       13.6070           0 -0.840000       1.00000    
     11018 IM1      189      IM1      DN2      DRUD     -2.24930      0.400000           0   0.00000       0.00000    
     11019 IM1      189      IM1      H7       DUMH      0.00000       1.00800           0   0.00000       0.00000    
     11020 IM1      189      IM1      LPN21    LPD     -0.474000       0.00000          -1   0.00000       0.00000    
     11021 IM1      190      IM1      C1       CD33G     2.39060       11.6110           0  -1.08100       1.00000    
     11022 IM1      190      IM1      DC1      DRUD     -2.55160      0.400000           0   0.00000       0.00000    
     11023 IM1      190      IM1      H1       HDA3A    0.940000E-01   1.00800           0   0.00000       0.00000    
     11024 IM1      190      IM1      H2       HDA3A    0.940000E-01   1.00800           0   0.00000       0.00000    
     11025 IM1      190      IM1      H3       HDA3A    0.940000E-01   1.00800           0   0.00000       0.00000    
     11026 IM1      190      IM1      N1       ND2R5A    2.67030       13.6070           0  -1.06300       1.30000    
     11027 IM1      190      IM1      DN1      DRUD     -2.53030      0.400000           0   0.00000       0.00000    
     11028 IM1      190      IM1      C2       CD2R5A    2.51190       11.6110           0  -1.37800       1.30000    
     11029 IM1      190      IM1      DC2      DRUD     -2.88090      0.400000           0   0.00000       0.00000    
     11030 IM1      190      IM1      H4       HDR5A    0.150000       1.00800           0   0.00000       0.00000    
     11031 IM1      190      IM1      C3       CD2R5A    3.06890       11.6110           0  -1.37800       1.30000    
     11032 IM1      190      IM1      DC3      DRUD     -2.88090      0.400000           0   0.00000       0.00000    
     11033 IM1      190      IM1      H5       HDR5A    0.530000E-01   1.00800           0   0.00000       0.00000    
     11034 IM1      190      IM1      C4       CD2R5B    2.40440       11.6110           0 -0.868000       1.30000    
     11035 IM1      190      IM1      DC4      DRUD     -2.28640      0.400000           0   0.00000       0.00000    
     11036 IM1      190      IM1      H6       HDR5B    0.730000E-01   1.00800           0   0.00000       0.00000    
     11037 IM1      190      IM1      N2       ND2R5B    2.24930       13.6070           0 -0.840000       1.00000    
     11038 IM1      190      IM1      DN2      DRUD     -2.24930      0.400000           0   0.00000       0.00000    
     11039 IM1      190      IM1      H7       DUMH      0.00000       1.00800           0   0.00000       0.00000    
     11040 IM1      190      IM1      LPN21    LPD     -0.474000       0.00000          -1   0.00000       0.00000    
     11041 IM1      191      IM1      C1       CD33G     2.39060       11.6110           0  -1.08100       1.00000    
     11042 IM1      191      IM1      DC1      DRUD     -2.55160      0.400000           0   0.00000       0.00000    
     11043 IM1      191      IM1      H1       HDA3A    0.940000E-01   1.00800           0   0.00000       0.00000    
     11044 IM1      191      IM1      H2       HDA3A    0.940000E-01   1.00800           0   0.00000       0.00000    
     11045 IM1      191      IM1      H3       HDA3A    0.940000E-01   1.00800           0   0.00000       0.00000    
     11046 IM1      191      IM1      N1       ND2R5A    2.67030       13.6070           0  -1.06300       1.30000    
     11047 IM1      191      IM1      DN1      DRUD     -2.53030      0.400000           0   0.00000       0.00000    
     11048 IM1      191      IM1      C2       CD2R5A    2.51190       11.6110           0  -1.37800       1.30000    
     11049 IM1      191      IM1      DC2      DRUD     -2.88090      0.400000           0   0.00000       0.00000    
     11050 IM1      191      IM1      H4       HDR5A    0.150000       1.00800           0   0.00000       0.00000    
     11051 IM1      191      IM1      C3       CD2R5A    3.06890       11.6110           0  -1.37800       1.30000    
     11052 IM1      191      IM1      DC3      DRUD     -2.88090      0.400000           0   0.00000       0.00000    
     11053 IM1      191      IM1      H5       HDR5A    0.530000E-01   1.00800           0   0.00000       0.00000    
     11054 IM1      191      IM1      C4       CD2R5B    2.40440       11.6110           0 -0.868000       1.30000    
     11055 IM1      191      IM1      DC4      DRUD     -2.28640      0.400000           0   0.00000       0.00000    
     11056 IM1      191      IM1      H6       HDR5B    0.730000E-01   1.00800           0   0.00000       0.00000    
     11057 IM1      191      IM1      N2       ND2R5B    2.24930       13.6070           0 -0.840000       1.00000    
     11058 IM1      191      IM1      DN2      DRUD     -2.24930      0.400000           0   0.00000       0.00000    
     11059 IM1      191      IM1      H7       DUMH      0.00000       1.00800           0   0.00000       0.00000    
     11060 IM1      191      IM1      LPN21    LPD     -0.474000       0.00000          -1   0.00000       0.00000    
     11061 IM1      192      IM1      C1       CD33G     2.39060       11.6110           0  -1.08100       1.00000    
     11062 IM1      192      IM1      DC1      DRUD     -2.55160      0.400000           0   0.00000       0.00000    
     11063 IM1      192      IM1      H1       HDA3A    0.940000E-01   1.00800           0   0.00000       0.00000    
     11064 IM1      192      IM1      H2       HDA3A    0.940000E-01   1.00800           0   0.00000       0.00000    
     11065 IM1      192      IM1      H3       HDA3A    0.940000E-01   1.00800           0   0.00000       0.00000    
     11066 IM1      192      IM1      N1       ND2R5A    2.67030       13.6070           0  -1.06300       1.30000    
     11067 IM1      192      IM1      DN1      DRUD     -2.53030      0.400000           0   0.00000       0.00000    
     11068 IM1      192      IM1      C2       CD2R5A    2.51190       11.6110           0  -1.37800       1.30000    
     11069 IM1      192      IM1      DC2      DRUD     -2.88090      0.400000           0   0.00000       0.00000    
     11070 IM1      192      IM1      H4       HDR5A    0.150000       1.00800           0   0.00000       0.00000    
     11071 IM1      192      IM1      C3       CD2R5A    3.06890       11.6110           0  -1.37800       1.30000    
     11072 IM1      192      IM1      DC3      DRUD     -2.88090      0.400000           0   0.00000       0.00000    
     11073 IM1      192      IM1      H5       HDR5A    0.530000E-01   1.00800           0   0.00000       0.00000    
     11074 IM1      192      IM1      C4       CD2R5B    2.40440       11.6110           0 -0.868000       1.30000    
     11075 IM1      192      IM1      DC4      DRUD     -2.28640      0.400000           0   0.00000       0.00000    
     11076 IM1      192      IM1      H6       HDR5B    0.730000E-01   1.00800           0   0.00000       0.00000    
     11077 IM1      192      IM1      N2       ND2R5B    2.24930       13.6070           0 -0.840000       1.00000    
     11078 IM1      192      IM1      DN2      DRUD     -2.24930      0.400000           0   0.00000       0.00000    
     11079 IM1      192      IM1      H7       DUMH      0.00000       1.00800           0   0.00000       0.00000    
     11080 IM1      192      IM1      LPN21    LPD     -0.474000       0.00000          -1   0.00000       0.00000    
     11081 IM1      193      IM1      C1       CD33G     2.39060       11.6110           0  -1.08100       1.00000    
     11082 IM1      193      IM1      DC1      DRUD     -2.55160      0.400000           0   0.00000       0.00000    
     11083 IM1      193      IM1      H1       HDA3A    0.940000E-01   1.00800           0   0.00000       0.00000    
     11084 IM1      193      IM1      H2       HDA3A    0.940000E-01   1.00800           0   0.00000       0.00000    
     11085 IM1      193      IM1      H3       HDA3A    0.940000E-01   1.00800           0   0.00000       0.00000    
     11086 IM1      193      IM1      N1       ND2R5A    2.67030       13.6070           0  -1.06300       1.30000    
     11087 IM1      193      IM1      DN1      DRUD     -2.53030      0.400000           0   0.00000       0.00000    
     11088 IM1      193      IM1      C2       CD2R5A    2.51190       11.6110           0  -1.37800       1.30000    
     11089 IM1      193      IM1      DC2      DRUD     -2.88090      0.400000           0   0.00000       0.00000    
     11090 IM1      193      IM1      H4       HDR5A    0.150000       1.00800           0   0.00000       0.00000    
     11091 IM1      193      IM1      C3       CD2R5A    3.06890       11.6110           0  -1.37800       1.30000    
     11092 IM1      193      IM1      DC3      DRUD     -2.88090      0.400000           0   0.00000       0.00000    
     11093 IM1      193      IM1      H5       HDR5A    0.530000E-01   1.00800           0   0.00000       0.00000    
     11094 IM1      193      IM1      C4       CD2R5B    2.40440       11.6110           0 -0.868000       1.30000    
     11095 IM1      193      IM1      DC4      DRUD     -2.28640      0.400000           0   0.00000       0.00000    
     11096 IM1      193      IM1      H6       HDR5B    0.730000E-01   1.00800           0   0.00000       0.00000    
     11097 IM1      193      IM1      N2       ND2R5B    2.24930       13.6070           0 -0.840000       1.00000    
     11098 IM1      193      IM1      DN2      DRUD     -2.24930      0.400000           0   0.00000       0.00000    
     11099 IM1      193      IM1      H7       DUMH      0.00000       1.00800           0   0.00000       0.00000    
     11100 IM1      193      IM1      LPN21    LPD     -0.474000       0.00000          -1   0.00000       0.00000    
     11101 IM1      194      IM1      C1       CD33G     2.39060       11.6110           0  -1.08100       1.00000    
     11102 IM1      194      IM1      DC1      DRUD     -2.55160      0.400000           0   0.00000       0.00000    
     11103 IM1      194      IM1      H1       HDA3A    0.940000E-01   1.00800           0   0.00000       0.00000    
     11104 IM1      194      IM1      H2       HDA3A    0.940000E-01   1.00800           0   0.00000       0.00000    
     11105 IM1      194      IM1      H3       HDA3A    0.940000E-01   1.00800           0   0.00000       0.00000    
     11106 IM1      194      IM1      N1       ND2R5A    2.67030       13.6070           0  -1.06300       1.30000    
     11107 IM1      194      IM1      DN1      DRUD     -2.53030      0.400000           0   0.00000       0.00000    
     11108 IM1      194      IM1      C2       CD2R5A    2.51190       11.6110           0  -1.37800       1.30000    
     11109 IM1      194      IM1      DC2      DRUD     -2.88090      0.400000           0   0.00000       0.00000    
     11110 IM1      194      IM1      H4       HDR5A    0.150000       1.00800           0   0.00000       0.00000    
     11111 IM1      194      IM1      C3       CD2R5A    3.06890       11.6110           0  -1.37800       1.30000    
     11112 IM1      194      IM1      DC3      DRUD     -2.88090      0.400000           0   0.00000       0.00000    
     11113 IM1      194      IM1      H5       HDR5A    0.530000E-01   1.00800           0   0.00000       0.00000    
     11114 IM1      194      IM1      C4       CD2R5B    2.40440       11.6110           0 -0.868000       1.30000    
     11115 IM1      194      IM1      DC4      DRUD     -2.28640      0.400000           0   0.00000       0.00000    
     11116 IM1      194      IM1      H6       HDR5B    0.730000E-01   1.00800           0   0.00000       0.00000    
     11117 IM1      194      IM1      N2       ND2R5B    2.24930       13.6070           0 -0.840000       1.00000    
     11118 IM1      194      IM1      DN2      DRUD     -2.24930      0.400000           0   0.00000       0.00000    
     11119 IM1      194      IM1      H7       DUMH      0.00000       1.00800           0   0.00000       0.00000    
     11120 IM1      194      IM1      LPN21    LPD     -0.474000       0.00000          -1   0.00000       0.00000    
     11121 IM1      195      IM1      C1       CD33G     2.39060       11.6110           0  -1.08100       1.00000    
     11122 IM1      195      IM1      DC1      DRUD     -2.55160      0.400000           0   0.00000       0.00000    
     11123 IM1      195      IM1      H1       HDA3A    0.940000E-01   1.00800           0   0.00000       0.00000    
     11124 IM1      195      IM1      H2       HDA3A    0.940000E-01   1.00800           0   0.00000       0.00000    
     11125 IM1      195      IM1      H3       HDA3A    0.940000E-01   1.00800           0   0.00000       0.00000    
     11126 IM1      195      IM1      N1       ND2R5A    2.67030       13.6070           0  -1.06300       1.30000    
     11127 IM1      195      IM1      DN1      DRUD     -2.53030      0.400000           0   0.00000       0.00000    
     11128 IM1      195      IM1      C2       CD2R5A    2.51190       11.6110           0  -1.37800       1.30000    
     11129 IM1      195      IM1      DC2      DRUD     -2.88090      0.400000           0   0.00000       0.00000    
     11130 IM1      195      IM1      H4       HDR5A    0.150000       1.00800           0   0.00000       0.00000    
     11131 IM1      195      IM1      C3       CD2R5A    3.06890       11.6110           0  -1.37800       1.30000    
     11132 IM1      195      IM1      DC3      DRUD     -2.88090      0.400000           0   0.00000       0.00000    
     11133 IM1      195      IM1      H5       HDR5A    0.530000E-01   1.00800           0   0.00000       0.00000    
     11134 IM1      195      IM1      C4       CD2R5B    2.40440       11.6110           0 -0.868000       1.30000    
     11135 IM1      195      IM1      DC4      DRUD     -2.28640      0.400000           0   0.00000       0.00000    
     11136 IM1      195      IM1      H6       HDR5B    0.730000E-01   1.00800           0   0.00000       0.00000    
     11137 IM1      195      IM1      N2       ND2R5B    2.24930       13.6070           0 -0.840000       1.00000    
     11138 IM1      195      IM1      DN2      DRUD     -2.24930      0.400000           0   0.00000       0.00000    
     11139 IM1      195      IM1      H7       DUMH      0.00000       1.00800           0   0.00000       0.00000    
     11140 IM1      195      IM1      LPN21    LPD     -0.474000       0.00000          -1   0.00000       0.00000    
     11141 IM1      196      IM1      C1       CD33G     2.39060       11.6110           0  -1.08100       1.00000    
     11142 IM1      196      IM1      DC1      DRUD     -2.55160      0.400000           0   0.00000       0.00000    
     11143 IM1      196      IM1      H1       HDA3A    0.940000E-01   1.00800           0   0.00000       0.00000    
     11144 IM1      196      IM1      H2       HDA3A    0.940000E-01   1.00800           0   0.00000       0.00000    
     11145 IM1      196      IM1      H3       HDA3A    0.940000E-01   1.00800           0   0.00000       0.00000    
     11146 IM1      196      IM1      N1       ND2R5A    2.67030       13.6070           0  -1.06300       1.30000    
     11147 IM1      196      IM1      DN1      DRUD     -2.53030      0.400000           0   0.00000       0.00000    
     11148 IM1      196      IM1      C2       CD2R5A    2.51190       11.6110           0  -1.37800       1.30000    
     11149 IM1      196      IM1      DC2      DRUD     -2.88090      0.400000           0   0.00000       0.00000    
     11150 IM1      196      IM1      H4       HDR5A    0.150000       1.00800           0   0.00000       0.00000    
     11151 IM1      196      IM1      C3       CD2R5A    3.06890       11.6110           0  -1.37800       1.30000    
     11152 IM1      196      IM1      DC3      DRUD     -2.88090      0.400000           0   0.00000       0.00000    
     11153 IM1      196      IM1      H5       HDR5A    0.530000E-01   1.00800           0   0.00000       0.00000    
     11154 IM1      196      IM1      C4       CD2R5B    2.40440       11.6110           0 -0.868000       1.30000    
     11155 IM1      196      IM1      DC4      DRUD     -2.28640      0.400000           0   0.00000       0.00000    
     11156 IM1      196      IM1      H6       HDR5B    0.730000E-01   1.00800           0   0.00000       0.00000    
     11157 IM1      196      IM1      N2       ND2R5B    2.24930       13.6070           0 -0.840000       1.00000    
     11158 IM1      196      IM1      DN2      DRUD     -2.24930      0.400000           0   0.00000       0.00000    
     11159 IM1      196      IM1      H7       DUMH      0.00000       1.00800           0   0.00000       0.00000    
     11160 IM1      196      IM1      LPN21    LPD     -0.474000       0.00000          -1   0.00000       0.00000    
     11161 IM1      197      IM1      C1       CD33G     2.39060       11.6110           0  -1.08100       1.00000    
     11162 IM1      197      IM1      DC1      DRUD     -2.55160      0.400000           0   0.00000       0.00000    
     11163 IM1      197      IM1      H1       HDA3A    0.940000E-01   1.00800           0   0.00000       0.00000    
     11164 IM1      197      IM1      H2       HDA3A    0.940000E-01   1.00800           0   0.00000       0.00000    
     11165 IM1      197      IM1      H3       HDA3A    0.940000E-01   1.00800           0   0.00000       0.00000    
     11166 IM1      197      IM1      N1       ND2R5A    2.67030       13.6070           0  -1.06300       1.30000    
     11167 IM1      197      IM1      DN1      DRUD     -2.53030      0.400000           0   0.00000       0.00000    
     11168 IM1      197      IM1      C2       CD2R5A    2.51190       11.6110           0  -1.37800       1.30000    
     11169 IM1      197      IM1      DC2      DRUD     -2.88090      0.400000           0   0.00000       0.00000    
     11170 IM1      197      IM1      H4       HDR5A    0.150000       1.00800           0   0.00000       0.00000    
     11171 IM1      197      IM1      C3       CD2R5A    3.06890       11.6110           0  -1.37800       1.30000    
     11172 IM1      197      IM1      DC3      DRUD     -2.88090      0.400000           0   0.00000       0.00000    
     11173 IM1      197      IM1      H5       HDR5A    0.530000E-01   1.00800           0   0.00000       0.00000    
     11174 IM1      197      IM1      C4       CD2R5B    2.40440       11.6110           0 -0.868000       1.30000    
     11175 IM1      197      IM1      DC4      DRUD     -2.28640      0.400000           0   0.00000       0.00000    
     11176 IM1      197      IM1      H6       HDR5B    0.730000E-01   1.00800           0   0.00000       0.00000    
     11177 IM1      197      IM1      N2       ND2R5B    2.24930       13.6070           0 -0.840000       1.00000    
     11178 IM1      197      IM1      DN2      DRUD     -2.24930      0.400000           0   0.00000       0.00000    
     11179 IM1      197      IM1      H7       DUMH      0.00000       1.00800           0   0.00000       0.00000    
     11180 IM1      197      IM1      LPN21    LPD     -0.474000       0.00000          -1   0.00000       0.00000    
     11181 IM1      198      IM1      C1       CD33G     2.39060       11.6110           0  -1.08100       1.00000    
     11182 IM1      198      IM1      DC1      DRUD     -2.55160      0.400000           0   0.00000       0.00000    
     11183 IM1      198      IM1      H1       HDA3A    0.940000E-01   1.00800           0   0.00000       0.00000    
     11184 IM1      198      IM1      H2       HDA3A    0.940000E-01   1.00800           0   0.00000       0.00000    
     11185 IM1      198      IM1      H3       HDA3A    0.940000E-01   1.00800           0   0.00000       0.00000    
     11186 IM1      198      IM1      N1       ND2R5A    2.67030       13.6070           0  -1.06300       1.30000    
     11187 IM1      198      IM1      DN1      DRUD     -2.53030      0.400000           0   0.00000       0.00000    
     11188 IM1      198      IM1      C2       CD2R5A    2.51190       11.6110           0  -1.37800       1.30000    
     11189 IM1      198      IM1      DC2      DRUD     -2.88090      0.400000           0   0.00000       0.00000    
     11190 IM1      198      IM1      H4       HDR5A    0.150000       1.00800           0   0.00000       0.00000    
     11191 IM1      198      IM1      C3       CD2R5A    3.06890       11.6110           0  -1.37800       1.30000    
     11192 IM1      198      IM1      DC3      DRUD     -2.88090      0.400000           0   0.00000       0.00000    
     11193 IM1      198      IM1      H5       HDR5A    0.530000E-01   1.00800           0   0.00000       0.00000    
     11194 IM1      198      IM1      C4       CD2R5B    2.40440       11.6110           0 -0.868000       1.30000    
     11195 IM1      198      IM1      DC4      DRUD     -2.28640      0.400000           0   0.00000       0.00000    
     11196 IM1      198      IM1      H6       HDR5B    0.730000E-01   1.00800           0   0.00000       0.00000    
     11197 IM1      198      IM1      N2       ND2R5B    2.24930       13.6070           0 -0.840000       1.00000    
     11198 IM1      198      IM1      DN2      DRUD     -2.24930      0.400000           0   0.00000       0.00000    
     11199 IM1      198      IM1      H7       DUMH      0.00000       1.00800           0   0.00000       0.00000    
     11200 IM1      198      IM1      LPN21    LPD     -0.474000       0.00000          -1   0.00000       0.00000    
     11201 IM1      199      IM1      C1       CD33G     2.39060       11.6110           0  -1.08100       1.00000    
     11202 IM1      199      IM1      DC1      DRUD     -2.55160      0.400000           0   0.00000       0.00000    
     11203 IM1      199      IM1      H1       HDA3A    0.940000E-01   1.00800           0   0.00000       0.00000    
     11204 IM1      199      IM1      H2       HDA3A    0.940000E-01   1.00800           0   0.00000       0.00000    
     11205 IM1      199      IM1      H3       HDA3A    0.940000E-01   1.00800           0   0.00000       0.00000    
     11206 IM1      199      IM1      N1       ND2R5A    2.67030       13.6070           0  -1.06300       1.30000    
     11207 IM1      199      IM1      DN1      DRUD     -2.53030      0.400000           0   0.00000       0.00000    
     11208 IM1      199      IM1      C2       CD2R5A    2.51190       11.6110           0  -1.37800       1.30000    
     11209 IM1      199      IM1      DC2      DRUD     -2.88090      0.400000           0   0.00000       0.00000    
     11210 IM1      199      IM1      H4       HDR5A    0.150000       1.00800           0   0.00000       0.00000    
     11211 IM1      199      IM1      C3       CD2R5A    3.06890       11.6110           0  -1.37800       1.30000    
     11212 IM1      199      IM1      DC3      DRUD     -2.88090      0.400000           0   0.00000       0.00000    
     11213 IM1      199      IM1      H5       HDR5A    0.530000E-01   1.00800           0   0.00000       0.00000    
     11214 IM1      199      IM1      C4       CD2R5B    2.40440       11.6110           0 -0.868000       1.30000    
     11215 IM1      199      IM1      DC4      DRUD     -2.28640      0.400000           0   0.00000       0.00000    
     11216 IM1      199      IM1      H6       HDR5B    0.730000E-01   1.00800           0   0.00000       0.00000    
     11217 IM1      199      IM1      N2       ND2R5B    2.24930       13.6070           0 -0.840000       1.00000    
     11218 IM1      199      IM1      DN2      DRUD     -2.24930      0.400000           0   0.00000       0.00000    
     11219 IM1      199      IM1      H7       DUMH      0.00000       1.00800           0   0.00000       0.00000    
     11220 IM1      199      IM1      LPN21    LPD     -0.474000       0.00000          -1   0.00000       0.00000    
     11221 IM1      200      IM1      C1       CD33G     2.39060       11.6110           0  -1.08100       1.00000    
     11222 IM1      200      IM1      DC1      DRUD     -2.55160      0.400000           0   0.00000       0.00000    
     11223 IM1      200      IM1      H1       HDA3A    0.940000E-01   1.00800           0   0.00000       0.00000    
     11224 IM1      200      IM1      H2       HDA3A    0.940000E-01   1.00800           0   0.00000       0.00000    
     11225 IM1      200      IM1      H3       HDA3A    0.940000E-01   1.00800           0   0.00000       0.00000    
     11226 IM1      200      IM1      N1       ND2R5A    2.67030       13.6070           0  -1.06300       1.30000    
     11227 IM1      200      IM1      DN1      DRUD     -2.53030      0.400000           0   0.00000       0.00000    
     11228 IM1      200      IM1      C2       CD2R5A    2.51190       11.6110           0  -1.37800       1.30000    
     11229 IM1      200      IM1      DC2      DRUD     -2.88090      0.400000           0   0.00000       0.00000    
     11230 IM1      200      IM1      H4       HDR5A    0.150000       1.00800           0   0.00000       0.00000    
     11231 IM1      200      IM1      C3       CD2R5A    3.06890       11.6110           0  -1.37800       1.30000    
     11232 IM1      200      IM1      DC3      DRUD     -2.88090      0.400000           0   0.00000       0.00000    
     11233 IM1      200      IM1      H5       HDR5A    0.530000E-01   1.00800           0   0.00000       0.00000    
     11234 IM1      200      IM1      C4       CD2R5B    2.40440       11.6110           0 -0.868000       1.30000    
     11235 IM1      200      IM1      DC4      DRUD     -2.28640      0.400000           0   0.00000       0.00000    
     11236 IM1      200      IM1      H6       HDR5B    0.730000E-01   1.00800           0   0.00000       0.00000    
     11237 IM1      200      IM1      N2       ND2R5B    2.24930       13.6070           0 -0.840000       1.00000    
     11238 IM1      200      IM1      DN2      DRUD     -2.24930      0.400000           0   0.00000       0.00000    
     11239 IM1      200      IM1      H7       DUMH      0.00000       1.00800           0   0.00000       0.00000    
     11240 IM1      200      IM1      LPN21    LPD     -0.474000       0.00000          -1   0.00000       0.00000    
     11241 IM1      201      IM1      C1       CD33G     2.39060       11.6110           0  -1.08100       1.00000    
     11242 IM1      201      IM1      DC1      DRUD     -2.55160      0.400000           0   0.00000       0.00000    
     11243 IM1      201      IM1      H1       HDA3A    0.940000E-01   1.00800           0   0.00000       0.00000    
     11244 IM1      201      IM1      H2       HDA3A    0.940000E-01   1.00800           0   0.00000       0.00000    
     11245 IM1      201      IM1      H3       HDA3A    0.940000E-01   1.00800           0   0.00000       0.00000    
     11246 IM1      201      IM1      N1       ND2R5A    2.67030       13.6070           0  -1.06300       1.30000    
     11247 IM1      201      IM1      DN1      DRUD     -2.53030      0.400000           0   0.00000       0.00000    
     11248 IM1      201      IM1      C2       CD2R5A    2.51190       11.6110           0  -1.37800       1.30000    
     11249 IM1      201      IM1      DC2      DRUD     -2.88090      0.400000           0   0.00000       0.00000    
     11250 IM1      201      IM1      H4       HDR5A    0.150000       1.00800           0   0.00000       0.00000    
     11251 IM1      201      IM1      C3       CD2R5A    3.06890       11.6110           0  -1.37800       1.30000    
     11252 IM1      201      IM1      DC3      DRUD     -2.88090      0.400000           0   0.00000       0.00000    
     11253 IM1      201      IM1      H5       HDR5A    0.530000E-01   1.00800           0   0.00000       0.00000    
     11254 IM1      201      IM1      C4       CD2R5B    2.40440       11.6110           0 -0.868000       1.30000    
     11255 IM1      201      IM1      DC4      DRUD     -2.28640      0.400000           0   0.00000       0.00000    
     11256 IM1      201      IM1      H6       HDR5B    0.730000E-01   1.00800           0   0.00000       0.00000    
     11257 IM1      201      IM1      N2       ND2R5B    2.24930       13.6070           0 -0.840000       1.00000    
     11258 IM1      201      IM1      DN2      DRUD     -2.24930      0.400000           0   0.00000       0.00000    
     11259 IM1      201      IM1      H7       DUMH      0.00000       1.00800           0   0.00000       0.00000    
     11260 IM1      201      IM1      LPN21    LPD     -0.474000       0.00000          -1   0.00000       0.00000    
     11261 IM1      202      IM1      C1       CD33G     2.39060       11.6110           0  -1.08100       1.00000    
     11262 IM1      202      IM1      DC1      DRUD     -2.55160      0.400000           0   0.00000       0.00000    
     11263 IM1      202      IM1      H1       HDA3A    0.940000E-01   1.00800           0   0.00000       0.00000    
     11264 IM1      202      IM1      H2       HDA3A    0.940000E-01   1.00800           0   0.00000       0.00000    
     11265 IM1      202      IM1      H3       HDA3A    0.940000E-01   1.00800           0   0.00000       0.00000    
     11266 IM1      202      IM1      N1       ND2R5A    2.67030       13.6070           0  -1.06300       1.30000    
     11267 IM1      202      IM1      DN1      DRUD     -2.53030      0.400000           0   0.00000       0.00000    
     11268 IM1      202      IM1      C2       CD2R5A    2.51190       11.6110           0  -1.37800       1.30000    
     11269 IM1      202      IM1      DC2      DRUD     -2.88090      0.400000           0   0.00000       0.00000    
     11270 IM1      202      IM1      H4       HDR5A    0.150000       1.00800           0   0.00000       0.00000    
     11271 IM1      202      IM1      C3       CD2R5A    3.06890       11.6110           0  -1.37800       1.30000    
     11272 IM1      202      IM1      DC3      DRUD     -2.88090      0.400000           0   0.00000       0.00000    
     11273 IM1      202      IM1      H5       HDR5A    0.530000E-01   1.00800           0   0.00000       0.00000    
     11274 IM1      202      IM1      C4       CD2R5B    2.40440       11.6110           0 -0.868000       1.30000    
     11275 IM1      202      IM1      DC4      DRUD     -2.28640      0.400000           0   0.00000       0.00000    
     11276 IM1      202      IM1      H6       HDR5B    0.730000E-01   1.00800           0   0.00000       0.00000    
     11277 IM1      202      IM1      N2       ND2R5B    2.24930       13.6070           0 -0.840000       1.00000    
     11278 IM1      202      IM1      DN2      DRUD     -2.24930      0.400000           0   0.00000       0.00000    
     11279 IM1      202      IM1      H7       DUMH      0.00000       1.00800           0   0.00000       0.00000    
     11280 IM1      202      IM1      LPN21    LPD     -0.474000       0.00000          -1   0.00000       0.00000    
     11281 IM1      203      IM1      C1       CD33G     2.39060       11.6110           0  -1.08100       1.00000    
     11282 IM1      203      IM1      DC1      DRUD     -2.55160      0.400000           0   0.00000       0.00000    
     11283 IM1      203      IM1      H1       HDA3A    0.940000E-01   1.00800           0   0.00000       0.00000    
     11284 IM1      203      IM1      H2       HDA3A    0.940000E-01   1.00800           0   0.00000       0.00000    
     11285 IM1      203      IM1      H3       HDA3A    0.940000E-01   1.00800           0   0.00000       0.00000    
     11286 IM1      203      IM1      N1       ND2R5A    2.67030       13.6070           0  -1.06300       1.30000    
     11287 IM1      203      IM1      DN1      DRUD     -2.53030      0.400000           0   0.00000       0.00000    
     11288 IM1      203      IM1      C2       CD2R5A    2.51190       11.6110           0  -1.37800       1.30000    
     11289 IM1      203      IM1      DC2      DRUD     -2.88090      0.400000           0   0.00000       0.00000    
     11290 IM1      203      IM1      H4       HDR5A    0.150000       1.00800           0   0.00000       0.00000    
     11291 IM1      203      IM1      C3       CD2R5A    3.06890       11.6110           0  -1.37800       1.30000    
     11292 IM1      203      IM1      DC3      DRUD     -2.88090      0.400000           0   0.00000       0.00000    
     11293 IM1      203      IM1      H5       HDR5A    0.530000E-01   1.00800           0   0.00000       0.00000    
     11294 IM1      203      IM1      C4       CD2R5B    2.40440       11.6110           0 -0.868000       1.30000    
     11295 IM1      203      IM1      DC4      DRUD     -2.28640      0.400000           0   0.00000       0.00000    
     11296 IM1      203      IM1      H6       HDR5B    0.730000E-01   1.00800           0   0.00000       0.00000    
     11297 IM1      203      IM1      N2       ND2R5B    2.24930       13.6070           0 -0.840000       1.00000    
     11298 IM1      203      IM1      DN2      DRUD     -2.24930      0.400000           0   0.00000       0.00000    
     11299 IM1      203      IM1      H7       DUMH      0.00000       1.00800           0   0.00000       0.00000    
     11300 IM1      203      IM1      LPN21    LPD     -0.474000       0.00000          -1   0.00000       0.00000    
     11301 IM1      204      IM1      C1       CD33G     2.39060       11.6110           0  -1.08100       1.00000    
     11302 IM1      204      IM1      DC1      DRUD     -2.55160      0.400000           0   0.00000       0.00000    
     11303 IM1      204      IM1      H1       HDA3A    0.940000E-01   1.00800           0   0.00000       0.00000    
     11304 IM1      204      IM1      H2       HDA3A    0.940000E-01   1.00800           0   0.00000       0.00000    
     11305 IM1      204      IM1      H3       HDA3A    0.940000E-01   1.00800           0   0.00000       0.00000    
     11306 IM1      204      IM1      N1       ND2R5A    2.67030       13.6070           0  -1.06300       1.30000    
     11307 IM1      204      IM1      DN1      DRUD     -2.53030      0.400000           0   0.00000       0.00000    
     11308 IM1      204      IM1      C2       CD2R5A    2.51190       11.6110           0  -1.37800       1.30000    
     11309 IM1      204      IM1      DC2      DRUD     -2.88090      0.400000           0   0.00000       0.00000    
     11310 IM1      204      IM1      H4       HDR5A    0.150000       1.00800           0   0.00000       0.00000    
     11311 IM1      204      IM1      C3       CD2R5A    3.06890       11.6110           0  -1.37800       1.30000    
     11312 IM1      204      IM1      DC3      DRUD     -2.88090      0.400000           0   0.00000       0.00000    
     11313 IM1      204      IM1      H5       HDR5A    0.530000E-01   1.00800           0   0.00000       0.00000    
     11314 IM1      204      IM1      C4       CD2R5B    2.40440       11.6110           0 -0.868000       1.30000    
     11315 IM1      204      IM1      DC4      DRUD     -2.28640      0.400000           0   0.00000       0.00000    
     11316 IM1      204      IM1      H6       HDR5B    0.730000E-01   1.00800           0   0.00000       0.00000    
     11317 IM1      204      IM1      N2       ND2R5B    2.24930       13.6070           0 -0.840000       1.00000    
     11318 IM1      204      IM1      DN2      DRUD     -2.24930      0.400000           0   0.00000       0.00000    
     11319 IM1      204      IM1      H7       DUMH      0.00000       1.00800           0   0.00000       0.00000    
     11320 IM1      204      IM1      LPN21    LPD     -0.474000       0.00000          -1   0.00000       0.00000    
     11321 IM1      205      IM1      C1       CD33G     2.39060       11.6110           0  -1.08100       1.00000    
     11322 IM1      205      IM1      DC1      DRUD     -2.55160      0.400000           0   0.00000       0.00000    
     11323 IM1      205      IM1      H1       HDA3A    0.940000E-01   1.00800           0   0.00000       0.00000    
     11324 IM1      205      IM1      H2       HDA3A    0.940000E-01   1.00800           0   0.00000       0.00000    
     11325 IM1      205      IM1      H3       HDA3A    0.940000E-01   1.00800           0   0.00000       0.00000    
     11326 IM1      205      IM1      N1       ND2R5A    2.67030       13.6070           0  -1.06300       1.30000    
     11327 IM1      205      IM1      DN1      DRUD     -2.53030      0.400000           0   0.00000       0.00000    
     11328 IM1      205      IM1      C2       CD2R5A    2.51190       11.6110           0  -1.37800       1.30000    
     11329 IM1      205      IM1      DC2      DRUD     -2.88090      0.400000           0   0.00000       0.00000    
     11330 IM1      205      IM1      H4       HDR5A    0.150000       1.00800           0   0.00000       0.00000    
     11331 IM1      205      IM1      C3       CD2R5A    3.06890       11.6110           0  -1.37800       1.30000    
     11332 IM1      205      IM1      DC3      DRUD     -2.88090      0.400000           0   0.00000       0.00000    
     11333 IM1      205      IM1      H5       HDR5A    0.530000E-01   1.00800           0   0.00000       0.00000    
     11334 IM1      205      IM1      C4       CD2R5B    2.40440       11.6110           0 -0.868000       1.30000    
     11335 IM1      205      IM1      DC4      DRUD     -2.28640      0.400000           0   0.00000       0.00000    
     11336 IM1      205      IM1      H6       HDR5B    0.730000E-01   1.00800           0   0.00000       0.00000    
     11337 IM1      205      IM1      N2       ND2R5B    2.24930       13.6070           0 -0.840000       1.00000    
     11338 IM1      205      IM1      DN2      DRUD     -2.24930      0.400000           0   0.00000       0.00000    
     11339 IM1      205      IM1      H7       DUMH      0.00000       1.00800           0   0.00000       0.00000    
     11340 IM1      205      IM1      LPN21    LPD     -0.474000       0.00000          -1   0.00000       0.00000    
     11341 IM1      206      IM1      C1       CD33G     2.39060       11.6110           0  -1.08100       1.00000    
     11342 IM1      206      IM1      DC1      DRUD     -2.55160      0.400000           0   0.00000       0.00000    
     11343 IM1      206      IM1      H1       HDA3A    0.940000E-01   1.00800           0   0.00000       0.00000    
     11344 IM1      206      IM1      H2       HDA3A    0.940000E-01   1.00800           0   0.00000       0.00000    
     11345 IM1      206      IM1      H3       HDA3A    0.940000E-01   1.00800           0   0.00000       0.00000    
     11346 IM1      206      IM1      N1       ND2R5A    2.67030       13.6070           0  -1.06300       1.30000    
     11347 IM1      206      IM1      DN1      DRUD     -2.53030      0.400000           0   0.00000       0.00000    
     11348 IM1      206      IM1      C2       CD2R5A    2.51190       11.6110           0  -1.37800       1.30000    
     11349 IM1      206      IM1      DC2      DRUD     -2.88090      0.400000           0   0.00000       0.00000    
     11350 IM1      206      IM1      H4       HDR5A    0.150000       1.00800           0   0.00000       0.00000    
     11351 IM1      206      IM1      C3       CD2R5A    3.06890       11.6110           0  -1.37800       1.30000    
     11352 IM1      206      IM1      DC3      DRUD     -2.88090      0.400000           0   0.00000       0.00000    
     11353 IM1      206      IM1      H5       HDR5A    0.530000E-01   1.00800           0   0.00000       0.00000    
     11354 IM1      206      IM1      C4       CD2R5B    2.40440       11.6110           0 -0.868000       1.30000    
     11355 IM1      206      IM1      DC4      DRUD     -2.28640      0.400000           0   0.00000       0.00000    
     11356 IM1      206      IM1      H6       HDR5B    0.730000E-01   1.00800           0   0.00000       0.00000    
     11357 IM1      206      IM1      N2       ND2R5B    2.24930       13.6070           0 -0.840000       1.00000    
     11358 IM1      206      IM1      DN2      DRUD     -2.24930      0.400000           0   0.00000       0.00000    
     11359 IM1      206      IM1      H7       DUMH      0.00000       1.00800           0   0.00000       0.00000    
     11360 IM1      206      IM1      LPN21    LPD     -0.474000       0.00000          -1   0.00000       0.00000    
     11361 IM1      207      IM1      C1       CD33G     2.39060       11.6110           0  -1.08100       1.00000    
     11362 IM1      207      IM1      DC1      DRUD     -2.55160      0.400000           0   0.00000       0.00000    
     11363 IM1      207      IM1      H1       HDA3A    0.940000E-01   1.00800           0   0.00000       0.00000    
     11364 IM1      207      IM1      H2       HDA3A    0.940000E-01   1.00800           0   0.00000       0.00000    
     11365 IM1      207      IM1      H3       HDA3A    0.940000E-01   1.00800           0   0.00000       0.00000    
     11366 IM1      207      IM1      N1       ND2R5A    2.67030       13.6070           0  -1.06300       1.30000    
     11367 IM1      207      IM1      DN1      DRUD     -2.53030      0.400000           0   0.00000       0.00000    
     11368 IM1      207      IM1      C2       CD2R5A    2.51190       11.6110           0  -1.37800       1.30000    
     11369 IM1      207      IM1      DC2      DRUD     -2.88090      0.400000           0   0.00000       0.00000    
     11370 IM1      207      IM1      H4       HDR5A    0.150000       1.00800           0   0.00000       0.00000    
     11371 IM1      207      IM1      C3       CD2R5A    3.06890       11.6110           0  -1.37800       1.30000    
     11372 IM1      207      IM1      DC3      DRUD     -2.88090      0.400000           0   0.00000       0.00000    
     11373 IM1      207      IM1      H5       HDR5A    0.530000E-01   1.00800           0   0.00000       0.00000    
     11374 IM1      207      IM1      C4       CD2R5B    2.40440       11.6110           0 -0.868000       1.30000    
     11375 IM1      207      IM1      DC4      DRUD     -2.28640      0.400000           0   0.00000       0.00000    
     11376 IM1      207      IM1      H6       HDR5B    0.730000E-01   1.00800           0   0.00000       0.00000    
     11377 IM1      207      IM1      N2       ND2R5B    2.24930       13.6070           0 -0.840000       1.00000    
     11378 IM1      207      IM1      DN2      DRUD     -2.24930      0.400000           0   0.00000       0.00000    
     11379 IM1      207      IM1      H7       DUMH      0.00000       1.00800           0   0.00000       0.00000    
     11380 IM1      207      IM1      LPN21    LPD     -0.474000       0.00000          -1   0.00000       0.00000    
     11381 IM1      208      IM1      C1       CD33G     2.39060       11.6110           0  -1.08100       1.00000    
     11382 IM1      208      IM1      DC1      DRUD     -2.55160      0.400000           0   0.00000       0.00000    
     11383 IM1      208      IM1      H1       HDA3A    0.940000E-01   1.00800           0   0.00000       0.00000    
     11384 IM1      208      IM1      H2       HDA3A    0.940000E-01   1.00800           0   0.00000       0.00000    
     11385 IM1      208      IM1      H3       HDA3A    0.940000E-01   1.00800           0   0.00000       0.00000    
     11386 IM1      208      IM1      N1       ND2R5A    2.67030       13.6070           0  -1.06300       1.30000    
     11387 IM1      208      IM1      DN1      DRUD     -2.53030      0.400000           0   0.00000       0.00000    
     11388 IM1      208      IM1      C2       CD2R5A    2.51190       11.6110           0  -1.37800       1.30000    
     11389 IM1      208      IM1      DC2      DRUD     -2.88090      0.400000           0   0.00000       0.00000    
     11390 IM1      208      IM1      H4       HDR5A    0.150000       1.00800           0   0.00000       0.00000    
     11391 IM1      208      IM1      C3       CD2R5A    3.06890       11.6110           0  -1.37800       1.30000    
     11392 IM1      208      IM1      DC3      DRUD     -2.88090      0.400000           0   0.00000       0.00000    
     11393 IM1      208      IM1      H5       HDR5A    0.530000E-01   1.00800           0   0.00000       0.00000    
     11394 IM1      208      IM1      C4       CD2R5B    2.40440       11.6110           0 -0.868000       1.30000    
     11395 IM1      208      IM1      DC4      DRUD     -2.28640      0.400000           0   0.00000       0.00000    
     11396 IM1      208      IM1      H6       HDR5B    0.730000E-01   1.00800           0   0.00000       0.00000    
     11397 IM1      208      IM1      N2       ND2R5B    2.24930       13.6070           0 -0.840000       1.00000    
     11398 IM1      208      IM1      DN2      DRUD     -2.24930      0.400000           0   0.00000       0.00000    
     11399 IM1      208      IM1      H7       DUMH      0.00000       1.00800           0   0.00000       0.00000    
     11400 IM1      208      IM1      LPN21    LPD     -0.474000       0.00000          -1   0.00000       0.00000    
     11401 IM1      209      IM1      C1       CD33G     2.39060       11.6110           0  -1.08100       1.00000    
     11402 IM1      209      IM1      DC1      DRUD     -2.55160      0.400000           0   0.00000       0.00000    
     11403 IM1      209      IM1      H1       HDA3A    0.940000E-01   1.00800           0   0.00000       0.00000    
     11404 IM1      209      IM1      H2       HDA3A    0.940000E-01   1.00800           0   0.00000       0.00000    
     11405 IM1      209      IM1      H3       HDA3A    0.940000E-01   1.00800           0   0.00000       0.00000    
     11406 IM1      209      IM1      N1       ND2R5A    2.67030       13.6070           0  -1.06300       1.30000    
     11407 IM1      209      IM1      DN1      DRUD     -2.53030      0.400000           0   0.00000       0.00000    
     11408 IM1      209      IM1      C2       CD2R5A    2.51190       11.6110           0  -1.37800       1.30000    
     11409 IM1      209      IM1      DC2      DRUD     -2.88090      0.400000           0   0.00000       0.00000    
     11410 IM1      209      IM1      H4       HDR5A    0.150000       1.00800           0   0.00000       0.00000    
     11411 IM1      209      IM1      C3       CD2R5A    3.06890       11.6110           0  -1.37800       1.30000    
     11412 IM1      209      IM1      DC3      DRUD     -2.88090      0.400000           0   0.00000       0.00000    
     11413 IM1      209      IM1      H5       HDR5A    0.530000E-01   1.00800           0   0.00000       0.00000    
     11414 IM1      209      IM1      C4       CD2R5B    2.40440       11.6110           0 -0.868000       1.30000    
     11415 IM1      209      IM1      DC4      DRUD     -2.28640      0.400000           0   0.00000       0.00000    
     11416 IM1      209      IM1      H6       HDR5B    0.730000E-01   1.00800           0   0.00000       0.00000    
     11417 IM1      209      IM1      N2       ND2R5B    2.24930       13.6070           0 -0.840000       1.00000    
     11418 IM1      209      IM1      DN2      DRUD     -2.24930      0.400000           0   0.00000       0.00000    
     11419 IM1      209      IM1      H7       DUMH      0.00000       1.00800           0   0.00000       0.00000    
     11420 IM1      209      IM1      LPN21    LPD     -0.474000       0.00000          -1   0.00000       0.00000    
     11421 IM1      210      IM1      C1       CD33G     2.39060       11.6110           0  -1.08100       1.00000    
     11422 IM1      210      IM1      DC1      DRUD     -2.55160      0.400000           0   0.00000       0.00000    
     11423 IM1      210      IM1      H1       HDA3A    0.940000E-01   1.00800           0   0.00000       0.00000    
     11424 IM1      210      IM1      H2       HDA3A    0.940000E-01   1.00800           0   0.00000       0.00000    
     11425 IM1      210      IM1      H3       HDA3A    0.940000E-01   1.00800           0   0.00000       0.00000    
     11426 IM1      210      IM1      N1       ND2R5A    2.67030       13.6070           0  -1.06300       1.30000    
     11427 IM1      210      IM1      DN1      DRUD     -2.53030      0.400000           0   0.00000       0.00000    
     11428 IM1      210      IM1      C2       CD2R5A    2.51190       11.6110           0  -1.37800       1.30000    
     11429 IM1      210      IM1      DC2      DRUD     -2.88090      0.400000           0   0.00000       0.00000    
     11430 IM1      210      IM1      H4       HDR5A    0.150000       1.00800           0   0.00000       0.00000    
     11431 IM1      210      IM1      C3       CD2R5A    3.06890       11.6110           0  -1.37800       1.30000    
     11432 IM1      210      IM1      DC3      DRUD     -2.88090      0.400000           0   0.00000       0.00000    
     11433 IM1      210      IM1      H5       HDR5A    0.530000E-01   1.00800           0   0.00000       0.00000    
     11434 IM1      210      IM1      C4       CD2R5B    2.40440       11.6110           0 -0.868000       1.30000    
     11435 IM1      210      IM1      DC4      DRUD     -2.28640      0.400000           0   0.00000       0.00000    
     11436 IM1      210      IM1      H6       HDR5B    0.730000E-01   1.00800           0   0.00000       0.00000    
     11437 IM1      210      IM1      N2       ND2R5B    2.24930       13.6070           0 -0.840000       1.00000    
     11438 IM1      210      IM1      DN2      DRUD     -2.24930      0.400000           0   0.00000       0.00000    
     11439 IM1      210      IM1      H7       DUMH      0.00000       1.00800           0   0.00000       0.00000    
     11440 IM1      210      IM1      LPN21    LPD     -0.474000       0.00000          -1   0.00000       0.00000    
     11441 HOAC     1        HOAC     C1       CD2O3A    3.55420       11.6110           0  -1.20700      0.708000    
     11442 HOAC     1        HOAC     DC1      DRUD     -2.69620      0.400000           0   0.00000       0.00000    
     11443 HOAC     1        HOAC     C2       CD33C     3.26820       11.6110           0  -2.11400      0.750000    
     11444 HOAC     1        HOAC     DC2      DRUD     -3.56820      0.400000           0   0.00000       0.00000    
     11445 HOAC     1        HOAC     H1       HDA3A    0.920000E-01   1.00800           0   0.00000       0.00000    
     11446 HOAC     1        HOAC     H2       HDA3A    0.920000E-01   1.00800           0   0.00000       0.00000    
     11447 HOAC     1        HOAC     H3       HDA3A    0.920000E-01   1.00800           0   0.00000       0.00000    
     11448 HOAC     1        HOAC     O1       OD2C3A    2.35650       15.5994           0 -0.922000       1.53900    
     11449 HOAC     1        HOAC     DO1      DRUD     -2.35650      0.400000           0   0.00000       0.00000    
     11450 HOAC     1        HOAC     O2       OD31F     2.77650       15.5990           0  -1.28000       1.12400    
     11451 HOAC     1        HOAC     DO2      DRUD     -2.77650      0.400000           0   0.00000       0.00000    
     11452 HOAC     1        HOAC     H        HDP1A    0.374000       1.00800           0   0.00000       0.00000    
     11453 HOAC     1        HOAC     LPO11    LPD     -0.319000       0.00000          -1   0.00000       0.00000    
     11454 HOAC     1        HOAC     LPO12    LPD     -0.319000       0.00000          -1   0.00000       0.00000    
     11455 HOAC     1        HOAC     LPO21    LPD     -0.285000       0.00000          -1   0.00000       0.00000    
     11456 HOAC     1        HOAC     LPO22    LPD     -0.285000       0.00000          -1   0.00000       0.00000    
     11457 HOAC     2        HOAC     C1       CD2O3A    3.55420       11.6110           0  -1.20700      0.708000    
     11458 HOAC     2        HOAC     DC1      DRUD     -2.69620      0.400000           0   0.00000       0.00000    
     11459 HOAC     2        HOAC     C2       CD33C     3.26820       11.6110           0  -2.11400      0.750000    
     11460 HOAC     2        HOAC     DC2      DRUD     -3.56820      0.400000           0   0.00000       0.00000    
     11461 HOAC     2        HOAC     H1       HDA3A    0.920000E-01   1.00800           0   0.00000       0.00000    
     11462 HOAC     2        HOAC     H2       HDA3A    0.920000E-01   1.00800           0   0.00000       0.00000    
     11463 HOAC     2        HOAC     H3       HDA3A    0.920000E-01   1.00800           0   0.00000       0.00000    
     11464 HOAC     2        HOAC     O1       OD2C3A    2.35650       15.5994           0 -0.922000       1.53900    
     11465 HOAC     2        HOAC     DO1      DRUD     -2.35650      0.400000           0   0.00000       0.00000    
     11466 HOAC     2        HOAC     O2       OD31F     2.77650       15.5990           0  -1.28000       1.12400    
     11467 HOAC     2        HOAC     DO2      DRUD     -2.77650      0.400000           0   0.00000       0.00000    
     11468 HOAC     2        HOAC     H        HDP1A    0.374000       1.00800           0   0.00000       0.00000    
     11469 HOAC     2        HOAC     LPO11    LPD     -0.319000       0.00000          -1   0.00000       0.00000    
     11470 HOAC     2        HOAC     LPO12    LPD     -0.319000       0.00000          -1   0.00000       0.00000    
     11471 HOAC     2        HOAC     LPO21    LPD     -0.285000       0.00000          -1   0.00000       0.00000    
     11472 HOAC     2        HOAC     LPO22    LPD     -0.285000       0.00000          -1   0.00000       0.00000    
     11473 HOAC     3        HOAC     C1       CD2O3A    3.55420       11.6110           0  -1.20700      0.708000    
     11474 HOAC     3        HOAC     DC1      DRUD     -2.69620      0.400000           0   0.00000       0.00000    
     11475 HOAC     3        HOAC     C2       CD33C     3.26820       11.6110           0  -2.11400      0.750000    
     11476 HOAC     3        HOAC     DC2      DRUD     -3.56820      0.400000           0   0.00000       0.00000    
     11477 HOAC     3        HOAC     H1       HDA3A    0.920000E-01   1.00800           0   0.00000       0.00000    
     11478 HOAC     3        HOAC     H2       HDA3A    0.920000E-01   1.00800           0   0.00000       0.00000    
     11479 HOAC     3        HOAC     H3       HDA3A    0.920000E-01   1.00800           0   0.00000       0.00000    
     11480 HOAC     3        HOAC     O1       OD2C3A    2.35650       15.5994           0 -0.922000       1.53900    
     11481 HOAC     3        HOAC     DO1      DRUD     -2.35650      0.400000           0   0.00000       0.00000    
     11482 HOAC     3        HOAC     O2       OD31F     2.77650       15.5990           0  -1.28000       1.12400    
     11483 HOAC     3        HOAC     DO2      DRUD     -2.77650      0.400000           0   0.00000       0.00000    
     11484 HOAC     3        HOAC     H        HDP1A    0.374000       1.00800           0   0.00000       0.00000    
     11485 HOAC     3        HOAC     LPO11    LPD     -0.319000       0.00000          -1   0.00000       0.00000    
     11486 HOAC     3        HOAC     LPO12    LPD     -0.319000       0.00000          -1   0.00000       0.00000    
     11487 HOAC     3        HOAC     LPO21    LPD     -0.285000       0.00000          -1   0.00000       0.00000    
     11488 HOAC     3        HOAC     LPO22    LPD     -0.285000       0.00000          -1   0.00000       0.00000    
     11489 HOAC     4        HOAC     C1       CD2O3A    3.55420       11.6110           0  -1.20700      0.708000    
     11490 HOAC     4        HOAC     DC1      DRUD     -2.69620      0.400000           0   0.00000       0.00000    
     11491 HOAC     4        HOAC     C2       CD33C     3.26820       11.6110           0  -2.11400      0.750000    
     11492 HOAC     4        HOAC     DC2      DRUD     -3.56820      0.400000           0   0.00000       0.00000    
     11493 HOAC     4        HOAC     H1       HDA3A    0.920000E-01   1.00800           0   0.00000       0.00000    
     11494 HOAC     4        HOAC     H2       HDA3A    0.920000E-01   1.00800           0   0.00000       0.00000    
     11495 HOAC     4        HOAC     H3       HDA3A    0.920000E-01   1.00800           0   0.00000       0.00000    
     11496 HOAC     4        HOAC     O1       OD2C3A    2.35650       15.5994           0 -0.922000       1.53900    
     11497 HOAC     4        HOAC     DO1      DRUD     -2.35650      0.400000           0   0.00000       0.00000    
     11498 HOAC     4        HOAC     O2       OD31F     2.77650       15.5990           0  -1.28000       1.12400    
     11499 HOAC     4        HOAC     DO2      DRUD     -2.77650      0.400000           0   0.00000       0.00000    
     11500 HOAC     4        HOAC     H        HDP1A    0.374000       1.00800           0   0.00000       0.00000    
     11501 HOAC     4        HOAC     LPO11    LPD     -0.319000       0.00000          -1   0.00000       0.00000    
     11502 HOAC     4        HOAC     LPO12    LPD     -0.319000       0.00000          -1   0.00000       0.00000    
     11503 HOAC     4        HOAC     LPO21    LPD     -0.285000       0.00000          -1   0.00000       0.00000    
     11504 HOAC     4        HOAC     LPO22    LPD     -0.285000       0.00000          -1   0.00000       0.00000    
     11505 HOAC     5        HOAC     C1       CD2O3A    3.55420       11.6110           0  -1.20700      0.708000    
     11506 HOAC     5        HOAC     DC1      DRUD     -2.69620      0.400000           0   0.00000       0.00000    
     11507 HOAC     5        HOAC     C2       CD33C     3.26820       11.6110           0  -2.11400      0.750000    
     11508 HOAC     5        HOAC     DC2      DRUD     -3.56820      0.400000           0   0.00000       0.00000    
     11509 HOAC     5        HOAC     H1       HDA3A    0.920000E-01   1.00800           0   0.00000       0.00000    
     11510 HOAC     5        HOAC     H2       HDA3A    0.920000E-01   1.00800           0   0.00000       0.00000    
     11511 HOAC     5        HOAC     H3       HDA3A    0.920000E-01   1.00800           0   0.00000       0.00000    
     11512 HOAC     5        HOAC     O1       OD2C3A    2.35650       15.5994           0 -0.922000       1.53900    
     11513 HOAC     5        HOAC     DO1      DRUD     -2.35650      0.400000           0   0.00000       0.00000    
     11514 HOAC     5        HOAC     O2       OD31F     2.77650       15.5990           0  -1.28000       1.12400    
     11515 HOAC     5        HOAC     DO2      DRUD     -2.77650      0.400000           0   0.00000       0.00000    
     11516 HOAC     5        HOAC     H        HDP1A    0.374000       1.00800           0   0.00000       0.00000    
     11517 HOAC     5        HOAC     LPO11    LPD     -0.319000       0.00000          -1   0.00000       0.00000    
     11518 HOAC     5        HOAC     LPO12    LPD     -0.319000       0.00000          -1   0.00000       0.00000    
     11519 HOAC     5        HOAC     LPO21    LPD     -0.285000       0.00000          -1   0.00000       0.00000    
     11520 HOAC     5        HOAC     LPO22    LPD     -0.285000       0.00000          -1   0.00000       0.00000    
     11521 HOAC     6        HOAC     C1       CD2O3A    3.55420       11.6110           0  -1.20700      0.708000    
     11522 HOAC     6        HOAC     DC1      DRUD     -2.69620      0.400000           0   0.00000       0.00000    
     11523 HOAC     6        HOAC     C2       CD33C     3.26820       11.6110           0  -2.11400      0.750000    
     11524 HOAC     6        HOAC     DC2      DRUD     -3.56820      0.400000           0   0.00000       0.00000    
     11525 HOAC     6        HOAC     H1       HDA3A    0.920000E-01   1.00800           0   0.00000       0.00000    
     11526 HOAC     6        HOAC     H2       HDA3A    0.920000E-01   1.00800           0   0.00000       0.00000    
     11527 HOAC     6        HOAC     H3       HDA3A    0.920000E-01   1.00800           0   0.00000       0.00000    
     11528 HOAC     6        HOAC     O1       OD2C3A    2.35650       15.5994           0 -0.922000       1.53900    
     11529 HOAC     6        HOAC     DO1      DRUD     -2.35650      0.400000           0   0.00000       0.00000    
     11530 HOAC     6        HOAC     O2       OD31F     2.77650       15.5990           0  -1.28000       1.12400    
     11531 HOAC     6        HOAC     DO2      DRUD     -2.77650      0.400000           0   0.00000       0.00000    
     11532 HOAC     6        HOAC     H        HDP1A    0.374000       1.00800           0   0.00000       0.00000    
     11533 HOAC     6        HOAC     LPO11    LPD     -0.319000       0.00000          -1   0.00000       0.00000    
     11534 HOAC     6        HOAC     LPO12    LPD     -0.319000       0.00000          -1   0.00000       0.00000    
     11535 HOAC     6        HOAC     LPO21    LPD     -0.285000       0.00000          -1   0.00000       0.00000    
     11536 HOAC     6        HOAC     LPO22    LPD     -0.285000       0.00000          -1   0.00000       0.00000    
     11537 HOAC     7        HOAC     C1       CD2O3A    3.55420       11.6110           0  -1.20700      0.708000    
     11538 HOAC     7        HOAC     DC1      DRUD     -2.69620      0.400000           0   0.00000       0.00000    
     11539 HOAC     7        HOAC     C2       CD33C     3.26820       11.6110           0  -2.11400      0.750000    
     11540 HOAC     7        HOAC     DC2      DRUD     -3.56820      0.400000           0   0.00000       0.00000    
     11541 HOAC     7        HOAC     H1       HDA3A    0.920000E-01   1.00800           0   0.00000       0.00000    
     11542 HOAC     7        HOAC     H2       HDA3A    0.920000E-01   1.00800           0   0.00000       0.00000    
     11543 HOAC     7        HOAC     H3       HDA3A    0.920000E-01   1.00800           0   0.00000       0.00000    
     11544 HOAC     7        HOAC     O1       OD2C3A    2.35650       15.5994           0 -0.922000       1.53900    
     11545 HOAC     7        HOAC     DO1      DRUD     -2.35650      0.400000           0   0.00000       0.00000    
     11546 HOAC     7        HOAC     O2       OD31F     2.77650       15.5990           0  -1.28000       1.12400    
     11547 HOAC     7        HOAC     DO2      DRUD     -2.77650      0.400000           0   0.00000       0.00000    
     11548 HOAC     7        HOAC     H        HDP1A    0.374000       1.00800           0   0.00000       0.00000    
     11549 HOAC     7        HOAC     LPO11    LPD     -0.319000       0.00000          -1   0.00000       0.00000    
     11550 HOAC     7        HOAC     LPO12    LPD     -0.319000       0.00000          -1   0.00000       0.00000    
     11551 HOAC     7        HOAC     LPO21    LPD     -0.285000       0.00000          -1   0.00000       0.00000    
     11552 HOAC     7        HOAC     LPO22    LPD     -0.285000       0.00000          -1   0.00000       0.00000    
     11553 HOAC     8        HOAC     C1       CD2O3A    3.55420       11.6110           0  -1.20700      0.708000    
     11554 HOAC     8        HOAC     DC1      DRUD     -2.69620      0.400000           0   0.00000       0.00000    
     11555 HOAC     8        HOAC     C2       CD33C     3.26820       11.6110           0  -2.11400      0.750000    
     11556 HOAC     8        HOAC     DC2      DRUD     -3.56820      0.400000           0   0.00000       0.00000    
     11557 HOAC     8        HOAC     H1       HDA3A    0.920000E-01   1.00800           0   0.00000       0.00000    
     11558 HOAC     8        HOAC     H2       HDA3A    0.920000E-01   1.00800           0   0.00000       0.00000    
     11559 HOAC     8        HOAC     H3       HDA3A    0.920000E-01   1.00800           0   0.00000       0.00000    
     11560 HOAC     8        HOAC     O1       OD2C3A    2.35650       15.5994           0 -0.922000       1.53900    
     11561 HOAC     8        HOAC     DO1      DRUD     -2.35650      0.400000           0   0.00000       0.00000    
     11562 HOAC     8        HOAC     O2       OD31F     2.77650       15.5990           0  -1.28000       1.12400    
     11563 HOAC     8        HOAC     DO2      DRUD     -2.77650      0.400000           0   0.00000       0.00000    
     11564 HOAC     8        HOAC     H        HDP1A    0.374000       1.00800           0   0.00000       0.00000    
     11565 HOAC     8        HOAC     LPO11    LPD     -0.319000       0.00000          -1   0.00000       0.00000    
     11566 HOAC     8        HOAC     LPO12    LPD     -0.319000       0.00000          -1   0.00000       0.00000    
     11567 HOAC     8        HOAC     LPO21    LPD     -0.285000       0.00000          -1   0.00000       0.00000    
     11568 HOAC     8        HOAC     LPO22    LPD     -0.285000       0.00000          -1   0.00000       0.00000    
     11569 HOAC     9        HOAC     C1       CD2O3A    3.55420       11.6110           0  -1.20700      0.708000    
     11570 HOAC     9        HOAC     DC1      DRUD     -2.69620      0.400000           0   0.00000       0.00000    
     11571 HOAC     9        HOAC     C2       CD33C     3.26820       11.6110           0  -2.11400      0.750000    
     11572 HOAC     9        HOAC     DC2      DRUD     -3.56820      0.400000           0   0.00000       0.00000    
     11573 HOAC     9        HOAC     H1       HDA3A    0.920000E-01   1.00800           0   0.00000       0.00000    
     11574 HOAC     9        HOAC     H2       HDA3A    0.920000E-01   1.00800           0   0.00000       0.00000    
     11575 HOAC     9        HOAC     H3       HDA3A    0.920000E-01   1.00800           0   0.00000       0.00000    
     11576 HOAC     9        HOAC     O1       OD2C3A    2.35650       15.5994           0 -0.922000       1.53900    
     11577 HOAC     9        HOAC     DO1      DRUD     -2.35650      0.400000           0   0.00000       0.00000    
     11578 HOAC     9        HOAC     O2       OD31F     2.77650       15.5990           0  -1.28000       1.12400    
     11579 HOAC     9        HOAC     DO2      DRUD     -2.77650      0.400000           0   0.00000       0.00000    
     11580 HOAC     9        HOAC     H        HDP1A    0.374000       1.00800           0   0.00000       0.00000    
     11581 HOAC     9        HOAC     LPO11    LPD     -0.319000       0.00000          -1   0.00000       0.00000    
     11582 HOAC     9        HOAC     LPO12    LPD     -0.319000       0.00000          -1   0.00000       0.00000    
     11583 HOAC     9        HOAC     LPO21    LPD     -0.285000       0.00000          -1   0.00000       0.00000    
     11584 HOAC     9        HOAC     LPO22    LPD     -0.285000       0.00000          -1   0.00000       0.00000    
     11585 HOAC     10       HOAC     C1       CD2O3A    3.55420       11.6110           0  -1.20700      0.708000    
     11586 HOAC     10       HOAC     DC1      DRUD     -2.69620      0.400000           0   0.00000       0.00000    
     11587 HOAC     10       HOAC     C2       CD33C     3.26820       11.6110           0  -2.11400      0.750000    
     11588 HOAC     10       HOAC     DC2      DRUD     -3.56820      0.400000           0   0.00000       0.00000    
     11589 HOAC     10       HOAC     H1       HDA3A    0.920000E-01   1.00800           0   0.00000       0.00000    
     11590 HOAC     10       HOAC     H2       HDA3A    0.920000E-01   1.00800           0   0.00000       0.00000    
     11591 HOAC     10       HOAC     H3       HDA3A    0.920000E-01   1.00800           0   0.00000       0.00000    
     11592 HOAC     10       HOAC     O1       OD2C3A    2.35650       15.5994           0 -0.922000       1.53900    
     11593 HOAC     10       HOAC     DO1      DRUD     -2.35650      0.400000           0   0.00000       0.00000    
     11594 HOAC     10       HOAC     O2       OD31F     2.77650       15.5990           0  -1.28000       1.12400    
     11595 HOAC     10       HOAC     DO2      DRUD     -2.77650      0.400000           0   0.00000       0.00000    
     11596 HOAC     10       HOAC     H        HDP1A    0.374000       1.00800           0   0.00000       0.00000    
     11597 HOAC     10       HOAC     LPO11    LPD     -0.319000       0.00000          -1   0.00000       0.00000    
     11598 HOAC     10       HOAC     LPO12    LPD     -0.319000       0.00000          -1   0.00000       0.00000    
     11599 HOAC     10       HOAC     LPO21    LPD     -0.285000       0.00000          -1   0.00000       0.00000    
     11600 HOAC     10       HOAC     LPO22    LPD     -0.285000       0.00000          -1   0.00000       0.00000    
     11601 HOAC     11       HOAC     C1       CD2O3A    3.55420       11.6110           0  -1.20700      0.708000    
     11602 HOAC     11       HOAC     DC1      DRUD     -2.69620      0.400000           0   0.00000       0.00000    
     11603 HOAC     11       HOAC     C2       CD33C     3.26820       11.6110           0  -2.11400      0.750000    
     11604 HOAC     11       HOAC     DC2      DRUD     -3.56820      0.400000           0   0.00000       0.00000    
     11605 HOAC     11       HOAC     H1       HDA3A    0.920000E-01   1.00800           0   0.00000       0.00000    
     11606 HOAC     11       HOAC     H2       HDA3A    0.920000E-01   1.00800           0   0.00000       0.00000    
     11607 HOAC     11       HOAC     H3       HDA3A    0.920000E-01   1.00800           0   0.00000       0.00000    
     11608 HOAC     11       HOAC     O1       OD2C3A    2.35650       15.5994           0 -0.922000       1.53900    
     11609 HOAC     11       HOAC     DO1      DRUD     -2.35650      0.400000           0   0.00000       0.00000    
     11610 HOAC     11       HOAC     O2       OD31F     2.77650       15.5990           0  -1.28000       1.12400    
     11611 HOAC     11       HOAC     DO2      DRUD     -2.77650      0.400000           0   0.00000       0.00000    
     11612 HOAC     11       HOAC     H        HDP1A    0.374000       1.00800           0   0.00000       0.00000    
     11613 HOAC     11       HOAC     LPO11    LPD     -0.319000       0.00000          -1   0.00000       0.00000    
     11614 HOAC     11       HOAC     LPO12    LPD     -0.319000       0.00000          -1   0.00000       0.00000    
     11615 HOAC     11       HOAC     LPO21    LPD     -0.285000       0.00000          -1   0.00000       0.00000    
     11616 HOAC     11       HOAC     LPO22    LPD     -0.285000       0.00000          -1   0.00000       0.00000    
     11617 HOAC     12       HOAC     C1       CD2O3A    3.55420       11.6110           0  -1.20700      0.708000    
     11618 HOAC     12       HOAC     DC1      DRUD     -2.69620      0.400000           0   0.00000       0.00000    
     11619 HOAC     12       HOAC     C2       CD33C     3.26820       11.6110           0  -2.11400      0.750000    
     11620 HOAC     12       HOAC     DC2      DRUD     -3.56820      0.400000           0   0.00000       0.00000    
     11621 HOAC     12       HOAC     H1       HDA3A    0.920000E-01   1.00800           0   0.00000       0.00000    
     11622 HOAC     12       HOAC     H2       HDA3A    0.920000E-01   1.00800           0   0.00000       0.00000    
     11623 HOAC     12       HOAC     H3       HDA3A    0.920000E-01   1.00800           0   0.00000       0.00000    
     11624 HOAC     12       HOAC     O1       OD2C3A    2.35650       15.5994           0 -0.922000       1.53900    
     11625 HOAC     12       HOAC     DO1      DRUD     -2.35650      0.400000           0   0.00000       0.00000    
     11626 HOAC     12       HOAC     O2       OD31F     2.77650       15.5990           0  -1.28000       1.12400    
     11627 HOAC     12       HOAC     DO2      DRUD     -2.77650      0.400000           0   0.00000       0.00000    
     11628 HOAC     12       HOAC     H        HDP1A    0.374000       1.00800           0   0.00000       0.00000    
     11629 HOAC     12       HOAC     LPO11    LPD     -0.319000       0.00000          -1   0.00000       0.00000    
     11630 HOAC     12       HOAC     LPO12    LPD     -0.319000       0.00000          -1   0.00000       0.00000    
     11631 HOAC     12       HOAC     LPO21    LPD     -0.285000       0.00000          -1   0.00000       0.00000    
     11632 HOAC     12       HOAC     LPO22    LPD     -0.285000       0.00000          -1   0.00000       0.00000    
     11633 HOAC     13       HOAC     C1       CD2O3A    3.55420       11.6110           0  -1.20700      0.708000    
     11634 HOAC     13       HOAC     DC1      DRUD     -2.69620      0.400000           0   0.00000       0.00000    
     11635 HOAC     13       HOAC     C2       CD33C     3.26820       11.6110           0  -2.11400      0.750000    
     11636 HOAC     13       HOAC     DC2      DRUD     -3.56820      0.400000           0   0.00000       0.00000    
     11637 HOAC     13       HOAC     H1       HDA3A    0.920000E-01   1.00800           0   0.00000       0.00000    
     11638 HOAC     13       HOAC     H2       HDA3A    0.920000E-01   1.00800           0   0.00000       0.00000    
     11639 HOAC     13       HOAC     H3       HDA3A    0.920000E-01   1.00800           0   0.00000       0.00000    
     11640 HOAC     13       HOAC     O1       OD2C3A    2.35650       15.5994           0 -0.922000       1.53900    
     11641 HOAC     13       HOAC     DO1      DRUD     -2.35650      0.400000           0   0.00000       0.00000    
     11642 HOAC     13       HOAC     O2       OD31F     2.77650       15.5990           0  -1.28000       1.12400    
     11643 HOAC     13       HOAC     DO2      DRUD     -2.77650      0.400000           0   0.00000       0.00000    
     11644 HOAC     13       HOAC     H        HDP1A    0.374000       1.00800           0   0.00000       0.00000    
     11645 HOAC     13       HOAC     LPO11    LPD     -0.319000       0.00000          -1   0.00000       0.00000    
     11646 HOAC     13       HOAC     LPO12    LPD     -0.319000       0.00000          -1   0.00000       0.00000    
     11647 HOAC     13       HOAC     LPO21    LPD     -0.285000       0.00000          -1   0.00000       0.00000    
     11648 HOAC     13       HOAC     LPO22    LPD     -0.285000       0.00000          -1   0.00000       0.00000    
     11649 HOAC     14       HOAC     C1       CD2O3A    3.55420       11.6110           0  -1.20700      0.708000    
     11650 HOAC     14       HOAC     DC1      DRUD     -2.69620      0.400000           0   0.00000       0.00000    
     11651 HOAC     14       HOAC     C2       CD33C     3.26820       11.6110           0  -2.11400      0.750000    
     11652 HOAC     14       HOAC     DC2      DRUD     -3.56820      0.400000           0   0.00000       0.00000    
     11653 HOAC     14       HOAC     H1       HDA3A    0.920000E-01   1.00800           0   0.00000       0.00000    
     11654 HOAC     14       HOAC     H2       HDA3A    0.920000E-01   1.00800           0   0.00000       0.00000    
     11655 HOAC     14       HOAC     H3       HDA3A    0.920000E-01   1.00800           0   0.00000       0.00000    
     11656 HOAC     14       HOAC     O1       OD2C3A    2.35650       15.5994           0 -0.922000       1.53900    
     11657 HOAC     14       HOAC     DO1      DRUD     -2.35650      0.400000           0   0.00000       0.00000    
     11658 HOAC     14       HOAC     O2       OD31F     2.77650       15.5990           0  -1.28000       1.12400    
     11659 HOAC     14       HOAC     DO2      DRUD     -2.77650      0.400000           0   0.00000       0.00000    
     11660 HOAC     14       HOAC     H        HDP1A    0.374000       1.00800           0   0.00000       0.00000    
     11661 HOAC     14       HOAC     LPO11    LPD     -0.319000       0.00000          -1   0.00000       0.00000    
     11662 HOAC     14       HOAC     LPO12    LPD     -0.319000       0.00000          -1   0.00000       0.00000    
     11663 HOAC     14       HOAC     LPO21    LPD     -0.285000       0.00000          -1   0.00000       0.00000    
     11664 HOAC     14       HOAC     LPO22    LPD     -0.285000       0.00000          -1   0.00000       0.00000    
     11665 HOAC     15       HOAC     C1       CD2O3A    3.55420       11.6110           0  -1.20700      0.708000    
     11666 HOAC     15       HOAC     DC1      DRUD     -2.69620      0.400000           0   0.00000       0.00000    
     11667 HOAC     15       HOAC     C2       CD33C     3.26820       11.6110           0  -2.11400      0.750000    
     11668 HOAC     15       HOAC     DC2      DRUD     -3.56820      0.400000           0   0.00000       0.00000    
     11669 HOAC     15       HOAC     H1       HDA3A    0.920000E-01   1.00800           0   0.00000       0.00000    
     11670 HOAC     15       HOAC     H2       HDA3A    0.920000E-01   1.00800           0   0.00000       0.00000    
     11671 HOAC     15       HOAC     H3       HDA3A    0.920000E-01   1.00800           0   0.00000       0.00000    
     11672 HOAC     15       HOAC     O1       OD2C3A    2.35650       15.5994           0 -0.922000       1.53900    
     11673 HOAC     15       HOAC     DO1      DRUD     -2.35650      0.400000           0   0.00000       0.00000    
     11674 HOAC     15       HOAC     O2       OD31F     2.77650       15.5990           0  -1.28000       1.12400    
     11675 HOAC     15       HOAC     DO2      DRUD     -2.77650      0.400000           0   0.00000       0.00000    
     11676 HOAC     15       HOAC     H        HDP1A    0.374000       1.00800           0   0.00000       0.00000    
     11677 HOAC     15       HOAC     LPO11    LPD     -0.319000       0.00000          -1   0.00000       0.00000    
     11678 HOAC     15       HOAC     LPO12    LPD     -0.319000       0.00000          -1   0.00000       0.00000    
     11679 HOAC     15       HOAC     LPO21    LPD     -0.285000       0.00000          -1   0.00000       0.00000    
     11680 HOAC     15       HOAC     LPO22    LPD     -0.285000       0.00000          -1   0.00000       0.00000    
     11681 HOAC     16       HOAC     C1       CD2O3A    3.55420       11.6110           0  -1.20700      0.708000    
     11682 HOAC     16       HOAC     DC1      DRUD     -2.69620      0.400000           0   0.00000       0.00000    
     11683 HOAC     16       HOAC     C2       CD33C     3.26820       11.6110           0  -2.11400      0.750000    
     11684 HOAC     16       HOAC     DC2      DRUD     -3.56820      0.400000           0   0.00000       0.00000    
     11685 HOAC     16       HOAC     H1       HDA3A    0.920000E-01   1.00800           0   0.00000       0.00000    
     11686 HOAC     16       HOAC     H2       HDA3A    0.920000E-01   1.00800           0   0.00000       0.00000    
     11687 HOAC     16       HOAC     H3       HDA3A    0.920000E-01   1.00800           0   0.00000       0.00000    
     11688 HOAC     16       HOAC     O1       OD2C3A    2.35650       15.5994           0 -0.922000       1.53900    
     11689 HOAC     16       HOAC     DO1      DRUD     -2.35650      0.400000           0   0.00000       0.00000    
     11690 HOAC     16       HOAC     O2       OD31F     2.77650       15.5990           0  -1.28000       1.12400    
     11691 HOAC     16       HOAC     DO2      DRUD     -2.77650      0.400000           0   0.00000       0.00000    
     11692 HOAC     16       HOAC     H        HDP1A    0.374000       1.00800           0   0.00000       0.00000    
     11693 HOAC     16       HOAC     LPO11    LPD     -0.319000       0.00000          -1   0.00000       0.00000    
     11694 HOAC     16       HOAC     LPO12    LPD     -0.319000       0.00000          -1   0.00000       0.00000    
     11695 HOAC     16       HOAC     LPO21    LPD     -0.285000       0.00000          -1   0.00000       0.00000    
     11696 HOAC     16       HOAC     LPO22    LPD     -0.285000       0.00000          -1   0.00000       0.00000    
     11697 HOAC     17       HOAC     C1       CD2O3A    3.55420       11.6110           0  -1.20700      0.708000    
     11698 HOAC     17       HOAC     DC1      DRUD     -2.69620      0.400000           0   0.00000       0.00000    
     11699 HOAC     17       HOAC     C2       CD33C     3.26820       11.6110           0  -2.11400      0.750000    
     11700 HOAC     17       HOAC     DC2      DRUD     -3.56820      0.400000           0   0.00000       0.00000    
     11701 HOAC     17       HOAC     H1       HDA3A    0.920000E-01   1.00800           0   0.00000       0.00000    
     11702 HOAC     17       HOAC     H2       HDA3A    0.920000E-01   1.00800           0   0.00000       0.00000    
     11703 HOAC     17       HOAC     H3       HDA3A    0.920000E-01   1.00800           0   0.00000       0.00000    
     11704 HOAC     17       HOAC     O1       OD2C3A    2.35650       15.5994           0 -0.922000       1.53900    
     11705 HOAC     17       HOAC     DO1      DRUD     -2.35650      0.400000           0   0.00000       0.00000    
     11706 HOAC     17       HOAC     O2       OD31F     2.77650       15.5990           0  -1.28000       1.12400    
     11707 HOAC     17       HOAC     DO2      DRUD     -2.77650      0.400000           0   0.00000       0.00000    
     11708 HOAC     17       HOAC     H        HDP1A    0.374000       1.00800           0   0.00000       0.00000    
     11709 HOAC     17       HOAC     LPO11    LPD     -0.319000       0.00000          -1   0.00000       0.00000    
     11710 HOAC     17       HOAC     LPO12    LPD     -0.319000       0.00000          -1   0.00000       0.00000    
     11711 HOAC     17       HOAC     LPO21    LPD     -0.285000       0.00000          -1   0.00000       0.00000    
     11712 HOAC     17       HOAC     LPO22    LPD     -0.285000       0.00000          -1   0.00000       0.00000    
     11713 HOAC     18       HOAC     C1       CD2O3A    3.55420       11.6110           0  -1.20700      0.708000    
     11714 HOAC     18       HOAC     DC1      DRUD     -2.69620      0.400000           0   0.00000       0.00000    
     11715 HOAC     18       HOAC     C2       CD33C     3.26820       11.6110           0  -2.11400      0.750000    
     11716 HOAC     18       HOAC     DC2      DRUD     -3.56820      0.400000           0   0.00000       0.00000    
     11717 HOAC     18       HOAC     H1       HDA3A    0.920000E-01   1.00800           0   0.00000       0.00000    
     11718 HOAC     18       HOAC     H2       HDA3A    0.920000E-01   1.00800           0   0.00000       0.00000    
     11719 HOAC     18       HOAC     H3       HDA3A    0.920000E-01   1.00800           0   0.00000       0.00000    
     11720 HOAC     18       HOAC     O1       OD2C3A    2.35650       15.5994           0 -0.922000       1.53900    
     11721 HOAC     18       HOAC     DO1      DRUD     -2.35650      0.400000           0   0.00000       0.00000    
     11722 HOAC     18       HOAC     O2       OD31F     2.77650       15.5990           0  -1.28000       1.12400    
     11723 HOAC     18       HOAC     DO2      DRUD     -2.77650      0.400000           0   0.00000       0.00000    
     11724 HOAC     18       HOAC     H        HDP1A    0.374000       1.00800           0   0.00000       0.00000    
     11725 HOAC     18       HOAC     LPO11    LPD     -0.319000       0.00000          -1   0.00000       0.00000    
     11726 HOAC     18       HOAC     LPO12    LPD     -0.319000       0.00000          -1   0.00000       0.00000    
     11727 HOAC     18       HOAC     LPO21    LPD     -0.285000       0.00000          -1   0.00000       0.00000    
     11728 HOAC     18       HOAC     LPO22    LPD     -0.285000       0.00000          -1   0.00000       0.00000    
     11729 HOAC     19       HOAC     C1       CD2O3A    3.55420       11.6110           0  -1.20700      0.708000    
     11730 HOAC     19       HOAC     DC1      DRUD     -2.69620      0.400000           0   0.00000       0.00000    
     11731 HOAC     19       HOAC     C2       CD33C     3.26820       11.6110           0  -2.11400      0.750000    
     11732 HOAC     19       HOAC     DC2      DRUD     -3.56820      0.400000           0   0.00000       0.00000    
     11733 HOAC     19       HOAC     H1       HDA3A    0.920000E-01   1.00800           0   0.00000       0.00000    
     11734 HOAC     19       HOAC     H2       HDA3A    0.920000E-01   1.00800           0   0.00000       0.00000    
     11735 HOAC     19       HOAC     H3       HDA3A    0.920000E-01   1.00800           0   0.00000       0.00000    
     11736 HOAC     19       HOAC     O1       OD2C3A    2.35650       15.5994           0 -0.922000       1.53900    
     11737 HOAC     19       HOAC     DO1      DRUD     -2.35650      0.400000           0   0.00000       0.00000    
     11738 HOAC     19       HOAC     O2       OD31F     2.77650       15.5990           0  -1.28000       1.12400    
     11739 HOAC     19       HOAC     DO2      DRUD     -2.77650      0.400000           0   0.00000       0.00000    
     11740 HOAC     19       HOAC     H        HDP1A    0.374000       1.00800           0   0.00000       0.00000    
     11741 HOAC     19       HOAC     LPO11    LPD     -0.319000       0.00000          -1   0.00000       0.00000    
     11742 HOAC     19       HOAC     LPO12    LPD     -0.319000       0.00000          -1   0.00000       0.00000    
     11743 HOAC     19       HOAC     LPO21    LPD     -0.285000       0.00000          -1   0.00000       0.00000    
     11744 HOAC     19       HOAC     LPO22    LPD     -0.285000       0.00000          -1   0.00000       0.00000    
     11745 HOAC     20       HOAC     C1       CD2O3A    3.55420       11.6110           0  -1.20700      0.708000    
     11746 HOAC     20       HOAC     DC1      DRUD     -2.69620      0.400000           0   0.00000       0.00000    
     11747 HOAC     20       HOAC     C2       CD33C     3.26820       11.6110           0  -2.11400      0.750000    
     11748 HOAC     20       HOAC     DC2      DRUD     -3.56820      0.400000           0   0.00000       0.00000    
     11749 HOAC     20       HOAC     H1       HDA3A    0.920000E-01   1.00800           0   0.00000       0.00000    
     11750 HOAC     20       HOAC     H2       HDA3A    0.920000E-01   1.00800           0   0.00000       0.00000    
     11751 HOAC     20       HOAC     H3       HDA3A    0.920000E-01   1.00800           0   0.00000       0.00000    
     11752 HOAC     20       HOAC     O1       OD2C3A    2.35650       15.5994           0 -0.922000       1.53900    
     11753 HOAC     20       HOAC     DO1      DRUD     -2.35650      0.400000           0   0.00000       0.00000    
     11754 HOAC     20       HOAC     O2       OD31F     2.77650       15.5990           0  -1.28000       1.12400    
     11755 HOAC     20       HOAC     DO2      DRUD     -2.77650      0.400000           0   0.00000       0.00000    
     11756 HOAC     20       HOAC     H        HDP1A    0.374000       1.00800           0   0.00000       0.00000    
     11757 HOAC     20       HOAC     LPO11    LPD     -0.319000       0.00000          -1   0.00000       0.00000    
     11758 HOAC     20       HOAC     LPO12    LPD     -0.319000       0.00000          -1   0.00000       0.00000    
     11759 HOAC     20       HOAC     LPO21    LPD     -0.285000       0.00000          -1   0.00000       0.00000    
     11760 HOAC     20       HOAC     LPO22    LPD     -0.285000       0.00000          -1   0.00000       0.00000    
     11761 HOAC     21       HOAC     C1       CD2O3A    3.55420       11.6110           0  -1.20700      0.708000    
     11762 HOAC     21       HOAC     DC1      DRUD     -2.69620      0.400000           0   0.00000       0.00000    
     11763 HOAC     21       HOAC     C2       CD33C     3.26820       11.6110           0  -2.11400      0.750000    
     11764 HOAC     21       HOAC     DC2      DRUD     -3.56820      0.400000           0   0.00000       0.00000    
     11765 HOAC     21       HOAC     H1       HDA3A    0.920000E-01   1.00800           0   0.00000       0.00000    
     11766 HOAC     21       HOAC     H2       HDA3A    0.920000E-01   1.00800           0   0.00000       0.00000    
     11767 HOAC     21       HOAC     H3       HDA3A    0.920000E-01   1.00800           0   0.00000       0.00000    
     11768 HOAC     21       HOAC     O1       OD2C3A    2.35650       15.5994           0 -0.922000       1.53900    
     11769 HOAC     21       HOAC     DO1      DRUD     -2.35650      0.400000           0   0.00000       0.00000    
     11770 HOAC     21       HOAC     O2       OD31F     2.77650       15.5990           0  -1.28000       1.12400    
     11771 HOAC     21       HOAC     DO2      DRUD     -2.77650      0.400000           0   0.00000       0.00000    
     11772 HOAC     21       HOAC     H        HDP1A    0.374000       1.00800           0   0.00000       0.00000    
     11773 HOAC     21       HOAC     LPO11    LPD     -0.319000       0.00000          -1   0.00000       0.00000    
     11774 HOAC     21       HOAC     LPO12    LPD     -0.319000       0.00000          -1   0.00000       0.00000    
     11775 HOAC     21       HOAC     LPO21    LPD     -0.285000       0.00000          -1   0.00000       0.00000    
     11776 HOAC     21       HOAC     LPO22    LPD     -0.285000       0.00000          -1   0.00000       0.00000    
     11777 HOAC     22       HOAC     C1       CD2O3A    3.55420       11.6110           0  -1.20700      0.708000    
     11778 HOAC     22       HOAC     DC1      DRUD     -2.69620      0.400000           0   0.00000       0.00000    
     11779 HOAC     22       HOAC     C2       CD33C     3.26820       11.6110           0  -2.11400      0.750000    
     11780 HOAC     22       HOAC     DC2      DRUD     -3.56820      0.400000           0   0.00000       0.00000    
     11781 HOAC     22       HOAC     H1       HDA3A    0.920000E-01   1.00800           0   0.00000       0.00000    
     11782 HOAC     22       HOAC     H2       HDA3A    0.920000E-01   1.00800           0   0.00000       0.00000    
     11783 HOAC     22       HOAC     H3       HDA3A    0.920000E-01   1.00800           0   0.00000       0.00000    
     11784 HOAC     22       HOAC     O1       OD2C3A    2.35650       15.5994           0 -0.922000       1.53900    
     11785 HOAC     22       HOAC     DO1      DRUD     -2.35650      0.400000           0   0.00000       0.00000    
     11786 HOAC     22       HOAC     O2       OD31F     2.77650       15.5990           0  -1.28000       1.12400    
     11787 HOAC     22       HOAC     DO2      DRUD     -2.77650      0.400000           0   0.00000       0.00000    
     11788 HOAC     22       HOAC     H        HDP1A    0.374000       1.00800           0   0.00000       0.00000    
     11789 HOAC     22       HOAC     LPO11    LPD     -0.319000       0.00000          -1   0.00000       0.00000    
     11790 HOAC     22       HOAC     LPO12    LPD     -0.319000       0.00000          -1   0.00000       0.00000    
     11791 HOAC     22       HOAC     LPO21    LPD     -0.285000       0.00000          -1   0.00000       0.00000    
     11792 HOAC     22       HOAC     LPO22    LPD     -0.285000       0.00000          -1   0.00000       0.00000    
     11793 HOAC     23       HOAC     C1       CD2O3A    3.55420       11.6110           0  -1.20700      0.708000    
     11794 HOAC     23       HOAC     DC1      DRUD     -2.69620      0.400000           0   0.00000       0.00000    
     11795 HOAC     23       HOAC     C2       CD33C     3.26820       11.6110           0  -2.11400      0.750000    
     11796 HOAC     23       HOAC     DC2      DRUD     -3.56820      0.400000           0   0.00000       0.00000    
     11797 HOAC     23       HOAC     H1       HDA3A    0.920000E-01   1.00800           0   0.00000       0.00000    
     11798 HOAC     23       HOAC     H2       HDA3A    0.920000E-01   1.00800           0   0.00000       0.00000    
     11799 HOAC     23       HOAC     H3       HDA3A    0.920000E-01   1.00800           0   0.00000       0.00000    
     11800 HOAC     23       HOAC     O1       OD2C3A    2.35650       15.5994           0 -0.922000       1.53900    
     11801 HOAC     23       HOAC     DO1      DRUD     -2.35650      0.400000           0   0.00000       0.00000    
     11802 HOAC     23       HOAC     O2       OD31F     2.77650       15.5990           0  -1.28000       1.12400    
     11803 HOAC     23       HOAC     DO2      DRUD     -2.77650      0.400000           0   0.00000       0.00000    
     11804 HOAC     23       HOAC     H        HDP1A    0.374000       1.00800           0   0.00000       0.00000    
     11805 HOAC     23       HOAC     LPO11    LPD     -0.319000       0.00000          -1   0.00000       0.00000    
     11806 HOAC     23       HOAC     LPO12    LPD     -0.319000       0.00000          -1   0.00000       0.00000    
     11807 HOAC     23       HOAC     LPO21    LPD     -0.285000       0.00000          -1   0.00000       0.00000    
     11808 HOAC     23       HOAC     LPO22    LPD     -0.285000       0.00000          -1   0.00000       0.00000    
     11809 HOAC     24       HOAC     C1       CD2O3A    3.55420       11.6110           0  -1.20700      0.708000    
     11810 HOAC     24       HOAC     DC1      DRUD     -2.69620      0.400000           0   0.00000       0.00000    
     11811 HOAC     24       HOAC     C2       CD33C     3.26820       11.6110           0  -2.11400      0.750000    
     11812 HOAC     24       HOAC     DC2      DRUD     -3.56820      0.400000           0   0.00000       0.00000    
     11813 HOAC     24       HOAC     H1       HDA3A    0.920000E-01   1.00800           0   0.00000       0.00000    
     11814 HOAC     24       HOAC     H2       HDA3A    0.920000E-01   1.00800           0   0.00000       0.00000    
     11815 HOAC     24       HOAC     H3       HDA3A    0.920000E-01   1.00800           0   0.00000       0.00000    
     11816 HOAC     24       HOAC     O1       OD2C3A    2.35650       15.5994           0 -0.922000       1.53900    
     11817 HOAC     24       HOAC     DO1      DRUD     -2.35650      0.400000           0   0.00000       0.00000    
     11818 HOAC     24       HOAC     O2       OD31F     2.77650       15.5990           0  -1.28000       1.12400    
     11819 HOAC     24       HOAC     DO2      DRUD     -2.77650      0.400000           0   0.00000       0.00000    
     11820 HOAC     24       HOAC     H        HDP1A    0.374000       1.00800           0   0.00000       0.00000    
     11821 HOAC     24       HOAC     LPO11    LPD     -0.319000       0.00000          -1   0.00000       0.00000    
     11822 HOAC     24       HOAC     LPO12    LPD     -0.319000       0.00000          -1   0.00000       0.00000    
     11823 HOAC     24       HOAC     LPO21    LPD     -0.285000       0.00000          -1   0.00000       0.00000    
     11824 HOAC     24       HOAC     LPO22    LPD     -0.285000       0.00000          -1   0.00000       0.00000    
     11825 HOAC     25       HOAC     C1       CD2O3A    3.55420       11.6110           0  -1.20700      0.708000    
     11826 HOAC     25       HOAC     DC1      DRUD     -2.69620      0.400000           0   0.00000       0.00000    
     11827 HOAC     25       HOAC     C2       CD33C     3.26820       11.6110           0  -2.11400      0.750000    
     11828 HOAC     25       HOAC     DC2      DRUD     -3.56820      0.400000           0   0.00000       0.00000    
     11829 HOAC     25       HOAC     H1       HDA3A    0.920000E-01   1.00800           0   0.00000       0.00000    
     11830 HOAC     25       HOAC     H2       HDA3A    0.920000E-01   1.00800           0   0.00000       0.00000    
     11831 HOAC     25       HOAC     H3       HDA3A    0.920000E-01   1.00800           0   0.00000       0.00000    
     11832 HOAC     25       HOAC     O1       OD2C3A    2.35650       15.5994           0 -0.922000       1.53900    
     11833 HOAC     25       HOAC     DO1      DRUD     -2.35650      0.400000           0   0.00000       0.00000    
     11834 HOAC     25       HOAC     O2       OD31F     2.77650       15.5990           0  -1.28000       1.12400    
     11835 HOAC     25       HOAC     DO2      DRUD     -2.77650      0.400000           0   0.00000       0.00000    
     11836 HOAC     25       HOAC     H        HDP1A    0.374000       1.00800           0   0.00000       0.00000    
     11837 HOAC     25       HOAC     LPO11    LPD     -0.319000       0.00000          -1   0.00000       0.00000    
     11838 HOAC     25       HOAC     LPO12    LPD     -0.319000       0.00000          -1   0.00000       0.00000    
     11839 HOAC     25       HOAC     LPO21    LPD     -0.285000       0.00000          -1   0.00000       0.00000    
     11840 HOAC     25       HOAC     LPO22    LPD     -0.285000       0.00000          -1   0.00000       0.00000    
     11841 HOAC     26       HOAC     C1       CD2O3A    3.55420       11.6110           0  -1.20700      0.708000    
     11842 HOAC     26       HOAC     DC1      DRUD     -2.69620      0.400000           0   0.00000       0.00000    
     11843 HOAC     26       HOAC     C2       CD33C     3.26820       11.6110           0  -2.11400      0.750000    
     11844 HOAC     26       HOAC     DC2      DRUD     -3.56820      0.400000           0   0.00000       0.00000    
     11845 HOAC     26       HOAC     H1       HDA3A    0.920000E-01   1.00800           0   0.00000       0.00000    
     11846 HOAC     26       HOAC     H2       HDA3A    0.920000E-01   1.00800           0   0.00000       0.00000    
     11847 HOAC     26       HOAC     H3       HDA3A    0.920000E-01   1.00800           0   0.00000       0.00000    
     11848 HOAC     26       HOAC     O1       OD2C3A    2.35650       15.5994           0 -0.922000       1.53900    
     11849 HOAC     26       HOAC     DO1      DRUD     -2.35650      0.400000           0   0.00000       0.00000    
     11850 HOAC     26       HOAC     O2       OD31F     2.77650       15.5990           0  -1.28000       1.12400    
     11851 HOAC     26       HOAC     DO2      DRUD     -2.77650      0.400000           0   0.00000       0.00000    
     11852 HOAC     26       HOAC     H        HDP1A    0.374000       1.00800           0   0.00000       0.00000    
     11853 HOAC     26       HOAC     LPO11    LPD     -0.319000       0.00000          -1   0.00000       0.00000    
     11854 HOAC     26       HOAC     LPO12    LPD     -0.319000       0.00000          -1   0.00000       0.00000    
     11855 HOAC     26       HOAC     LPO21    LPD     -0.285000       0.00000          -1   0.00000       0.00000    
     11856 HOAC     26       HOAC     LPO22    LPD     -0.285000       0.00000          -1   0.00000       0.00000    
     11857 HOAC     27       HOAC     C1       CD2O3A    3.55420       11.6110           0  -1.20700      0.708000    
     11858 HOAC     27       HOAC     DC1      DRUD     -2.69620      0.400000           0   0.00000       0.00000    
     11859 HOAC     27       HOAC     C2       CD33C     3.26820       11.6110           0  -2.11400      0.750000    
     11860 HOAC     27       HOAC     DC2      DRUD     -3.56820      0.400000           0   0.00000       0.00000    
     11861 HOAC     27       HOAC     H1       HDA3A    0.920000E-01   1.00800           0   0.00000       0.00000    
     11862 HOAC     27       HOAC     H2       HDA3A    0.920000E-01   1.00800           0   0.00000       0.00000    
     11863 HOAC     27       HOAC     H3       HDA3A    0.920000E-01   1.00800           0   0.00000       0.00000    
     11864 HOAC     27       HOAC     O1       OD2C3A    2.35650       15.5994           0 -0.922000       1.53900    
     11865 HOAC     27       HOAC     DO1      DRUD     -2.35650      0.400000           0   0.00000       0.00000    
     11866 HOAC     27       HOAC     O2       OD31F     2.77650       15.5990           0  -1.28000       1.12400    
     11867 HOAC     27       HOAC     DO2      DRUD     -2.77650      0.400000           0   0.00000       0.00000    
     11868 HOAC     27       HOAC     H        HDP1A    0.374000       1.00800           0   0.00000       0.00000    
     11869 HOAC     27       HOAC     LPO11    LPD     -0.319000       0.00000          -1   0.00000       0.00000    
     11870 HOAC     27       HOAC     LPO12    LPD     -0.319000       0.00000          -1   0.00000       0.00000    
     11871 HOAC     27       HOAC     LPO21    LPD     -0.285000       0.00000          -1   0.00000       0.00000    
     11872 HOAC     27       HOAC     LPO22    LPD     -0.285000       0.00000          -1   0.00000       0.00000    
     11873 HOAC     28       HOAC     C1       CD2O3A    3.55420       11.6110           0  -1.20700      0.708000    
     11874 HOAC     28       HOAC     DC1      DRUD     -2.69620      0.400000           0   0.00000       0.00000    
     11875 HOAC     28       HOAC     C2       CD33C     3.26820       11.6110           0  -2.11400      0.750000    
     11876 HOAC     28       HOAC     DC2      DRUD     -3.56820      0.400000           0   0.00000       0.00000    
     11877 HOAC     28       HOAC     H1       HDA3A    0.920000E-01   1.00800           0   0.00000       0.00000    
     11878 HOAC     28       HOAC     H2       HDA3A    0.920000E-01   1.00800           0   0.00000       0.00000    
     11879 HOAC     28       HOAC     H3       HDA3A    0.920000E-01   1.00800           0   0.00000       0.00000    
     11880 HOAC     28       HOAC     O1       OD2C3A    2.35650       15.5994           0 -0.922000       1.53900    
     11881 HOAC     28       HOAC     DO1      DRUD     -2.35650      0.400000           0   0.00000       0.00000    
     11882 HOAC     28       HOAC     O2       OD31F     2.77650       15.5990           0  -1.28000       1.12400    
     11883 HOAC     28       HOAC     DO2      DRUD     -2.77650      0.400000           0   0.00000       0.00000    
     11884 HOAC     28       HOAC     H        HDP1A    0.374000       1.00800           0   0.00000       0.00000    
     11885 HOAC     28       HOAC     LPO11    LPD     -0.319000       0.00000          -1   0.00000       0.00000    
     11886 HOAC     28       HOAC     LPO12    LPD     -0.319000       0.00000          -1   0.00000       0.00000    
     11887 HOAC     28       HOAC     LPO21    LPD     -0.285000       0.00000          -1   0.00000       0.00000    
     11888 HOAC     28       HOAC     LPO22    LPD     -0.285000       0.00000          -1   0.00000       0.00000    
     11889 HOAC     29       HOAC     C1       CD2O3A    3.55420       11.6110           0  -1.20700      0.708000    
     11890 HOAC     29       HOAC     DC1      DRUD     -2.69620      0.400000           0   0.00000       0.00000    
     11891 HOAC     29       HOAC     C2       CD33C     3.26820       11.6110           0  -2.11400      0.750000    
     11892 HOAC     29       HOAC     DC2      DRUD     -3.56820      0.400000           0   0.00000       0.00000    
     11893 HOAC     29       HOAC     H1       HDA3A    0.920000E-01   1.00800           0   0.00000       0.00000    
     11894 HOAC     29       HOAC     H2       HDA3A    0.920000E-01   1.00800           0   0.00000       0.00000    
     11895 HOAC     29       HOAC     H3       HDA3A    0.920000E-01   1.00800           0   0.00000       0.00000    
     11896 HOAC     29       HOAC     O1       OD2C3A    2.35650       15.5994           0 -0.922000       1.53900    
     11897 HOAC     29       HOAC     DO1      DRUD     -2.35650      0.400000           0   0.00000       0.00000    
     11898 HOAC     29       HOAC     O2       OD31F     2.77650       15.5990           0  -1.28000       1.12400    
     11899 HOAC     29       HOAC     DO2      DRUD     -2.77650      0.400000           0   0.00000       0.00000    
     11900 HOAC     29       HOAC     H        HDP1A    0.374000       1.00800           0   0.00000       0.00000    
     11901 HOAC     29       HOAC     LPO11    LPD     -0.319000       0.00000          -1   0.00000       0.00000    
     11902 HOAC     29       HOAC     LPO12    LPD     -0.319000       0.00000          -1   0.00000       0.00000    
     11903 HOAC     29       HOAC     LPO21    LPD     -0.285000       0.00000          -1   0.00000       0.00000    
     11904 HOAC     29       HOAC     LPO22    LPD     -0.285000       0.00000          -1   0.00000       0.00000    
     11905 HOAC     30       HOAC     C1       CD2O3A    3.55420       11.6110           0  -1.20700      0.708000    
     11906 HOAC     30       HOAC     DC1      DRUD     -2.69620      0.400000           0   0.00000       0.00000    
     11907 HOAC     30       HOAC     C2       CD33C     3.26820       11.6110           0  -2.11400      0.750000    
     11908 HOAC     30       HOAC     DC2      DRUD     -3.56820      0.400000           0   0.00000       0.00000    
     11909 HOAC     30       HOAC     H1       HDA3A    0.920000E-01   1.00800           0   0.00000       0.00000    
     11910 HOAC     30       HOAC     H2       HDA3A    0.920000E-01   1.00800           0   0.00000       0.00000    
     11911 HOAC     30       HOAC     H3       HDA3A    0.920000E-01   1.00800           0   0.00000       0.00000    
     11912 HOAC     30       HOAC     O1       OD2C3A    2.35650       15.5994           0 -0.922000       1.53900    
     11913 HOAC     30       HOAC     DO1      DRUD     -2.35650      0.400000           0   0.00000       0.00000    
     11914 HOAC     30       HOAC     O2       OD31F     2.77650       15.5990           0  -1.28000       1.12400    
     11915 HOAC     30       HOAC     DO2      DRUD     -2.77650      0.400000           0   0.00000       0.00000    
     11916 HOAC     30       HOAC     H        HDP1A    0.374000       1.00800           0   0.00000       0.00000    
     11917 HOAC     30       HOAC     LPO11    LPD     -0.319000       0.00000          -1   0.00000       0.00000    
     11918 HOAC     30       HOAC     LPO12    LPD     -0.319000       0.00000          -1   0.00000       0.00000    
     11919 HOAC     30       HOAC     LPO21    LPD     -0.285000       0.00000          -1   0.00000       0.00000    
     11920 HOAC     30       HOAC     LPO22    LPD     -0.285000       0.00000          -1   0.00000       0.00000    
     11921 HOAC     31       HOAC     C1       CD2O3A    3.55420       11.6110           0  -1.20700      0.708000    
     11922 HOAC     31       HOAC     DC1      DRUD     -2.69620      0.400000           0   0.00000       0.00000    
     11923 HOAC     31       HOAC     C2       CD33C     3.26820       11.6110           0  -2.11400      0.750000    
     11924 HOAC     31       HOAC     DC2      DRUD     -3.56820      0.400000           0   0.00000       0.00000    
     11925 HOAC     31       HOAC     H1       HDA3A    0.920000E-01   1.00800           0   0.00000       0.00000    
     11926 HOAC     31       HOAC     H2       HDA3A    0.920000E-01   1.00800           0   0.00000       0.00000    
     11927 HOAC     31       HOAC     H3       HDA3A    0.920000E-01   1.00800           0   0.00000       0.00000    
     11928 HOAC     31       HOAC     O1       OD2C3A    2.35650       15.5994           0 -0.922000       1.53900    
     11929 HOAC     31       HOAC     DO1      DRUD     -2.35650      0.400000           0   0.00000       0.00000    
     11930 HOAC     31       HOAC     O2       OD31F     2.77650       15.5990           0  -1.28000       1.12400    
     11931 HOAC     31       HOAC     DO2      DRUD     -2.77650      0.400000           0   0.00000       0.00000    
     11932 HOAC     31       HOAC     H        HDP1A    0.374000       1.00800           0   0.00000       0.00000    
     11933 HOAC     31       HOAC     LPO11    LPD     -0.319000       0.00000          -1   0.00000       0.00000    
     11934 HOAC     31       HOAC     LPO12    LPD     -0.319000       0.00000          -1   0.00000       0.00000    
     11935 HOAC     31       HOAC     LPO21    LPD     -0.285000       0.00000          -1   0.00000       0.00000    
     11936 HOAC     31       HOAC     LPO22    LPD     -0.285000       0.00000          -1   0.00000       0.00000    
     11937 HOAC     32       HOAC     C1       CD2O3A    3.55420       11.6110           0  -1.20700      0.708000    
     11938 HOAC     32       HOAC     DC1      DRUD     -2.69620      0.400000           0   0.00000       0.00000    
     11939 HOAC     32       HOAC     C2       CD33C     3.26820       11.6110           0  -2.11400      0.750000    
     11940 HOAC     32       HOAC     DC2      DRUD     -3.56820      0.400000           0   0.00000       0.00000    
     11941 HOAC     32       HOAC     H1       HDA3A    0.920000E-01   1.00800           0   0.00000       0.00000    
     11942 HOAC     32       HOAC     H2       HDA3A    0.920000E-01   1.00800           0   0.00000       0.00000    
     11943 HOAC     32       HOAC     H3       HDA3A    0.920000E-01   1.00800           0   0.00000       0.00000    
     11944 HOAC     32       HOAC     O1       OD2C3A    2.35650       15.5994           0 -0.922000       1.53900    
     11945 HOAC     32       HOAC     DO1      DRUD     -2.35650      0.400000           0   0.00000       0.00000    
     11946 HOAC     32       HOAC     O2       OD31F     2.77650       15.5990           0  -1.28000       1.12400    
     11947 HOAC     32       HOAC     DO2      DRUD     -2.77650      0.400000           0   0.00000       0.00000    
     11948 HOAC     32       HOAC     H        HDP1A    0.374000       1.00800           0   0.00000       0.00000    
     11949 HOAC     32       HOAC     LPO11    LPD     -0.319000       0.00000          -1   0.00000       0.00000    
     11950 HOAC     32       HOAC     LPO12    LPD     -0.319000       0.00000          -1   0.00000       0.00000    
     11951 HOAC     32       HOAC     LPO21    LPD     -0.285000       0.00000          -1   0.00000       0.00000    
     11952 HOAC     32       HOAC     LPO22    LPD     -0.285000       0.00000          -1   0.00000       0.00000    
     11953 HOAC     33       HOAC     C1       CD2O3A    3.55420       11.6110           0  -1.20700      0.708000    
     11954 HOAC     33       HOAC     DC1      DRUD     -2.69620      0.400000           0   0.00000       0.00000    
     11955 HOAC     33       HOAC     C2       CD33C     3.26820       11.6110           0  -2.11400      0.750000    
     11956 HOAC     33       HOAC     DC2      DRUD     -3.56820      0.400000           0   0.00000       0.00000    
     11957 HOAC     33       HOAC     H1       HDA3A    0.920000E-01   1.00800           0   0.00000       0.00000    
     11958 HOAC     33       HOAC     H2       HDA3A    0.920000E-01   1.00800           0   0.00000       0.00000    
     11959 HOAC     33       HOAC     H3       HDA3A    0.920000E-01   1.00800           0   0.00000       0.00000    
     11960 HOAC     33       HOAC     O1       OD2C3A    2.35650       15.5994           0 -0.922000       1.53900    
     11961 HOAC     33       HOAC     DO1      DRUD     -2.35650      0.400000           0   0.00000       0.00000    
     11962 HOAC     33       HOAC     O2       OD31F     2.77650       15.5990           0  -1.28000       1.12400    
     11963 HOAC     33       HOAC     DO2      DRUD     -2.77650      0.400000           0   0.00000       0.00000    
     11964 HOAC     33       HOAC     H        HDP1A    0.374000       1.00800           0   0.00000       0.00000    
     11965 HOAC     33       HOAC     LPO11    LPD     -0.319000       0.00000          -1   0.00000       0.00000    
     11966 HOAC     33       HOAC     LPO12    LPD     -0.319000       0.00000          -1   0.00000       0.00000    
     11967 HOAC     33       HOAC     LPO21    LPD     -0.285000       0.00000          -1   0.00000       0.00000    
     11968 HOAC     33       HOAC     LPO22    LPD     -0.285000       0.00000          -1   0.00000       0.00000    
     11969 HOAC     34       HOAC     C1       CD2O3A    3.55420       11.6110           0  -1.20700      0.708000    
     11970 HOAC     34       HOAC     DC1      DRUD     -2.69620      0.400000           0   0.00000       0.00000    
     11971 HOAC     34       HOAC     C2       CD33C     3.26820       11.6110           0  -2.11400      0.750000    
     11972 HOAC     34       HOAC     DC2      DRUD     -3.56820      0.400000           0   0.00000       0.00000    
     11973 HOAC     34       HOAC     H1       HDA3A    0.920000E-01   1.00800           0   0.00000       0.00000    
     11974 HOAC     34       HOAC     H2       HDA3A    0.920000E-01   1.00800           0   0.00000       0.00000    
     11975 HOAC     34       HOAC     H3       HDA3A    0.920000E-01   1.00800           0   0.00000       0.00000    
     11976 HOAC     34       HOAC     O1       OD2C3A    2.35650       15.5994           0 -0.922000       1.53900    
     11977 HOAC     34       HOAC     DO1      DRUD     -2.35650      0.400000           0   0.00000       0.00000    
     11978 HOAC     34       HOAC     O2       OD31F     2.77650       15.5990           0  -1.28000       1.12400    
     11979 HOAC     34       HOAC     DO2      DRUD     -2.77650      0.400000           0   0.00000       0.00000    
     11980 HOAC     34       HOAC     H        HDP1A    0.374000       1.00800           0   0.00000       0.00000    
     11981 HOAC     34       HOAC     LPO11    LPD     -0.319000       0.00000          -1   0.00000       0.00000    
     11982 HOAC     34       HOAC     LPO12    LPD     -0.319000       0.00000          -1   0.00000       0.00000    
     11983 HOAC     34       HOAC     LPO21    LPD     -0.285000       0.00000          -1   0.00000       0.00000    
     11984 HOAC     34       HOAC     LPO22    LPD     -0.285000       0.00000          -1   0.00000       0.00000    
     11985 HOAC     35       HOAC     C1       CD2O3A    3.55420       11.6110           0  -1.20700      0.708000    
     11986 HOAC     35       HOAC     DC1      DRUD     -2.69620      0.400000           0   0.00000       0.00000    
     11987 HOAC     35       HOAC     C2       CD33C     3.26820       11.6110           0  -2.11400      0.750000    
     11988 HOAC     35       HOAC     DC2      DRUD     -3.56820      0.400000           0   0.00000       0.00000    
     11989 HOAC     35       HOAC     H1       HDA3A    0.920000E-01   1.00800           0   0.00000       0.00000    
     11990 HOAC     35       HOAC     H2       HDA3A    0.920000E-01   1.00800           0   0.00000       0.00000    
     11991 HOAC     35       HOAC     H3       HDA3A    0.920000E-01   1.00800           0   0.00000       0.00000    
     11992 HOAC     35       HOAC     O1       OD2C3A    2.35650       15.5994           0 -0.922000       1.53900    
     11993 HOAC     35       HOAC     DO1      DRUD     -2.35650      0.400000           0   0.00000       0.00000    
     11994 HOAC     35       HOAC     O2       OD31F     2.77650       15.5990           0  -1.28000       1.12400    
     11995 HOAC     35       HOAC     DO2      DRUD     -2.77650      0.400000           0   0.00000       0.00000    
     11996 HOAC     35       HOAC     H        HDP1A    0.374000       1.00800           0   0.00000       0.00000    
     11997 HOAC     35       HOAC     LPO11    LPD     -0.319000       0.00000          -1   0.00000       0.00000    
     11998 HOAC     35       HOAC     LPO12    LPD     -0.319000       0.00000          -1   0.00000       0.00000    
     11999 HOAC     35       HOAC     LPO21    LPD     -0.285000       0.00000          -1   0.00000       0.00000    
     12000 HOAC     35       HOAC     LPO22    LPD     -0.285000       0.00000          -1   0.00000       0.00000    
     12001 HOAC     36       HOAC     C1       CD2O3A    3.55420       11.6110           0  -1.20700      0.708000    
     12002 HOAC     36       HOAC     DC1      DRUD     -2.69620      0.400000           0   0.00000       0.00000    
     12003 HOAC     36       HOAC     C2       CD33C     3.26820       11.6110           0  -2.11400      0.750000    
     12004 HOAC     36       HOAC     DC2      DRUD     -3.56820      0.400000           0   0.00000       0.00000    
     12005 HOAC     36       HOAC     H1       HDA3A    0.920000E-01   1.00800           0   0.00000       0.00000    
     12006 HOAC     36       HOAC     H2       HDA3A    0.920000E-01   1.00800           0   0.00000       0.00000    
     12007 HOAC     36       HOAC     H3       HDA3A    0.920000E-01   1.00800           0   0.00000       0.00000    
     12008 HOAC     36       HOAC     O1       OD2C3A    2.35650       15.5994           0 -0.922000       1.53900    
     12009 HOAC     36       HOAC     DO1      DRUD     -2.35650      0.400000           0   0.00000       0.00000    
     12010 HOAC     36       HOAC     O2       OD31F     2.77650       15.5990           0  -1.28000       1.12400    
     12011 HOAC     36       HOAC     DO2      DRUD     -2.77650      0.400000           0   0.00000       0.00000    
     12012 HOAC     36       HOAC     H        HDP1A    0.374000       1.00800           0   0.00000       0.00000    
     12013 HOAC     36       HOAC     LPO11    LPD     -0.319000       0.00000          -1   0.00000       0.00000    
     12014 HOAC     36       HOAC     LPO12    LPD     -0.319000       0.00000          -1   0.00000       0.00000    
     12015 HOAC     36       HOAC     LPO21    LPD     -0.285000       0.00000          -1   0.00000       0.00000    
     12016 HOAC     36       HOAC     LPO22    LPD     -0.285000       0.00000          -1   0.00000       0.00000    
     12017 HOAC     37       HOAC     C1       CD2O3A    3.55420       11.6110           0  -1.20700      0.708000    
     12018 HOAC     37       HOAC     DC1      DRUD     -2.69620      0.400000           0   0.00000       0.00000    
     12019 HOAC     37       HOAC     C2       CD33C     3.26820       11.6110           0  -2.11400      0.750000    
     12020 HOAC     37       HOAC     DC2      DRUD     -3.56820      0.400000           0   0.00000       0.00000    
     12021 HOAC     37       HOAC     H1       HDA3A    0.920000E-01   1.00800           0   0.00000       0.00000    
     12022 HOAC     37       HOAC     H2       HDA3A    0.920000E-01   1.00800           0   0.00000       0.00000    
     12023 HOAC     37       HOAC     H3       HDA3A    0.920000E-01   1.00800           0   0.00000       0.00000    
     12024 HOAC     37       HOAC     O1       OD2C3A    2.35650       15.5994           0 -0.922000       1.53900    
     12025 HOAC     37       HOAC     DO1      DRUD     -2.35650      0.400000           0   0.00000       0.00000    
     12026 HOAC     37       HOAC     O2       OD31F     2.77650       15.5990           0  -1.28000       1.12400    
     12027 HOAC     37       HOAC     DO2      DRUD     -2.77650      0.400000           0   0.00000       0.00000    
     12028 HOAC     37       HOAC     H        HDP1A    0.374000       1.00800           0   0.00000       0.00000    
     12029 HOAC     37       HOAC     LPO11    LPD     -0.319000       0.00000          -1   0.00000       0.00000    
     12030 HOAC     37       HOAC     LPO12    LPD     -0.319000       0.00000          -1   0.00000       0.00000    
     12031 HOAC     37       HOAC     LPO21    LPD     -0.285000       0.00000          -1   0.00000       0.00000    
     12032 HOAC     37       HOAC     LPO22    LPD     -0.285000       0.00000          -1   0.00000       0.00000    
     12033 HOAC     38       HOAC     C1       CD2O3A    3.55420       11.6110           0  -1.20700      0.708000    
     12034 HOAC     38       HOAC     DC1      DRUD     -2.69620      0.400000           0   0.00000       0.00000    
     12035 HOAC     38       HOAC     C2       CD33C     3.26820       11.6110           0  -2.11400      0.750000    
     12036 HOAC     38       HOAC     DC2      DRUD     -3.56820      0.400000           0   0.00000       0.00000    
     12037 HOAC     38       HOAC     H1       HDA3A    0.920000E-01   1.00800           0   0.00000       0.00000    
     12038 HOAC     38       HOAC     H2       HDA3A    0.920000E-01   1.00800           0   0.00000       0.00000    
     12039 HOAC     38       HOAC     H3       HDA3A    0.920000E-01   1.00800           0   0.00000       0.00000    
     12040 HOAC     38       HOAC     O1       OD2C3A    2.35650       15.5994           0 -0.922000       1.53900    
     12041 HOAC     38       HOAC     DO1      DRUD     -2.35650      0.400000           0   0.00000       0.00000    
     12042 HOAC     38       HOAC     O2       OD31F     2.77650       15.5990           0  -1.28000       1.12400    
     12043 HOAC     38       HOAC     DO2      DRUD     -2.77650      0.400000           0   0.00000       0.00000    
     12044 HOAC     38       HOAC     H        HDP1A    0.374000       1.00800           0   0.00000       0.00000    
     12045 HOAC     38       HOAC     LPO11    LPD     -0.319000       0.00000          -1   0.00000       0.00000    
     12046 HOAC     38       HOAC     LPO12    LPD     -0.319000       0.00000          -1   0.00000       0.00000    
     12047 HOAC     38       HOAC     LPO21    LPD     -0.285000       0.00000          -1   0.00000       0.00000    
     12048 HOAC     38       HOAC     LPO22    LPD     -0.285000       0.00000          -1   0.00000       0.00000    
     12049 HOAC     39       HOAC     C1       CD2O3A    3.55420       11.6110           0  -1.20700      0.708000    
     12050 HOAC     39       HOAC     DC1      DRUD     -2.69620      0.400000           0   0.00000       0.00000    
     12051 HOAC     39       HOAC     C2       CD33C     3.26820       11.6110           0  -2.11400      0.750000    
     12052 HOAC     39       HOAC     DC2      DRUD     -3.56820      0.400000           0   0.00000       0.00000    
     12053 HOAC     39       HOAC     H1       HDA3A    0.920000E-01   1.00800           0   0.00000       0.00000    
     12054 HOAC     39       HOAC     H2       HDA3A    0.920000E-01   1.00800           0   0.00000       0.00000    
     12055 HOAC     39       HOAC     H3       HDA3A    0.920000E-01   1.00800           0   0.00000       0.00000    
     12056 HOAC     39       HOAC     O1       OD2C3A    2.35650       15.5994           0 -0.922000       1.53900    
     12057 HOAC     39       HOAC     DO1      DRUD     -2.35650      0.400000           0   0.00000       0.00000    
     12058 HOAC     39       HOAC     O2       OD31F     2.77650       15.5990           0  -1.28000       1.12400    
     12059 HOAC     39       HOAC     DO2      DRUD     -2.77650      0.400000           0   0.00000       0.00000    
     12060 HOAC     39       HOAC     H        HDP1A    0.374000       1.00800           0   0.00000       0.00000    
     12061 HOAC     39       HOAC     LPO11    LPD     -0.319000       0.00000          -1   0.00000       0.00000    
     12062 HOAC     39       HOAC     LPO12    LPD     -0.319000       0.00000          -1   0.00000       0.00000    
     12063 HOAC     39       HOAC     LPO21    LPD     -0.285000       0.00000          -1   0.00000       0.00000    
     12064 HOAC     39       HOAC     LPO22    LPD     -0.285000       0.00000          -1   0.00000       0.00000    
     12065 HOAC     40       HOAC     C1       CD2O3A    3.55420       11.6110           0  -1.20700      0.708000    
     12066 HOAC     40       HOAC     DC1      DRUD     -2.69620      0.400000           0   0.00000       0.00000    
     12067 HOAC     40       HOAC     C2       CD33C     3.26820       11.6110           0  -2.11400      0.750000    
     12068 HOAC     40       HOAC     DC2      DRUD     -3.56820      0.400000           0   0.00000       0.00000    
     12069 HOAC     40       HOAC     H1       HDA3A    0.920000E-01   1.00800           0   0.00000       0.00000    
     12070 HOAC     40       HOAC     H2       HDA3A    0.920000E-01   1.00800           0   0.00000       0.00000    
     12071 HOAC     40       HOAC     H3       HDA3A    0.920000E-01   1.00800           0   0.00000       0.00000    
     12072 HOAC     40       HOAC     O1       OD2C3A    2.35650       15.5994           0 -0.922000       1.53900    
     12073 HOAC     40       HOAC     DO1      DRUD     -2.35650      0.400000           0   0.00000       0.00000    
     12074 HOAC     40       HOAC     O2       OD31F     2.77650       15.5990           0  -1.28000       1.12400    
     12075 HOAC     40       HOAC     DO2      DRUD     -2.77650      0.400000           0   0.00000       0.00000    
     12076 HOAC     40       HOAC     H        HDP1A    0.374000       1.00800           0   0.00000       0.00000    
     12077 HOAC     40       HOAC     LPO11    LPD     -0.319000       0.00000          -1   0.00000       0.00000    
     12078 HOAC     40       HOAC     LPO12    LPD     -0.319000       0.00000          -1   0.00000       0.00000    
     12079 HOAC     40       HOAC     LPO21    LPD     -0.285000       0.00000          -1   0.00000       0.00000    
     12080 HOAC     40       HOAC     LPO22    LPD     -0.285000       0.00000          -1   0.00000       0.00000    
     12081 HOAC     41       HOAC     C1       CD2O3A    3.55420       11.6110           0  -1.20700      0.708000    
     12082 HOAC     41       HOAC     DC1      DRUD     -2.69620      0.400000           0   0.00000       0.00000    
     12083 HOAC     41       HOAC     C2       CD33C     3.26820       11.6110           0  -2.11400      0.750000    
     12084 HOAC     41       HOAC     DC2      DRUD     -3.56820      0.400000           0   0.00000       0.00000    
     12085 HOAC     41       HOAC     H1       HDA3A    0.920000E-01   1.00800           0   0.00000       0.00000    
     12086 HOAC     41       HOAC     H2       HDA3A    0.920000E-01   1.00800           0   0.00000       0.00000    
     12087 HOAC     41       HOAC     H3       HDA3A    0.920000E-01   1.00800           0   0.00000       0.00000    
     12088 HOAC     41       HOAC     O1       OD2C3A    2.35650       15.5994           0 -0.922000       1.53900    
     12089 HOAC     41       HOAC     DO1      DRUD     -2.35650      0.400000           0   0.00000       0.00000    
     12090 HOAC     41       HOAC     O2       OD31F     2.77650       15.5990           0  -1.28000       1.12400    
     12091 HOAC     41       HOAC     DO2      DRUD     -2.77650      0.400000           0   0.00000       0.00000    
     12092 HOAC     41       HOAC     H        HDP1A    0.374000       1.00800           0   0.00000       0.00000    
     12093 HOAC     41       HOAC     LPO11    LPD     -0.319000       0.00000          -1   0.00000       0.00000    
     12094 HOAC     41       HOAC     LPO12    LPD     -0.319000       0.00000          -1   0.00000       0.00000    
     12095 HOAC     41       HOAC     LPO21    LPD     -0.285000       0.00000          -1   0.00000       0.00000    
     12096 HOAC     41       HOAC     LPO22    LPD     -0.285000       0.00000          -1   0.00000       0.00000    
     12097 HOAC     42       HOAC     C1       CD2O3A    3.55420       11.6110           0  -1.20700      0.708000    
     12098 HOAC     42       HOAC     DC1      DRUD     -2.69620      0.400000           0   0.00000       0.00000    
     12099 HOAC     42       HOAC     C2       CD33C     3.26820       11.6110           0  -2.11400      0.750000    
     12100 HOAC     42       HOAC     DC2      DRUD     -3.56820      0.400000           0   0.00000       0.00000    
     12101 HOAC     42       HOAC     H1       HDA3A    0.920000E-01   1.00800           0   0.00000       0.00000    
     12102 HOAC     42       HOAC     H2       HDA3A    0.920000E-01   1.00800           0   0.00000       0.00000    
     12103 HOAC     42       HOAC     H3       HDA3A    0.920000E-01   1.00800           0   0.00000       0.00000    
     12104 HOAC     42       HOAC     O1       OD2C3A    2.35650       15.5994           0 -0.922000       1.53900    
     12105 HOAC     42       HOAC     DO1      DRUD     -2.35650      0.400000           0   0.00000       0.00000    
     12106 HOAC     42       HOAC     O2       OD31F     2.77650       15.5990           0  -1.28000       1.12400    
     12107 HOAC     42       HOAC     DO2      DRUD     -2.77650      0.400000           0   0.00000       0.00000    
     12108 HOAC     42       HOAC     H        HDP1A    0.374000       1.00800           0   0.00000       0.00000    
     12109 HOAC     42       HOAC     LPO11    LPD     -0.319000       0.00000          -1   0.00000       0.00000    
     12110 HOAC     42       HOAC     LPO12    LPD     -0.319000       0.00000          -1   0.00000       0.00000    
     12111 HOAC     42       HOAC     LPO21    LPD     -0.285000       0.00000          -1   0.00000       0.00000    
     12112 HOAC     42       HOAC     LPO22    LPD     -0.285000       0.00000          -1   0.00000       0.00000    
     12113 HOAC     43       HOAC     C1       CD2O3A    3.55420       11.6110           0  -1.20700      0.708000    
     12114 HOAC     43       HOAC     DC1      DRUD     -2.69620      0.400000           0   0.00000       0.00000    
     12115 HOAC     43       HOAC     C2       CD33C     3.26820       11.6110           0  -2.11400      0.750000    
     12116 HOAC     43       HOAC     DC2      DRUD     -3.56820      0.400000           0   0.00000       0.00000    
     12117 HOAC     43       HOAC     H1       HDA3A    0.920000E-01   1.00800           0   0.00000       0.00000    
     12118 HOAC     43       HOAC     H2       HDA3A    0.920000E-01   1.00800           0   0.00000       0.00000    
     12119 HOAC     43       HOAC     H3       HDA3A    0.920000E-01   1.00800           0   0.00000       0.00000    
     12120 HOAC     43       HOAC     O1       OD2C3A    2.35650       15.5994           0 -0.922000       1.53900    
     12121 HOAC     43       HOAC     DO1      DRUD     -2.35650      0.400000           0   0.00000       0.00000    
     12122 HOAC     43       HOAC     O2       OD31F     2.77650       15.5990           0  -1.28000       1.12400    
     12123 HOAC     43       HOAC     DO2      DRUD     -2.77650      0.400000           0   0.00000       0.00000    
     12124 HOAC     43       HOAC     H        HDP1A    0.374000       1.00800           0   0.00000       0.00000    
     12125 HOAC     43       HOAC     LPO11    LPD     -0.319000       0.00000          -1   0.00000       0.00000    
     12126 HOAC     43       HOAC     LPO12    LPD     -0.319000       0.00000          -1   0.00000       0.00000    
     12127 HOAC     43       HOAC     LPO21    LPD     -0.285000       0.00000          -1   0.00000       0.00000    
     12128 HOAC     43       HOAC     LPO22    LPD     -0.285000       0.00000          -1   0.00000       0.00000    
     12129 HOAC     44       HOAC     C1       CD2O3A    3.55420       11.6110           0  -1.20700      0.708000    
     12130 HOAC     44       HOAC     DC1      DRUD     -2.69620      0.400000           0   0.00000       0.00000    
     12131 HOAC     44       HOAC     C2       CD33C     3.26820       11.6110           0  -2.11400      0.750000    
     12132 HOAC     44       HOAC     DC2      DRUD     -3.56820      0.400000           0   0.00000       0.00000    
     12133 HOAC     44       HOAC     H1       HDA3A    0.920000E-01   1.00800           0   0.00000       0.00000    
     12134 HOAC     44       HOAC     H2       HDA3A    0.920000E-01   1.00800           0   0.00000       0.00000    
     12135 HOAC     44       HOAC     H3       HDA3A    0.920000E-01   1.00800           0   0.00000       0.00000    
     12136 HOAC     44       HOAC     O1       OD2C3A    2.35650       15.5994           0 -0.922000       1.53900    
     12137 HOAC     44       HOAC     DO1      DRUD     -2.35650      0.400000           0   0.00000       0.00000    
     12138 HOAC     44       HOAC     O2       OD31F     2.77650       15.5990           0  -1.28000       1.12400    
     12139 HOAC     44       HOAC     DO2      DRUD     -2.77650      0.400000           0   0.00000       0.00000    
     12140 HOAC     44       HOAC     H        HDP1A    0.374000       1.00800           0   0.00000       0.00000    
     12141 HOAC     44       HOAC     LPO11    LPD     -0.319000       0.00000          -1   0.00000       0.00000    
     12142 HOAC     44       HOAC     LPO12    LPD     -0.319000       0.00000          -1   0.00000       0.00000    
     12143 HOAC     44       HOAC     LPO21    LPD     -0.285000       0.00000          -1   0.00000       0.00000    
     12144 HOAC     44       HOAC     LPO22    LPD     -0.285000       0.00000          -1   0.00000       0.00000    
     12145 HOAC     45       HOAC     C1       CD2O3A    3.55420       11.6110           0  -1.20700      0.708000    
     12146 HOAC     45       HOAC     DC1      DRUD     -2.69620      0.400000           0   0.00000       0.00000    
     12147 HOAC     45       HOAC     C2       CD33C     3.26820       11.6110           0  -2.11400      0.750000    
     12148 HOAC     45       HOAC     DC2      DRUD     -3.56820      0.400000           0   0.00000       0.00000    
     12149 HOAC     45       HOAC     H1       HDA3A    0.920000E-01   1.00800           0   0.00000       0.00000    
     12150 HOAC     45       HOAC     H2       HDA3A    0.920000E-01   1.00800           0   0.00000       0.00000    
     12151 HOAC     45       HOAC     H3       HDA3A    0.920000E-01   1.00800           0   0.00000       0.00000    
     12152 HOAC     45       HOAC     O1       OD2C3A    2.35650       15.5994           0 -0.922000       1.53900    
     12153 HOAC     45       HOAC     DO1      DRUD     -2.35650      0.400000           0   0.00000       0.00000    
     12154 HOAC     45       HOAC     O2       OD31F     2.77650       15.5990           0  -1.28000       1.12400    
     12155 HOAC     45       HOAC     DO2      DRUD     -2.77650      0.400000           0   0.00000       0.00000    
     12156 HOAC     45       HOAC     H        HDP1A    0.374000       1.00800           0   0.00000       0.00000    
     12157 HOAC     45       HOAC     LPO11    LPD     -0.319000       0.00000          -1   0.00000       0.00000    
     12158 HOAC     45       HOAC     LPO12    LPD     -0.319000       0.00000          -1   0.00000       0.00000    
     12159 HOAC     45       HOAC     LPO21    LPD     -0.285000       0.00000          -1   0.00000       0.00000    
     12160 HOAC     45       HOAC     LPO22    LPD     -0.285000       0.00000          -1   0.00000       0.00000    
     12161 HOAC     46       HOAC     C1       CD2O3A    3.55420       11.6110           0  -1.20700      0.708000    
     12162 HOAC     46       HOAC     DC1      DRUD     -2.69620      0.400000           0   0.00000       0.00000    
     12163 HOAC     46       HOAC     C2       CD33C     3.26820       11.6110           0  -2.11400      0.750000    
     12164 HOAC     46       HOAC     DC2      DRUD     -3.56820      0.400000           0   0.00000       0.00000    
     12165 HOAC     46       HOAC     H1       HDA3A    0.920000E-01   1.00800           0   0.00000       0.00000    
     12166 HOAC     46       HOAC     H2       HDA3A    0.920000E-01   1.00800           0   0.00000       0.00000    
     12167 HOAC     46       HOAC     H3       HDA3A    0.920000E-01   1.00800           0   0.00000       0.00000    
     12168 HOAC     46       HOAC     O1       OD2C3A    2.35650       15.5994           0 -0.922000       1.53900    
     12169 HOAC     46       HOAC     DO1      DRUD     -2.35650      0.400000           0   0.00000       0.00000    
     12170 HOAC     46       HOAC     O2       OD31F     2.77650       15.5990           0  -1.28000       1.12400    
     12171 HOAC     46       HOAC     DO2      DRUD     -2.77650      0.400000           0   0.00000       0.00000    
     12172 HOAC     46       HOAC     H        HDP1A    0.374000       1.00800           0   0.00000       0.00000    
     12173 HOAC     46       HOAC     LPO11    LPD     -0.319000       0.00000          -1   0.00000       0.00000    
     12174 HOAC     46       HOAC     LPO12    LPD     -0.319000       0.00000          -1   0.00000       0.00000    
     12175 HOAC     46       HOAC     LPO21    LPD     -0.285000       0.00000          -1   0.00000       0.00000    
     12176 HOAC     46       HOAC     LPO22    LPD     -0.285000       0.00000          -1   0.00000       0.00000    
     12177 HOAC     47       HOAC     C1       CD2O3A    3.55420       11.6110           0  -1.20700      0.708000    
     12178 HOAC     47       HOAC     DC1      DRUD     -2.69620      0.400000           0   0.00000       0.00000    
     12179 HOAC     47       HOAC     C2       CD33C     3.26820       11.6110           0  -2.11400      0.750000    
     12180 HOAC     47       HOAC     DC2      DRUD     -3.56820      0.400000           0   0.00000       0.00000    
     12181 HOAC     47       HOAC     H1       HDA3A    0.920000E-01   1.00800           0   0.00000       0.00000    
     12182 HOAC     47       HOAC     H2       HDA3A    0.920000E-01   1.00800           0   0.00000       0.00000    
     12183 HOAC     47       HOAC     H3       HDA3A    0.920000E-01   1.00800           0   0.00000       0.00000    
     12184 HOAC     47       HOAC     O1       OD2C3A    2.35650       15.5994           0 -0.922000       1.53900    
     12185 HOAC     47       HOAC     DO1      DRUD     -2.35650      0.400000           0   0.00000       0.00000    
     12186 HOAC     47       HOAC     O2       OD31F     2.77650       15.5990           0  -1.28000       1.12400    
     12187 HOAC     47       HOAC     DO2      DRUD     -2.77650      0.400000           0   0.00000       0.00000    
     12188 HOAC     47       HOAC     H        HDP1A    0.374000       1.00800           0   0.00000       0.00000    
     12189 HOAC     47       HOAC     LPO11    LPD     -0.319000       0.00000          -1   0.00000       0.00000    
     12190 HOAC     47       HOAC     LPO12    LPD     -0.319000       0.00000          -1   0.00000       0.00000    
     12191 HOAC     47       HOAC     LPO21    LPD     -0.285000       0.00000          -1   0.00000       0.00000    
     12192 HOAC     47       HOAC     LPO22    LPD     -0.285000       0.00000          -1   0.00000       0.00000    
     12193 HOAC     48       HOAC     C1       CD2O3A    3.55420       11.6110           0  -1.20700      0.708000    
     12194 HOAC     48       HOAC     DC1      DRUD     -2.69620      0.400000           0   0.00000       0.00000    
     12195 HOAC     48       HOAC     C2       CD33C     3.26820       11.6110           0  -2.11400      0.750000    
     12196 HOAC     48       HOAC     DC2      DRUD     -3.56820      0.400000           0   0.00000       0.00000    
     12197 HOAC     48       HOAC     H1       HDA3A    0.920000E-01   1.00800           0   0.00000       0.00000    
     12198 HOAC     48       HOAC     H2       HDA3A    0.920000E-01   1.00800           0   0.00000       0.00000    
     12199 HOAC     48       HOAC     H3       HDA3A    0.920000E-01   1.00800           0   0.00000       0.00000    
     12200 HOAC     48       HOAC     O1       OD2C3A    2.35650       15.5994           0 -0.922000       1.53900    
     12201 HOAC     48       HOAC     DO1      DRUD     -2.35650      0.400000           0   0.00000       0.00000    
     12202 HOAC     48       HOAC     O2       OD31F     2.77650       15.5990           0  -1.28000       1.12400    
     12203 HOAC     48       HOAC     DO2      DRUD     -2.77650      0.400000           0   0.00000       0.00000    
     12204 HOAC     48       HOAC     H        HDP1A    0.374000       1.00800           0   0.00000       0.00000    
     12205 HOAC     48       HOAC     LPO11    LPD     -0.319000       0.00000          -1   0.00000       0.00000    
     12206 HOAC     48       HOAC     LPO12    LPD     -0.319000       0.00000          -1   0.00000       0.00000    
     12207 HOAC     48       HOAC     LPO21    LPD     -0.285000       0.00000          -1   0.00000       0.00000    
     12208 HOAC     48       HOAC     LPO22    LPD     -0.285000       0.00000          -1   0.00000       0.00000    
     12209 HOAC     49       HOAC     C1       CD2O3A    3.55420       11.6110           0  -1.20700      0.708000    
     12210 HOAC     49       HOAC     DC1      DRUD     -2.69620      0.400000           0   0.00000       0.00000    
     12211 HOAC     49       HOAC     C2       CD33C     3.26820       11.6110           0  -2.11400      0.750000    
     12212 HOAC     49       HOAC     DC2      DRUD     -3.56820      0.400000           0   0.00000       0.00000    
     12213 HOAC     49       HOAC     H1       HDA3A    0.920000E-01   1.00800           0   0.00000       0.00000    
     12214 HOAC     49       HOAC     H2       HDA3A    0.920000E-01   1.00800           0   0.00000       0.00000    
     12215 HOAC     49       HOAC     H3       HDA3A    0.920000E-01   1.00800           0   0.00000       0.00000    
     12216 HOAC     49       HOAC     O1       OD2C3A    2.35650       15.5994           0 -0.922000       1.53900    
     12217 HOAC     49       HOAC     DO1      DRUD     -2.35650      0.400000           0   0.00000       0.00000    
     12218 HOAC     49       HOAC     O2       OD31F     2.77650       15.5990           0  -1.28000       1.12400    
     12219 HOAC     49       HOAC     DO2      DRUD     -2.77650      0.400000           0   0.00000       0.00000    
     12220 HOAC     49       HOAC     H        HDP1A    0.374000       1.00800           0   0.00000       0.00000    
     12221 HOAC     49       HOAC     LPO11    LPD     -0.319000       0.00000          -1   0.00000       0.00000    
     12222 HOAC     49       HOAC     LPO12    LPD     -0.319000       0.00000          -1   0.00000       0.00000    
     12223 HOAC     49       HOAC     LPO21    LPD     -0.285000       0.00000          -1   0.00000       0.00000    
     12224 HOAC     49       HOAC     LPO22    LPD     -0.285000       0.00000          -1   0.00000       0.00000    
     12225 HOAC     50       HOAC     C1       CD2O3A    3.55420       11.6110           0  -1.20700      0.708000    
     12226 HOAC     50       HOAC     DC1      DRUD     -2.69620      0.400000           0   0.00000       0.00000    
     12227 HOAC     50       HOAC     C2       CD33C     3.26820       11.6110           0  -2.11400      0.750000    
     12228 HOAC     50       HOAC     DC2      DRUD     -3.56820      0.400000           0   0.00000       0.00000    
     12229 HOAC     50       HOAC     H1       HDA3A    0.920000E-01   1.00800           0   0.00000       0.00000    
     12230 HOAC     50       HOAC     H2       HDA3A    0.920000E-01   1.00800           0   0.00000       0.00000    
     12231 HOAC     50       HOAC     H3       HDA3A    0.920000E-01   1.00800           0   0.00000       0.00000    
     12232 HOAC     50       HOAC     O1       OD2C3A    2.35650       15.5994           0 -0.922000       1.53900    
     12233 HOAC     50       HOAC     DO1      DRUD     -2.35650      0.400000           0   0.00000       0.00000    
     12234 HOAC     50       HOAC     O2       OD31F     2.77650       15.5990           0  -1.28000       1.12400    
     12235 HOAC     50       HOAC     DO2      DRUD     -2.77650      0.400000           0   0.00000       0.00000    
     12236 HOAC     50       HOAC     H        HDP1A    0.374000       1.00800           0   0.00000       0.00000    
     12237 HOAC     50       HOAC     LPO11    LPD     -0.319000       0.00000          -1   0.00000       0.00000    
     12238 HOAC     50       HOAC     LPO12    LPD     -0.319000       0.00000          -1   0.00000       0.00000    
     12239 HOAC     50       HOAC     LPO21    LPD     -0.285000       0.00000          -1   0.00000       0.00000    
     12240 HOAC     50       HOAC     LPO22    LPD     -0.285000       0.00000          -1   0.00000       0.00000    
     12241 HOAC     51       HOAC     C1       CD2O3A    3.55420       11.6110           0  -1.20700      0.708000    
     12242 HOAC     51       HOAC     DC1      DRUD     -2.69620      0.400000           0   0.00000       0.00000    
     12243 HOAC     51       HOAC     C2       CD33C     3.26820       11.6110           0  -2.11400      0.750000    
     12244 HOAC     51       HOAC     DC2      DRUD     -3.56820      0.400000           0   0.00000       0.00000    
     12245 HOAC     51       HOAC     H1       HDA3A    0.920000E-01   1.00800           0   0.00000       0.00000    
     12246 HOAC     51       HOAC     H2       HDA3A    0.920000E-01   1.00800           0   0.00000       0.00000    
     12247 HOAC     51       HOAC     H3       HDA3A    0.920000E-01   1.00800           0   0.00000       0.00000    
     12248 HOAC     51       HOAC     O1       OD2C3A    2.35650       15.5994           0 -0.922000       1.53900    
     12249 HOAC     51       HOAC     DO1      DRUD     -2.35650      0.400000           0   0.00000       0.00000    
     12250 HOAC     51       HOAC     O2       OD31F     2.77650       15.5990           0  -1.28000       1.12400    
     12251 HOAC     51       HOAC     DO2      DRUD     -2.77650      0.400000           0   0.00000       0.00000    
     12252 HOAC     51       HOAC     H        HDP1A    0.374000       1.00800           0   0.00000       0.00000    
     12253 HOAC     51       HOAC     LPO11    LPD     -0.319000       0.00000          -1   0.00000       0.00000    
     12254 HOAC     51       HOAC     LPO12    LPD     -0.319000       0.00000          -1   0.00000       0.00000    
     12255 HOAC     51       HOAC     LPO21    LPD     -0.285000       0.00000          -1   0.00000       0.00000    
     12256 HOAC     51       HOAC     LPO22    LPD     -0.285000       0.00000          -1   0.00000       0.00000    
     12257 HOAC     52       HOAC     C1       CD2O3A    3.55420       11.6110           0  -1.20700      0.708000    
     12258 HOAC     52       HOAC     DC1      DRUD     -2.69620      0.400000           0   0.00000       0.00000    
     12259 HOAC     52       HOAC     C2       CD33C     3.26820       11.6110           0  -2.11400      0.750000    
     12260 HOAC     52       HOAC     DC2      DRUD     -3.56820      0.400000           0   0.00000       0.00000    
     12261 HOAC     52       HOAC     H1       HDA3A    0.920000E-01   1.00800           0   0.00000       0.00000    
     12262 HOAC     52       HOAC     H2       HDA3A    0.920000E-01   1.00800           0   0.00000       0.00000    
     12263 HOAC     52       HOAC     H3       HDA3A    0.920000E-01   1.00800           0   0.00000       0.00000    
     12264 HOAC     52       HOAC     O1       OD2C3A    2.35650       15.5994           0 -0.922000       1.53900    
     12265 HOAC     52       HOAC     DO1      DRUD     -2.35650      0.400000           0   0.00000       0.00000    
     12266 HOAC     52       HOAC     O2       OD31F     2.77650       15.5990           0  -1.28000       1.12400    
     12267 HOAC     52       HOAC     DO2      DRUD     -2.77650      0.400000           0   0.00000       0.00000    
     12268 HOAC     52       HOAC     H        HDP1A    0.374000       1.00800           0   0.00000       0.00000    
     12269 HOAC     52       HOAC     LPO11    LPD     -0.319000       0.00000          -1   0.00000       0.00000    
     12270 HOAC     52       HOAC     LPO12    LPD     -0.319000       0.00000          -1   0.00000       0.00000    
     12271 HOAC     52       HOAC     LPO21    LPD     -0.285000       0.00000          -1   0.00000       0.00000    
     12272 HOAC     52       HOAC     LPO22    LPD     -0.285000       0.00000          -1   0.00000       0.00000    
     12273 HOAC     53       HOAC     C1       CD2O3A    3.55420       11.6110           0  -1.20700      0.708000    
     12274 HOAC     53       HOAC     DC1      DRUD     -2.69620      0.400000           0   0.00000       0.00000    
     12275 HOAC     53       HOAC     C2       CD33C     3.26820       11.6110           0  -2.11400      0.750000    
     12276 HOAC     53       HOAC     DC2      DRUD     -3.56820      0.400000           0   0.00000       0.00000    
     12277 HOAC     53       HOAC     H1       HDA3A    0.920000E-01   1.00800           0   0.00000       0.00000    
     12278 HOAC     53       HOAC     H2       HDA3A    0.920000E-01   1.00800           0   0.00000       0.00000    
     12279 HOAC     53       HOAC     H3       HDA3A    0.920000E-01   1.00800           0   0.00000       0.00000    
     12280 HOAC     53       HOAC     O1       OD2C3A    2.35650       15.5994           0 -0.922000       1.53900    
     12281 HOAC     53       HOAC     DO1      DRUD     -2.35650      0.400000           0   0.00000       0.00000    
     12282 HOAC     53       HOAC     O2       OD31F     2.77650       15.5990           0  -1.28000       1.12400    
     12283 HOAC     53       HOAC     DO2      DRUD     -2.77650      0.400000           0   0.00000       0.00000    
     12284 HOAC     53       HOAC     H        HDP1A    0.374000       1.00800           0   0.00000       0.00000    
     12285 HOAC     53       HOAC     LPO11    LPD     -0.319000       0.00000          -1   0.00000       0.00000    
     12286 HOAC     53       HOAC     LPO12    LPD     -0.319000       0.00000          -1   0.00000       0.00000    
     12287 HOAC     53       HOAC     LPO21    LPD     -0.285000       0.00000          -1   0.00000       0.00000    
     12288 HOAC     53       HOAC     LPO22    LPD     -0.285000       0.00000          -1   0.00000       0.00000    
     12289 HOAC     54       HOAC     C1       CD2O3A    3.55420       11.6110           0  -1.20700      0.708000    
     12290 HOAC     54       HOAC     DC1      DRUD     -2.69620      0.400000           0   0.00000       0.00000    
     12291 HOAC     54       HOAC     C2       CD33C     3.26820       11.6110           0  -2.11400      0.750000    
     12292 HOAC     54       HOAC     DC2      DRUD     -3.56820      0.400000           0   0.00000       0.00000    
     12293 HOAC     54       HOAC     H1       HDA3A    0.920000E-01   1.00800           0   0.00000       0.00000    
     12294 HOAC     54       HOAC     H2       HDA3A    0.920000E-01   1.00800           0   0.00000       0.00000    
     12295 HOAC     54       HOAC     H3       HDA3A    0.920000E-01   1.00800           0   0.00000       0.00000    
     12296 HOAC     54       HOAC     O1       OD2C3A    2.35650       15.5994           0 -0.922000       1.53900    
     12297 HOAC     54       HOAC     DO1      DRUD     -2.35650      0.400000           0   0.00000       0.00000    
     12298 HOAC     54       HOAC     O2       OD31F     2.77650       15.5990           0  -1.28000       1.12400    
     12299 HOAC     54       HOAC     DO2      DRUD     -2.77650      0.400000           0   0.00000       0.00000    
     12300 HOAC     54       HOAC     H        HDP1A    0.374000       1.00800           0   0.00000       0.00000    
     12301 HOAC     54       HOAC     LPO11    LPD     -0.319000       0.00000          -1   0.00000       0.00000    
     12302 HOAC     54       HOAC     LPO12    LPD     -0.319000       0.00000          -1   0.00000       0.00000    
     12303 HOAC     54       HOAC     LPO21    LPD     -0.285000       0.00000          -1   0.00000       0.00000    
     12304 HOAC     54       HOAC     LPO22    LPD     -0.285000       0.00000          -1   0.00000       0.00000    
     12305 HOAC     55       HOAC     C1       CD2O3A    3.55420       11.6110           0  -1.20700      0.708000    
     12306 HOAC     55       HOAC     DC1      DRUD     -2.69620      0.400000           0   0.00000       0.00000    
     12307 HOAC     55       HOAC     C2       CD33C     3.26820       11.6110           0  -2.11400      0.750000    
     12308 HOAC     55       HOAC     DC2      DRUD     -3.56820      0.400000           0   0.00000       0.00000    
     12309 HOAC     55       HOAC     H1       HDA3A    0.920000E-01   1.00800           0   0.00000       0.00000    
     12310 HOAC     55       HOAC     H2       HDA3A    0.920000E-01   1.00800           0   0.00000       0.00000    
     12311 HOAC     55       HOAC     H3       HDA3A    0.920000E-01   1.00800           0   0.00000       0.00000    
     12312 HOAC     55       HOAC     O1       OD2C3A    2.35650       15.5994           0 -0.922000       1.53900    
     12313 HOAC     55       HOAC     DO1      DRUD     -2.35650      0.400000           0   0.00000       0.00000    
     12314 HOAC     55       HOAC     O2       OD31F     2.77650       15.5990           0  -1.28000       1.12400    
     12315 HOAC     55       HOAC     DO2      DRUD     -2.77650      0.400000           0   0.00000       0.00000    
     12316 HOAC     55       HOAC     H        HDP1A    0.374000       1.00800           0   0.00000       0.00000    
     12317 HOAC     55       HOAC     LPO11    LPD     -0.319000       0.00000          -1   0.00000       0.00000    
     12318 HOAC     55       HOAC     LPO12    LPD     -0.319000       0.00000          -1   0.00000       0.00000    
     12319 HOAC     55       HOAC     LPO21    LPD     -0.285000       0.00000          -1   0.00000       0.00000    
     12320 HOAC     55       HOAC     LPO22    LPD     -0.285000       0.00000          -1   0.00000       0.00000    
     12321 HOAC     56       HOAC     C1       CD2O3A    3.55420       11.6110           0  -1.20700      0.708000    
     12322 HOAC     56       HOAC     DC1      DRUD     -2.69620      0.400000           0   0.00000       0.00000    
     12323 HOAC     56       HOAC     C2       CD33C     3.26820       11.6110           0  -2.11400      0.750000    
     12324 HOAC     56       HOAC     DC2      DRUD     -3.56820      0.400000           0   0.00000       0.00000    
     12325 HOAC     56       HOAC     H1       HDA3A    0.920000E-01   1.00800           0   0.00000       0.00000    
     12326 HOAC     56       HOAC     H2       HDA3A    0.920000E-01   1.00800           0   0.00000       0.00000    
     12327 HOAC     56       HOAC     H3       HDA3A    0.920000E-01   1.00800           0   0.00000       0.00000    
     12328 HOAC     56       HOAC     O1       OD2C3A    2.35650       15.5994           0 -0.922000       1.53900    
     12329 HOAC     56       HOAC     DO1      DRUD     -2.35650      0.400000           0   0.00000       0.00000    
     12330 HOAC     56       HOAC     O2       OD31F     2.77650       15.5990           0  -1.28000       1.12400    
     12331 HOAC     56       HOAC     DO2      DRUD     -2.77650      0.400000           0   0.00000       0.00000    
     12332 HOAC     56       HOAC     H        HDP1A    0.374000       1.00800           0   0.00000       0.00000    
     12333 HOAC     56       HOAC     LPO11    LPD     -0.319000       0.00000          -1   0.00000       0.00000    
     12334 HOAC     56       HOAC     LPO12    LPD     -0.319000       0.00000          -1   0.00000       0.00000    
     12335 HOAC     56       HOAC     LPO21    LPD     -0.285000       0.00000          -1   0.00000       0.00000    
     12336 HOAC     56       HOAC     LPO22    LPD     -0.285000       0.00000          -1   0.00000       0.00000    
     12337 HOAC     57       HOAC     C1       CD2O3A    3.55420       11.6110           0  -1.20700      0.708000    
     12338 HOAC     57       HOAC     DC1      DRUD     -2.69620      0.400000           0   0.00000       0.00000    
     12339 HOAC     57       HOAC     C2       CD33C     3.26820       11.6110           0  -2.11400      0.750000    
     12340 HOAC     57       HOAC     DC2      DRUD     -3.56820      0.400000           0   0.00000       0.00000    
     12341 HOAC     57       HOAC     H1       HDA3A    0.920000E-01   1.00800           0   0.00000       0.00000    
     12342 HOAC     57       HOAC     H2       HDA3A    0.920000E-01   1.00800           0   0.00000       0.00000    
     12343 HOAC     57       HOAC     H3       HDA3A    0.920000E-01   1.00800           0   0.00000       0.00000    
     12344 HOAC     57       HOAC     O1       OD2C3A    2.35650       15.5994           0 -0.922000       1.53900    
     12345 HOAC     57       HOAC     DO1      DRUD     -2.35650      0.400000           0   0.00000       0.00000    
     12346 HOAC     57       HOAC     O2       OD31F     2.77650       15.5990           0  -1.28000       1.12400    
     12347 HOAC     57       HOAC     DO2      DRUD     -2.77650      0.400000           0   0.00000       0.00000    
     12348 HOAC     57       HOAC     H        HDP1A    0.374000       1.00800           0   0.00000       0.00000    
     12349 HOAC     57       HOAC     LPO11    LPD     -0.319000       0.00000          -1   0.00000       0.00000    
     12350 HOAC     57       HOAC     LPO12    LPD     -0.319000       0.00000          -1   0.00000       0.00000    
     12351 HOAC     57       HOAC     LPO21    LPD     -0.285000       0.00000          -1   0.00000       0.00000    
     12352 HOAC     57       HOAC     LPO22    LPD     -0.285000       0.00000          -1   0.00000       0.00000    
     12353 HOAC     58       HOAC     C1       CD2O3A    3.55420       11.6110           0  -1.20700      0.708000    
     12354 HOAC     58       HOAC     DC1      DRUD     -2.69620      0.400000           0   0.00000       0.00000    
     12355 HOAC     58       HOAC     C2       CD33C     3.26820       11.6110           0  -2.11400      0.750000    
     12356 HOAC     58       HOAC     DC2      DRUD     -3.56820      0.400000           0   0.00000       0.00000    
     12357 HOAC     58       HOAC     H1       HDA3A    0.920000E-01   1.00800           0   0.00000       0.00000    
     12358 HOAC     58       HOAC     H2       HDA3A    0.920000E-01   1.00800           0   0.00000       0.00000    
     12359 HOAC     58       HOAC     H3       HDA3A    0.920000E-01   1.00800           0   0.00000       0.00000    
     12360 HOAC     58       HOAC     O1       OD2C3A    2.35650       15.5994           0 -0.922000       1.53900    
     12361 HOAC     58       HOAC     DO1      DRUD     -2.35650      0.400000           0   0.00000       0.00000    
     12362 HOAC     58       HOAC     O2       OD31F     2.77650       15.5990           0  -1.28000       1.12400    
     12363 HOAC     58       HOAC     DO2      DRUD     -2.77650      0.400000           0   0.00000       0.00000    
     12364 HOAC     58       HOAC     H        HDP1A    0.374000       1.00800           0   0.00000       0.00000    
     12365 HOAC     58       HOAC     LPO11    LPD     -0.319000       0.00000          -1   0.00000       0.00000    
     12366 HOAC     58       HOAC     LPO12    LPD     -0.319000       0.00000          -1   0.00000       0.00000    
     12367 HOAC     58       HOAC     LPO21    LPD     -0.285000       0.00000          -1   0.00000       0.00000    
     12368 HOAC     58       HOAC     LPO22    LPD     -0.285000       0.00000          -1   0.00000       0.00000    
     12369 HOAC     59       HOAC     C1       CD2O3A    3.55420       11.6110           0  -1.20700      0.708000    
     12370 HOAC     59       HOAC     DC1      DRUD     -2.69620      0.400000           0   0.00000       0.00000    
     12371 HOAC     59       HOAC     C2       CD33C     3.26820       11.6110           0  -2.11400      0.750000    
     12372 HOAC     59       HOAC     DC2      DRUD     -3.56820      0.400000           0   0.00000       0.00000    
     12373 HOAC     59       HOAC     H1       HDA3A    0.920000E-01   1.00800           0   0.00000       0.00000    
     12374 HOAC     59       HOAC     H2       HDA3A    0.920000E-01   1.00800           0   0.00000       0.00000    
     12375 HOAC     59       HOAC     H3       HDA3A    0.920000E-01   1.00800           0   0.00000       0.00000    
     12376 HOAC     59       HOAC     O1       OD2C3A    2.35650       15.5994           0 -0.922000       1.53900    
     12377 HOAC     59       HOAC     DO1      DRUD     -2.35650      0.400000           0   0.00000       0.00000    
     12378 HOAC     59       HOAC     O2       OD31F     2.77650       15.5990           0  -1.28000       1.12400    
     12379 HOAC     59       HOAC     DO2      DRUD     -2.77650      0.400000           0   0.00000       0.00000    
     12380 HOAC     59       HOAC     H        HDP1A    0.374000       1.00800           0   0.00000       0.00000    
     12381 HOAC     59       HOAC     LPO11    LPD     -0.319000       0.00000          -1   0.00000       0.00000    
     12382 HOAC     59       HOAC     LPO12    LPD     -0.319000       0.00000          -1   0.00000       0.00000    
     12383 HOAC     59       HOAC     LPO21    LPD     -0.285000       0.00000          -1   0.00000       0.00000    
     12384 HOAC     59       HOAC     LPO22    LPD     -0.285000       0.00000          -1   0.00000       0.00000    
     12385 HOAC     60       HOAC     C1       CD2O3A    3.55420       11.6110           0  -1.20700      0.708000    
     12386 HOAC     60       HOAC     DC1      DRUD     -2.69620      0.400000           0   0.00000       0.00000    
     12387 HOAC     60       HOAC     C2       CD33C     3.26820       11.6110           0  -2.11400      0.750000    
     12388 HOAC     60       HOAC     DC2      DRUD     -3.56820      0.400000           0   0.00000       0.00000    
     12389 HOAC     60       HOAC     H1       HDA3A    0.920000E-01   1.00800           0   0.00000       0.00000    
     12390 HOAC     60       HOAC     H2       HDA3A    0.920000E-01   1.00800           0   0.00000       0.00000    
     12391 HOAC     60       HOAC     H3       HDA3A    0.920000E-01   1.00800           0   0.00000       0.00000    
     12392 HOAC     60       HOAC     O1       OD2C3A    2.35650       15.5994           0 -0.922000       1.53900    
     12393 HOAC     60       HOAC     DO1      DRUD     -2.35650      0.400000           0   0.00000       0.00000    
     12394 HOAC     60       HOAC     O2       OD31F     2.77650       15.5990           0  -1.28000       1.12400    
     12395 HOAC     60       HOAC     DO2      DRUD     -2.77650      0.400000           0   0.00000       0.00000    
     12396 HOAC     60       HOAC     H        HDP1A    0.374000       1.00800           0   0.00000       0.00000    
     12397 HOAC     60       HOAC     LPO11    LPD     -0.319000       0.00000          -1   0.00000       0.00000    
     12398 HOAC     60       HOAC     LPO12    LPD     -0.319000       0.00000          -1   0.00000       0.00000    
     12399 HOAC     60       HOAC     LPO21    LPD     -0.285000       0.00000          -1   0.00000       0.00000    
     12400 HOAC     60       HOAC     LPO22    LPD     -0.285000       0.00000          -1   0.00000       0.00000    
     12401 HOAC     61       HOAC     C1       CD2O3A    3.55420       11.6110           0  -1.20700      0.708000    
     12402 HOAC     61       HOAC     DC1      DRUD     -2.69620      0.400000           0   0.00000       0.00000    
     12403 HOAC     61       HOAC     C2       CD33C     3.26820       11.6110           0  -2.11400      0.750000    
     12404 HOAC     61       HOAC     DC2      DRUD     -3.56820      0.400000           0   0.00000       0.00000    
     12405 HOAC     61       HOAC     H1       HDA3A    0.920000E-01   1.00800           0   0.00000       0.00000    
     12406 HOAC     61       HOAC     H2       HDA3A    0.920000E-01   1.00800           0   0.00000       0.00000    
     12407 HOAC     61       HOAC     H3       HDA3A    0.920000E-01   1.00800           0   0.00000       0.00000    
     12408 HOAC     61       HOAC     O1       OD2C3A    2.35650       15.5994           0 -0.922000       1.53900    
     12409 HOAC     61       HOAC     DO1      DRUD     -2.35650      0.400000           0   0.00000       0.00000    
     12410 HOAC     61       HOAC     O2       OD31F     2.77650       15.5990           0  -1.28000       1.12400    
     12411 HOAC     61       HOAC     DO2      DRUD     -2.77650      0.400000           0   0.00000       0.00000    
     12412 HOAC     61       HOAC     H        HDP1A    0.374000       1.00800           0   0.00000       0.00000    
     12413 HOAC     61       HOAC     LPO11    LPD     -0.319000       0.00000          -1   0.00000       0.00000    
     12414 HOAC     61       HOAC     LPO12    LPD     -0.319000       0.00000          -1   0.00000       0.00000    
     12415 HOAC     61       HOAC     LPO21    LPD     -0.285000       0.00000          -1   0.00000       0.00000    
     12416 HOAC     61       HOAC     LPO22    LPD     -0.285000       0.00000          -1   0.00000       0.00000    
     12417 HOAC     62       HOAC     C1       CD2O3A    3.55420       11.6110           0  -1.20700      0.708000    
     12418 HOAC     62       HOAC     DC1      DRUD     -2.69620      0.400000           0   0.00000       0.00000    
     12419 HOAC     62       HOAC     C2       CD33C     3.26820       11.6110           0  -2.11400      0.750000    
     12420 HOAC     62       HOAC     DC2      DRUD     -3.56820      0.400000           0   0.00000       0.00000    
     12421 HOAC     62       HOAC     H1       HDA3A    0.920000E-01   1.00800           0   0.00000       0.00000    
     12422 HOAC     62       HOAC     H2       HDA3A    0.920000E-01   1.00800           0   0.00000       0.00000    
     12423 HOAC     62       HOAC     H3       HDA3A    0.920000E-01   1.00800           0   0.00000       0.00000    
     12424 HOAC     62       HOAC     O1       OD2C3A    2.35650       15.5994           0 -0.922000       1.53900    
     12425 HOAC     62       HOAC     DO1      DRUD     -2.35650      0.400000           0   0.00000       0.00000    
     12426 HOAC     62       HOAC     O2       OD31F     2.77650       15.5990           0  -1.28000       1.12400    
     12427 HOAC     62       HOAC     DO2      DRUD     -2.77650      0.400000           0   0.00000       0.00000    
     12428 HOAC     62       HOAC     H        HDP1A    0.374000       1.00800           0   0.00000       0.00000    
     12429 HOAC     62       HOAC     LPO11    LPD     -0.319000       0.00000          -1   0.00000       0.00000    
     12430 HOAC     62       HOAC     LPO12    LPD     -0.319000       0.00000          -1   0.00000       0.00000    
     12431 HOAC     62       HOAC     LPO21    LPD     -0.285000       0.00000          -1   0.00000       0.00000    
     12432 HOAC     62       HOAC     LPO22    LPD     -0.285000       0.00000          -1   0.00000       0.00000    
     12433 HOAC     63       HOAC     C1       CD2O3A    3.55420       11.6110           0  -1.20700      0.708000    
     12434 HOAC     63       HOAC     DC1      DRUD     -2.69620      0.400000           0   0.00000       0.00000    
     12435 HOAC     63       HOAC     C2       CD33C     3.26820       11.6110           0  -2.11400      0.750000    
     12436 HOAC     63       HOAC     DC2      DRUD     -3.56820      0.400000           0   0.00000       0.00000    
     12437 HOAC     63       HOAC     H1       HDA3A    0.920000E-01   1.00800           0   0.00000       0.00000    
     12438 HOAC     63       HOAC     H2       HDA3A    0.920000E-01   1.00800           0   0.00000       0.00000    
     12439 HOAC     63       HOAC     H3       HDA3A    0.920000E-01   1.00800           0   0.00000       0.00000    
     12440 HOAC     63       HOAC     O1       OD2C3A    2.35650       15.5994           0 -0.922000       1.53900    
     12441 HOAC     63       HOAC     DO1      DRUD     -2.35650      0.400000           0   0.00000       0.00000    
     12442 HOAC     63       HOAC     O2       OD31F     2.77650       15.5990           0  -1.28000       1.12400    
     12443 HOAC     63       HOAC     DO2      DRUD     -2.77650      0.400000           0   0.00000       0.00000    
     12444 HOAC     63       HOAC     H        HDP1A    0.374000       1.00800           0   0.00000       0.00000    
     12445 HOAC     63       HOAC     LPO11    LPD     -0.319000       0.00000          -1   0.00000       0.00000    
     12446 HOAC     63       HOAC     LPO12    LPD     -0.319000       0.00000          -1   0.00000       0.00000    
     12447 HOAC     63       HOAC     LPO21    LPD     -0.285000       0.00000          -1   0.00000       0.00000    
     12448 HOAC     63       HOAC     LPO22    LPD     -0.285000       0.00000          -1   0.00000       0.00000    
     12449 HOAC     64       HOAC     C1       CD2O3A    3.55420       11.6110           0  -1.20700      0.708000    
     12450 HOAC     64       HOAC     DC1      DRUD     -2.69620      0.400000           0   0.00000       0.00000    
     12451 HOAC     64       HOAC     C2       CD33C     3.26820       11.6110           0  -2.11400      0.750000    
     12452 HOAC     64       HOAC     DC2      DRUD     -3.56820      0.400000           0   0.00000       0.00000    
     12453 HOAC     64       HOAC     H1       HDA3A    0.920000E-01   1.00800           0   0.00000       0.00000    
     12454 HOAC     64       HOAC     H2       HDA3A    0.920000E-01   1.00800           0   0.00000       0.00000    
     12455 HOAC     64       HOAC     H3       HDA3A    0.920000E-01   1.00800           0   0.00000       0.00000    
     12456 HOAC     64       HOAC     O1       OD2C3A    2.35650       15.5994           0 -0.922000       1.53900    
     12457 HOAC     64       HOAC     DO1      DRUD     -2.35650      0.400000           0   0.00000       0.00000    
     12458 HOAC     64       HOAC     O2       OD31F     2.77650       15.5990           0  -1.28000       1.12400    
     12459 HOAC     64       HOAC     DO2      DRUD     -2.77650      0.400000           0   0.00000       0.00000    
     12460 HOAC     64       HOAC     H        HDP1A    0.374000       1.00800           0   0.00000       0.00000    
     12461 HOAC     64       HOAC     LPO11    LPD     -0.319000       0.00000          -1   0.00000       0.00000    
     12462 HOAC     64       HOAC     LPO12    LPD     -0.319000       0.00000          -1   0.00000       0.00000    
     12463 HOAC     64       HOAC     LPO21    LPD     -0.285000       0.00000          -1   0.00000       0.00000    
     12464 HOAC     64       HOAC     LPO22    LPD     -0.285000       0.00000          -1   0.00000       0.00000    
     12465 HOAC     65       HOAC     C1       CD2O3A    3.55420       11.6110           0  -1.20700      0.708000    
     12466 HOAC     65       HOAC     DC1      DRUD     -2.69620      0.400000           0   0.00000       0.00000    
     12467 HOAC     65       HOAC     C2       CD33C     3.26820       11.6110           0  -2.11400      0.750000    
     12468 HOAC     65       HOAC     DC2      DRUD     -3.56820      0.400000           0   0.00000       0.00000    
     12469 HOAC     65       HOAC     H1       HDA3A    0.920000E-01   1.00800           0   0.00000       0.00000    
     12470 HOAC     65       HOAC     H2       HDA3A    0.920000E-01   1.00800           0   0.00000       0.00000    
     12471 HOAC     65       HOAC     H3       HDA3A    0.920000E-01   1.00800           0   0.00000       0.00000    
     12472 HOAC     65       HOAC     O1       OD2C3A    2.35650       15.5994           0 -0.922000       1.53900    
     12473 HOAC     65       HOAC     DO1      DRUD     -2.35650      0.400000           0   0.00000       0.00000    
     12474 HOAC     65       HOAC     O2       OD31F     2.77650       15.5990           0  -1.28000       1.12400    
     12475 HOAC     65       HOAC     DO2      DRUD     -2.77650      0.400000           0   0.00000       0.00000    
     12476 HOAC     65       HOAC     H        HDP1A    0.374000       1.00800           0   0.00000       0.00000    
     12477 HOAC     65       HOAC     LPO11    LPD     -0.319000       0.00000          -1   0.00000       0.00000    
     12478 HOAC     65       HOAC     LPO12    LPD     -0.319000       0.00000          -1   0.00000       0.00000    
     12479 HOAC     65       HOAC     LPO21    LPD     -0.285000       0.00000          -1   0.00000       0.00000    
     12480 HOAC     65       HOAC     LPO22    LPD     -0.285000       0.00000          -1   0.00000       0.00000    
     12481 HOAC     66       HOAC     C1       CD2O3A    3.55420       11.6110           0  -1.20700      0.708000    
     12482 HOAC     66       HOAC     DC1      DRUD     -2.69620      0.400000           0   0.00000       0.00000    
     12483 HOAC     66       HOAC     C2       CD33C     3.26820       11.6110           0  -2.11400      0.750000    
     12484 HOAC     66       HOAC     DC2      DRUD     -3.56820      0.400000           0   0.00000       0.00000    
     12485 HOAC     66       HOAC     H1       HDA3A    0.920000E-01   1.00800           0   0.00000       0.00000    
     12486 HOAC     66       HOAC     H2       HDA3A    0.920000E-01   1.00800           0   0.00000       0.00000    
     12487 HOAC     66       HOAC     H3       HDA3A    0.920000E-01   1.00800           0   0.00000       0.00000    
     12488 HOAC     66       HOAC     O1       OD2C3A    2.35650       15.5994           0 -0.922000       1.53900    
     12489 HOAC     66       HOAC     DO1      DRUD     -2.35650      0.400000           0   0.00000       0.00000    
     12490 HOAC     66       HOAC     O2       OD31F     2.77650       15.5990           0  -1.28000       1.12400    
     12491 HOAC     66       HOAC     DO2      DRUD     -2.77650      0.400000           0   0.00000       0.00000    
     12492 HOAC     66       HOAC     H        HDP1A    0.374000       1.00800           0   0.00000       0.00000    
     12493 HOAC     66       HOAC     LPO11    LPD     -0.319000       0.00000          -1   0.00000       0.00000    
     12494 HOAC     66       HOAC     LPO12    LPD     -0.319000       0.00000          -1   0.00000       0.00000    
     12495 HOAC     66       HOAC     LPO21    LPD     -0.285000       0.00000          -1   0.00000       0.00000    
     12496 HOAC     66       HOAC     LPO22    LPD     -0.285000       0.00000          -1   0.00000       0.00000    
     12497 HOAC     67       HOAC     C1       CD2O3A    3.55420       11.6110           0  -1.20700      0.708000    
     12498 HOAC     67       HOAC     DC1      DRUD     -2.69620      0.400000           0   0.00000       0.00000    
     12499 HOAC     67       HOAC     C2       CD33C     3.26820       11.6110           0  -2.11400      0.750000    
     12500 HOAC     67       HOAC     DC2      DRUD     -3.56820      0.400000           0   0.00000       0.00000    
     12501 HOAC     67       HOAC     H1       HDA3A    0.920000E-01   1.00800           0   0.00000       0.00000    
     12502 HOAC     67       HOAC     H2       HDA3A    0.920000E-01   1.00800           0   0.00000       0.00000    
     12503 HOAC     67       HOAC     H3       HDA3A    0.920000E-01   1.00800           0   0.00000       0.00000    
     12504 HOAC     67       HOAC     O1       OD2C3A    2.35650       15.5994           0 -0.922000       1.53900    
     12505 HOAC     67       HOAC     DO1      DRUD     -2.35650      0.400000           0   0.00000       0.00000    
     12506 HOAC     67       HOAC     O2       OD31F     2.77650       15.5990           0  -1.28000       1.12400    
     12507 HOAC     67       HOAC     DO2      DRUD     -2.77650      0.400000           0   0.00000       0.00000    
     12508 HOAC     67       HOAC     H        HDP1A    0.374000       1.00800           0   0.00000       0.00000    
     12509 HOAC     67       HOAC     LPO11    LPD     -0.319000       0.00000          -1   0.00000       0.00000    
     12510 HOAC     67       HOAC     LPO12    LPD     -0.319000       0.00000          -1   0.00000       0.00000    
     12511 HOAC     67       HOAC     LPO21    LPD     -0.285000       0.00000          -1   0.00000       0.00000    
     12512 HOAC     67       HOAC     LPO22    LPD     -0.285000       0.00000          -1   0.00000       0.00000    
     12513 HOAC     68       HOAC     C1       CD2O3A    3.55420       11.6110           0  -1.20700      0.708000    
     12514 HOAC     68       HOAC     DC1      DRUD     -2.69620      0.400000           0   0.00000       0.00000    
     12515 HOAC     68       HOAC     C2       CD33C     3.26820       11.6110           0  -2.11400      0.750000    
     12516 HOAC     68       HOAC     DC2      DRUD     -3.56820      0.400000           0   0.00000       0.00000    
     12517 HOAC     68       HOAC     H1       HDA3A    0.920000E-01   1.00800           0   0.00000       0.00000    
     12518 HOAC     68       HOAC     H2       HDA3A    0.920000E-01   1.00800           0   0.00000       0.00000    
     12519 HOAC     68       HOAC     H3       HDA3A    0.920000E-01   1.00800           0   0.00000       0.00000    
     12520 HOAC     68       HOAC     O1       OD2C3A    2.35650       15.5994           0 -0.922000       1.53900    
     12521 HOAC     68       HOAC     DO1      DRUD     -2.35650      0.400000           0   0.00000       0.00000    
     12522 HOAC     68       HOAC     O2       OD31F     2.77650       15.5990           0  -1.28000       1.12400    
     12523 HOAC     68       HOAC     DO2      DRUD     -2.77650      0.400000           0   0.00000       0.00000    
     12524 HOAC     68       HOAC     H        HDP1A    0.374000       1.00800           0   0.00000       0.00000    
     12525 HOAC     68       HOAC     LPO11    LPD     -0.319000       0.00000          -1   0.00000       0.00000    
     12526 HOAC     68       HOAC     LPO12    LPD     -0.319000       0.00000          -1   0.00000       0.00000    
     12527 HOAC     68       HOAC     LPO21    LPD     -0.285000       0.00000          -1   0.00000       0.00000    
     12528 HOAC     68       HOAC     LPO22    LPD     -0.285000       0.00000          -1   0.00000       0.00000    
     12529 HOAC     69       HOAC     C1       CD2O3A    3.55420       11.6110           0  -1.20700      0.708000    
     12530 HOAC     69       HOAC     DC1      DRUD     -2.69620      0.400000           0   0.00000       0.00000    
     12531 HOAC     69       HOAC     C2       CD33C     3.26820       11.6110           0  -2.11400      0.750000    
     12532 HOAC     69       HOAC     DC2      DRUD     -3.56820      0.400000           0   0.00000       0.00000    
     12533 HOAC     69       HOAC     H1       HDA3A    0.920000E-01   1.00800           0   0.00000       0.00000    
     12534 HOAC     69       HOAC     H2       HDA3A    0.920000E-01   1.00800           0   0.00000       0.00000    
     12535 HOAC     69       HOAC     H3       HDA3A    0.920000E-01   1.00800           0   0.00000       0.00000    
     12536 HOAC     69       HOAC     O1       OD2C3A    2.35650       15.5994           0 -0.922000       1.53900    
     12537 HOAC     69       HOAC     DO1      DRUD     -2.35650      0.400000           0   0.00000       0.00000    
     12538 HOAC     69       HOAC     O2       OD31F     2.77650       15.5990           0  -1.28000       1.12400    
     12539 HOAC     69       HOAC     DO2      DRUD     -2.77650      0.400000           0   0.00000       0.00000    
     12540 HOAC     69       HOAC     H        HDP1A    0.374000       1.00800           0   0.00000       0.00000    
     12541 HOAC     69       HOAC     LPO11    LPD     -0.319000       0.00000          -1   0.00000       0.00000    
     12542 HOAC     69       HOAC     LPO12    LPD     -0.319000       0.00000          -1   0.00000       0.00000    
     12543 HOAC     69       HOAC     LPO21    LPD     -0.285000       0.00000          -1   0.00000       0.00000    
     12544 HOAC     69       HOAC     LPO22    LPD     -0.285000       0.00000          -1   0.00000       0.00000    
     12545 HOAC     70       HOAC     C1       CD2O3A    3.55420       11.6110           0  -1.20700      0.708000    
     12546 HOAC     70       HOAC     DC1      DRUD     -2.69620      0.400000           0   0.00000       0.00000    
     12547 HOAC     70       HOAC     C2       CD33C     3.26820       11.6110           0  -2.11400      0.750000    
     12548 HOAC     70       HOAC     DC2      DRUD     -3.56820      0.400000           0   0.00000       0.00000    
     12549 HOAC     70       HOAC     H1       HDA3A    0.920000E-01   1.00800           0   0.00000       0.00000    
     12550 HOAC     70       HOAC     H2       HDA3A    0.920000E-01   1.00800           0   0.00000       0.00000    
     12551 HOAC     70       HOAC     H3       HDA3A    0.920000E-01   1.00800           0   0.00000       0.00000    
     12552 HOAC     70       HOAC     O1       OD2C3A    2.35650       15.5994           0 -0.922000       1.53900    
     12553 HOAC     70       HOAC     DO1      DRUD     -2.35650      0.400000           0   0.00000       0.00000    
     12554 HOAC     70       HOAC     O2       OD31F     2.77650       15.5990           0  -1.28000       1.12400    
     12555 HOAC     70       HOAC     DO2      DRUD     -2.77650      0.400000           0   0.00000       0.00000    
     12556 HOAC     70       HOAC     H        HDP1A    0.374000       1.00800           0   0.00000       0.00000    
     12557 HOAC     70       HOAC     LPO11    LPD     -0.319000       0.00000          -1   0.00000       0.00000    
     12558 HOAC     70       HOAC     LPO12    LPD     -0.319000       0.00000          -1   0.00000       0.00000    
     12559 HOAC     70       HOAC     LPO21    LPD     -0.285000       0.00000          -1   0.00000       0.00000    
     12560 HOAC     70       HOAC     LPO22    LPD     -0.285000       0.00000          -1   0.00000       0.00000    
     12561 HOAC     71       HOAC     C1       CD2O3A    3.55420       11.6110           0  -1.20700      0.708000    
     12562 HOAC     71       HOAC     DC1      DRUD     -2.69620      0.400000           0   0.00000       0.00000    
     12563 HOAC     71       HOAC     C2       CD33C     3.26820       11.6110           0  -2.11400      0.750000    
     12564 HOAC     71       HOAC     DC2      DRUD     -3.56820      0.400000           0   0.00000       0.00000    
     12565 HOAC     71       HOAC     H1       HDA3A    0.920000E-01   1.00800           0   0.00000       0.00000    
     12566 HOAC     71       HOAC     H2       HDA3A    0.920000E-01   1.00800           0   0.00000       0.00000    
     12567 HOAC     71       HOAC     H3       HDA3A    0.920000E-01   1.00800           0   0.00000       0.00000    
     12568 HOAC     71       HOAC     O1       OD2C3A    2.35650       15.5994           0 -0.922000       1.53900    
     12569 HOAC     71       HOAC     DO1      DRUD     -2.35650      0.400000           0   0.00000       0.00000    
     12570 HOAC     71       HOAC     O2       OD31F     2.77650       15.5990           0  -1.28000       1.12400    
     12571 HOAC     71       HOAC     DO2      DRUD     -2.77650      0.400000           0   0.00000       0.00000    
     12572 HOAC     71       HOAC     H        HDP1A    0.374000       1.00800           0   0.00000       0.00000    
     12573 HOAC     71       HOAC     LPO11    LPD     -0.319000       0.00000          -1   0.00000       0.00000    
     12574 HOAC     71       HOAC     LPO12    LPD     -0.319000       0.00000          -1   0.00000       0.00000    
     12575 HOAC     71       HOAC     LPO21    LPD     -0.285000       0.00000          -1   0.00000       0.00000    
     12576 HOAC     71       HOAC     LPO22    LPD     -0.285000       0.00000          -1   0.00000       0.00000    
     12577 HOAC     72       HOAC     C1       CD2O3A    3.55420       11.6110           0  -1.20700      0.708000    
     12578 HOAC     72       HOAC     DC1      DRUD     -2.69620      0.400000           0   0.00000       0.00000    
     12579 HOAC     72       HOAC     C2       CD33C     3.26820       11.6110           0  -2.11400      0.750000    
     12580 HOAC     72       HOAC     DC2      DRUD     -3.56820      0.400000           0   0.00000       0.00000    
     12581 HOAC     72       HOAC     H1       HDA3A    0.920000E-01   1.00800           0   0.00000       0.00000    
     12582 HOAC     72       HOAC     H2       HDA3A    0.920000E-01   1.00800           0   0.00000       0.00000    
     12583 HOAC     72       HOAC     H3       HDA3A    0.920000E-01   1.00800           0   0.00000       0.00000    
     12584 HOAC     72       HOAC     O1       OD2C3A    2.35650       15.5994           0 -0.922000       1.53900    
     12585 HOAC     72       HOAC     DO1      DRUD     -2.35650      0.400000           0   0.00000       0.00000    
     12586 HOAC     72       HOAC     O2       OD31F     2.77650       15.5990           0  -1.28000       1.12400    
     12587 HOAC     72       HOAC     DO2      DRUD     -2.77650      0.400000           0   0.00000       0.00000    
     12588 HOAC     72       HOAC     H        HDP1A    0.374000       1.00800           0   0.00000       0.00000    
     12589 HOAC     72       HOAC     LPO11    LPD     -0.319000       0.00000          -1   0.00000       0.00000    
     12590 HOAC     72       HOAC     LPO12    LPD     -0.319000       0.00000          -1   0.00000       0.00000    
     12591 HOAC     72       HOAC     LPO21    LPD     -0.285000       0.00000          -1   0.00000       0.00000    
     12592 HOAC     72       HOAC     LPO22    LPD     -0.285000       0.00000          -1   0.00000       0.00000    
     12593 HOAC     73       HOAC     C1       CD2O3A    3.55420       11.6110           0  -1.20700      0.708000    
     12594 HOAC     73       HOAC     DC1      DRUD     -2.69620      0.400000           0   0.00000       0.00000    
     12595 HOAC     73       HOAC     C2       CD33C     3.26820       11.6110           0  -2.11400      0.750000    
     12596 HOAC     73       HOAC     DC2      DRUD     -3.56820      0.400000           0   0.00000       0.00000    
     12597 HOAC     73       HOAC     H1       HDA3A    0.920000E-01   1.00800           0   0.00000       0.00000    
     12598 HOAC     73       HOAC     H2       HDA3A    0.920000E-01   1.00800           0   0.00000       0.00000    
     12599 HOAC     73       HOAC     H3       HDA3A    0.920000E-01   1.00800           0   0.00000       0.00000    
     12600 HOAC     73       HOAC     O1       OD2C3A    2.35650       15.5994           0 -0.922000       1.53900    
     12601 HOAC     73       HOAC     DO1      DRUD     -2.35650      0.400000           0   0.00000       0.00000    
     12602 HOAC     73       HOAC     O2       OD31F     2.77650       15.5990           0  -1.28000       1.12400    
     12603 HOAC     73       HOAC     DO2      DRUD     -2.77650      0.400000           0   0.00000       0.00000    
     12604 HOAC     73       HOAC     H        HDP1A    0.374000       1.00800           0   0.00000       0.00000    
     12605 HOAC     73       HOAC     LPO11    LPD     -0.319000       0.00000          -1   0.00000       0.00000    
     12606 HOAC     73       HOAC     LPO12    LPD     -0.319000       0.00000          -1   0.00000       0.00000    
     12607 HOAC     73       HOAC     LPO21    LPD     -0.285000       0.00000          -1   0.00000       0.00000    
     12608 HOAC     73       HOAC     LPO22    LPD     -0.285000       0.00000          -1   0.00000       0.00000    
     12609 HOAC     74       HOAC     C1       CD2O3A    3.55420       11.6110           0  -1.20700      0.708000    
     12610 HOAC     74       HOAC     DC1      DRUD     -2.69620      0.400000           0   0.00000       0.00000    
     12611 HOAC     74       HOAC     C2       CD33C     3.26820       11.6110           0  -2.11400      0.750000    
     12612 HOAC     74       HOAC     DC2      DRUD     -3.56820      0.400000           0   0.00000       0.00000    
     12613 HOAC     74       HOAC     H1       HDA3A    0.920000E-01   1.00800           0   0.00000       0.00000    
     12614 HOAC     74       HOAC     H2       HDA3A    0.920000E-01   1.00800           0   0.00000       0.00000    
     12615 HOAC     74       HOAC     H3       HDA3A    0.920000E-01   1.00800           0   0.00000       0.00000    
     12616 HOAC     74       HOAC     O1       OD2C3A    2.35650       15.5994           0 -0.922000       1.53900    
     12617 HOAC     74       HOAC     DO1      DRUD     -2.35650      0.400000           0   0.00000       0.00000    
     12618 HOAC     74       HOAC     O2       OD31F     2.77650       15.5990           0  -1.28000       1.12400    
     12619 HOAC     74       HOAC     DO2      DRUD     -2.77650      0.400000           0   0.00000       0.00000    
     12620 HOAC     74       HOAC     H        HDP1A    0.374000       1.00800           0   0.00000       0.00000    
     12621 HOAC     74       HOAC     LPO11    LPD     -0.319000       0.00000          -1   0.00000       0.00000    
     12622 HOAC     74       HOAC     LPO12    LPD     -0.319000       0.00000          -1   0.00000       0.00000    
     12623 HOAC     74       HOAC     LPO21    LPD     -0.285000       0.00000          -1   0.00000       0.00000    
     12624 HOAC     74       HOAC     LPO22    LPD     -0.285000       0.00000          -1   0.00000       0.00000    
     12625 HOAC     75       HOAC     C1       CD2O3A    3.55420       11.6110           0  -1.20700      0.708000    
     12626 HOAC     75       HOAC     DC1      DRUD     -2.69620      0.400000           0   0.00000       0.00000    
     12627 HOAC     75       HOAC     C2       CD33C     3.26820       11.6110           0  -2.11400      0.750000    
     12628 HOAC     75       HOAC     DC2      DRUD     -3.56820      0.400000           0   0.00000       0.00000    
     12629 HOAC     75       HOAC     H1       HDA3A    0.920000E-01   1.00800           0   0.00000       0.00000    
     12630 HOAC     75       HOAC     H2       HDA3A    0.920000E-01   1.00800           0   0.00000       0.00000    
     12631 HOAC     75       HOAC     H3       HDA3A    0.920000E-01   1.00800           0   0.00000       0.00000    
     12632 HOAC     75       HOAC     O1       OD2C3A    2.35650       15.5994           0 -0.922000       1.53900    
     12633 HOAC     75       HOAC     DO1      DRUD     -2.35650      0.400000           0   0.00000       0.00000    
     12634 HOAC     75       HOAC     O2       OD31F     2.77650       15.5990           0  -1.28000       1.12400    
     12635 HOAC     75       HOAC     DO2      DRUD     -2.77650      0.400000           0   0.00000       0.00000    
     12636 HOAC     75       HOAC     H        HDP1A    0.374000       1.00800           0   0.00000       0.00000    
     12637 HOAC     75       HOAC     LPO11    LPD     -0.319000       0.00000          -1   0.00000       0.00000    
     12638 HOAC     75       HOAC     LPO12    LPD     -0.319000       0.00000          -1   0.00000       0.00000    
     12639 HOAC     75       HOAC     LPO21    LPD     -0.285000       0.00000          -1   0.00000       0.00000    
     12640 HOAC     75       HOAC     LPO22    LPD     -0.285000       0.00000          -1   0.00000       0.00000    
     12641 HOAC     76       HOAC     C1       CD2O3A    3.55420       11.6110           0  -1.20700      0.708000    
     12642 HOAC     76       HOAC     DC1      DRUD     -2.69620      0.400000           0   0.00000       0.00000    
     12643 HOAC     76       HOAC     C2       CD33C     3.26820       11.6110           0  -2.11400      0.750000    
     12644 HOAC     76       HOAC     DC2      DRUD     -3.56820      0.400000           0   0.00000       0.00000    
     12645 HOAC     76       HOAC     H1       HDA3A    0.920000E-01   1.00800           0   0.00000       0.00000    
     12646 HOAC     76       HOAC     H2       HDA3A    0.920000E-01   1.00800           0   0.00000       0.00000    
     12647 HOAC     76       HOAC     H3       HDA3A    0.920000E-01   1.00800           0   0.00000       0.00000    
     12648 HOAC     76       HOAC     O1       OD2C3A    2.35650       15.5994           0 -0.922000       1.53900    
     12649 HOAC     76       HOAC     DO1      DRUD     -2.35650      0.400000           0   0.00000       0.00000    
     12650 HOAC     76       HOAC     O2       OD31F     2.77650       15.5990           0  -1.28000       1.12400    
     12651 HOAC     76       HOAC     DO2      DRUD     -2.77650      0.400000           0   0.00000       0.00000    
     12652 HOAC     76       HOAC     H        HDP1A    0.374000       1.00800           0   0.00000       0.00000    
     12653 HOAC     76       HOAC     LPO11    LPD     -0.319000       0.00000          -1   0.00000       0.00000    
     12654 HOAC     76       HOAC     LPO12    LPD     -0.319000       0.00000          -1   0.00000       0.00000    
     12655 HOAC     76       HOAC     LPO21    LPD     -0.285000       0.00000          -1   0.00000       0.00000    
     12656 HOAC     76       HOAC     LPO22    LPD     -0.285000       0.00000          -1   0.00000       0.00000    
     12657 HOAC     77       HOAC     C1       CD2O3A    3.55420       11.6110           0  -1.20700      0.708000    
     12658 HOAC     77       HOAC     DC1      DRUD     -2.69620      0.400000           0   0.00000       0.00000    
     12659 HOAC     77       HOAC     C2       CD33C     3.26820       11.6110           0  -2.11400      0.750000    
     12660 HOAC     77       HOAC     DC2      DRUD     -3.56820      0.400000           0   0.00000       0.00000    
     12661 HOAC     77       HOAC     H1       HDA3A    0.920000E-01   1.00800           0   0.00000       0.00000    
     12662 HOAC     77       HOAC     H2       HDA3A    0.920000E-01   1.00800           0   0.00000       0.00000    
     12663 HOAC     77       HOAC     H3       HDA3A    0.920000E-01   1.00800           0   0.00000       0.00000    
     12664 HOAC     77       HOAC     O1       OD2C3A    2.35650       15.5994           0 -0.922000       1.53900    
     12665 HOAC     77       HOAC     DO1      DRUD     -2.35650      0.400000           0   0.00000       0.00000    
     12666 HOAC     77       HOAC     O2       OD31F     2.77650       15.5990           0  -1.28000       1.12400    
     12667 HOAC     77       HOAC     DO2      DRUD     -2.77650      0.400000           0   0.00000       0.00000    
     12668 HOAC     77       HOAC     H        HDP1A    0.374000       1.00800           0   0.00000       0.00000    
     12669 HOAC     77       HOAC     LPO11    LPD     -0.319000       0.00000          -1   0.00000       0.00000    
     12670 HOAC     77       HOAC     LPO12    LPD     -0.319000       0.00000          -1   0.00000       0.00000    
     12671 HOAC     77       HOAC     LPO21    LPD     -0.285000       0.00000          -1   0.00000       0.00000    
     12672 HOAC     77       HOAC     LPO22    LPD     -0.285000       0.00000          -1   0.00000       0.00000    
     12673 HOAC     78       HOAC     C1       CD2O3A    3.55420       11.6110           0  -1.20700      0.708000    
     12674 HOAC     78       HOAC     DC1      DRUD     -2.69620      0.400000           0   0.00000       0.00000    
     12675 HOAC     78       HOAC     C2       CD33C     3.26820       11.6110           0  -2.11400      0.750000    
     12676 HOAC     78       HOAC     DC2      DRUD     -3.56820      0.400000           0   0.00000       0.00000    
     12677 HOAC     78       HOAC     H1       HDA3A    0.920000E-01   1.00800           0   0.00000       0.00000    
     12678 HOAC     78       HOAC     H2       HDA3A    0.920000E-01   1.00800           0   0.00000       0.00000    
     12679 HOAC     78       HOAC     H3       HDA3A    0.920000E-01   1.00800           0   0.00000       0.00000    
     12680 HOAC     78       HOAC     O1       OD2C3A    2.35650       15.5994           0 -0.922000       1.53900    
     12681 HOAC     78       HOAC     DO1      DRUD     -2.35650      0.400000           0   0.00000       0.00000    
     12682 HOAC     78       HOAC     O2       OD31F     2.77650       15.5990           0  -1.28000       1.12400    
     12683 HOAC     78       HOAC     DO2      DRUD     -2.77650      0.400000           0   0.00000       0.00000    
     12684 HOAC     78       HOAC     H        HDP1A    0.374000       1.00800           0   0.00000       0.00000    
     12685 HOAC     78       HOAC     LPO11    LPD     -0.319000       0.00000          -1   0.00000       0.00000    
     12686 HOAC     78       HOAC     LPO12    LPD     -0.319000       0.00000          -1   0.00000       0.00000    
     12687 HOAC     78       HOAC     LPO21    LPD     -0.285000       0.00000          -1   0.00000       0.00000    
     12688 HOAC     78       HOAC     LPO22    LPD     -0.285000       0.00000          -1   0.00000       0.00000    
     12689 HOAC     79       HOAC     C1       CD2O3A    3.55420       11.6110           0  -1.20700      0.708000    
     12690 HOAC     79       HOAC     DC1      DRUD     -2.69620      0.400000           0   0.00000       0.00000    
     12691 HOAC     79       HOAC     C2       CD33C     3.26820       11.6110           0  -2.11400      0.750000    
     12692 HOAC     79       HOAC     DC2      DRUD     -3.56820      0.400000           0   0.00000       0.00000    
     12693 HOAC     79       HOAC     H1       HDA3A    0.920000E-01   1.00800           0   0.00000       0.00000    
     12694 HOAC     79       HOAC     H2       HDA3A    0.920000E-01   1.00800           0   0.00000       0.00000    
     12695 HOAC     79       HOAC     H3       HDA3A    0.920000E-01   1.00800           0   0.00000       0.00000    
     12696 HOAC     79       HOAC     O1       OD2C3A    2.35650       15.5994           0 -0.922000       1.53900    
     12697 HOAC     79       HOAC     DO1      DRUD     -2.35650      0.400000           0   0.00000       0.00000    
     12698 HOAC     79       HOAC     O2       OD31F     2.77650       15.5990           0  -1.28000       1.12400    
     12699 HOAC     79       HOAC     DO2      DRUD     -2.77650      0.400000           0   0.00000       0.00000    
     12700 HOAC     79       HOAC     H        HDP1A    0.374000       1.00800           0   0.00000       0.00000    
     12701 HOAC     79       HOAC     LPO11    LPD     -0.319000       0.00000          -1   0.00000       0.00000    
     12702 HOAC     79       HOAC     LPO12    LPD     -0.319000       0.00000          -1   0.00000       0.00000    
     12703 HOAC     79       HOAC     LPO21    LPD     -0.285000       0.00000          -1   0.00000       0.00000    
     12704 HOAC     79       HOAC     LPO22    LPD     -0.285000       0.00000          -1   0.00000       0.00000    
     12705 HOAC     80       HOAC     C1       CD2O3A    3.55420       11.6110           0  -1.20700      0.708000    
     12706 HOAC     80       HOAC     DC1      DRUD     -2.69620      0.400000           0   0.00000       0.00000    
     12707 HOAC     80       HOAC     C2       CD33C     3.26820       11.6110           0  -2.11400      0.750000    
     12708 HOAC     80       HOAC     DC2      DRUD     -3.56820      0.400000           0   0.00000       0.00000    
     12709 HOAC     80       HOAC     H1       HDA3A    0.920000E-01   1.00800           0   0.00000       0.00000    
     12710 HOAC     80       HOAC     H2       HDA3A    0.920000E-01   1.00800           0   0.00000       0.00000    
     12711 HOAC     80       HOAC     H3       HDA3A    0.920000E-01   1.00800           0   0.00000       0.00000    
     12712 HOAC     80       HOAC     O1       OD2C3A    2.35650       15.5994           0 -0.922000       1.53900    
     12713 HOAC     80       HOAC     DO1      DRUD     -2.35650      0.400000           0   0.00000       0.00000    
     12714 HOAC     80       HOAC     O2       OD31F     2.77650       15.5990           0  -1.28000       1.12400    
     12715 HOAC     80       HOAC     DO2      DRUD     -2.77650      0.400000           0   0.00000       0.00000    
     12716 HOAC     80       HOAC     H        HDP1A    0.374000       1.00800           0   0.00000       0.00000    
     12717 HOAC     80       HOAC     LPO11    LPD     -0.319000       0.00000          -1   0.00000       0.00000    
     12718 HOAC     80       HOAC     LPO12    LPD     -0.319000       0.00000          -1   0.00000       0.00000    
     12719 HOAC     80       HOAC     LPO21    LPD     -0.285000       0.00000          -1   0.00000       0.00000    
     12720 HOAC     80       HOAC     LPO22    LPD     -0.285000       0.00000          -1   0.00000       0.00000    
     12721 HOAC     81       HOAC     C1       CD2O3A    3.55420       11.6110           0  -1.20700      0.708000    
     12722 HOAC     81       HOAC     DC1      DRUD     -2.69620      0.400000           0   0.00000       0.00000    
     12723 HOAC     81       HOAC     C2       CD33C     3.26820       11.6110           0  -2.11400      0.750000    
     12724 HOAC     81       HOAC     DC2      DRUD     -3.56820      0.400000           0   0.00000       0.00000    
     12725 HOAC     81       HOAC     H1       HDA3A    0.920000E-01   1.00800           0   0.00000       0.00000    
     12726 HOAC     81       HOAC     H2       HDA3A    0.920000E-01   1.00800           0   0.00000       0.00000    
     12727 HOAC     81       HOAC     H3       HDA3A    0.920000E-01   1.00800           0   0.00000       0.00000    
     12728 HOAC     81       HOAC     O1       OD2C3A    2.35650       15.5994           0 -0.922000       1.53900    
     12729 HOAC     81       HOAC     DO1      DRUD     -2.35650      0.400000           0   0.00000       0.00000    
     12730 HOAC     81       HOAC     O2       OD31F     2.77650       15.5990           0  -1.28000       1.12400    
     12731 HOAC     81       HOAC     DO2      DRUD     -2.77650      0.400000           0   0.00000       0.00000    
     12732 HOAC     81       HOAC     H        HDP1A    0.374000       1.00800           0   0.00000       0.00000    
     12733 HOAC     81       HOAC     LPO11    LPD     -0.319000       0.00000          -1   0.00000       0.00000    
     12734 HOAC     81       HOAC     LPO12    LPD     -0.319000       0.00000          -1   0.00000       0.00000    
     12735 HOAC     81       HOAC     LPO21    LPD     -0.285000       0.00000          -1   0.00000       0.00000    
     12736 HOAC     81       HOAC     LPO22    LPD     -0.285000       0.00000          -1   0.00000       0.00000    
     12737 HOAC     82       HOAC     C1       CD2O3A    3.55420       11.6110           0  -1.20700      0.708000    
     12738 HOAC     82       HOAC     DC1      DRUD     -2.69620      0.400000           0   0.00000       0.00000    
     12739 HOAC     82       HOAC     C2       CD33C     3.26820       11.6110           0  -2.11400      0.750000    
     12740 HOAC     82       HOAC     DC2      DRUD     -3.56820      0.400000           0   0.00000       0.00000    
     12741 HOAC     82       HOAC     H1       HDA3A    0.920000E-01   1.00800           0   0.00000       0.00000    
     12742 HOAC     82       HOAC     H2       HDA3A    0.920000E-01   1.00800           0   0.00000       0.00000    
     12743 HOAC     82       HOAC     H3       HDA3A    0.920000E-01   1.00800           0   0.00000       0.00000    
     12744 HOAC     82       HOAC     O1       OD2C3A    2.35650       15.5994           0 -0.922000       1.53900    
     12745 HOAC     82       HOAC     DO1      DRUD     -2.35650      0.400000           0   0.00000       0.00000    
     12746 HOAC     82       HOAC     O2       OD31F     2.77650       15.5990           0  -1.28000       1.12400    
     12747 HOAC     82       HOAC     DO2      DRUD     -2.77650      0.400000           0   0.00000       0.00000    
     12748 HOAC     82       HOAC     H        HDP1A    0.374000       1.00800           0   0.00000       0.00000    
     12749 HOAC     82       HOAC     LPO11    LPD     -0.319000       0.00000          -1   0.00000       0.00000    
     12750 HOAC     82       HOAC     LPO12    LPD     -0.319000       0.00000          -1   0.00000       0.00000    
     12751 HOAC     82       HOAC     LPO21    LPD     -0.285000       0.00000          -1   0.00000       0.00000    
     12752 HOAC     82       HOAC     LPO22    LPD     -0.285000       0.00000          -1   0.00000       0.00000    
     12753 HOAC     83       HOAC     C1       CD2O3A    3.55420       11.6110           0  -1.20700      0.708000    
     12754 HOAC     83       HOAC     DC1      DRUD     -2.69620      0.400000           0   0.00000       0.00000    
     12755 HOAC     83       HOAC     C2       CD33C     3.26820       11.6110           0  -2.11400      0.750000    
     12756 HOAC     83       HOAC     DC2      DRUD     -3.56820      0.400000           0   0.00000       0.00000    
     12757 HOAC     83       HOAC     H1       HDA3A    0.920000E-01   1.00800           0   0.00000       0.00000    
     12758 HOAC     83       HOAC     H2       HDA3A    0.920000E-01   1.00800           0   0.00000       0.00000    
     12759 HOAC     83       HOAC     H3       HDA3A    0.920000E-01   1.00800           0   0.00000       0.00000    
     12760 HOAC     83       HOAC     O1       OD2C3A    2.35650       15.5994           0 -0.922000       1.53900    
     12761 HOAC     83       HOAC     DO1      DRUD     -2.35650      0.400000           0   0.00000       0.00000    
     12762 HOAC     83       HOAC     O2       OD31F     2.77650       15.5990           0  -1.28000       1.12400    
     12763 HOAC     83       HOAC     DO2      DRUD     -2.77650      0.400000           0   0.00000       0.00000    
     12764 HOAC     83       HOAC     H        HDP1A    0.374000       1.00800           0   0.00000       0.00000    
     12765 HOAC     83       HOAC     LPO11    LPD     -0.319000       0.00000          -1   0.00000       0.00000    
     12766 HOAC     83       HOAC     LPO12    LPD     -0.319000       0.00000          -1   0.00000       0.00000    
     12767 HOAC     83       HOAC     LPO21    LPD     -0.285000       0.00000          -1   0.00000       0.00000    
     12768 HOAC     83       HOAC     LPO22    LPD     -0.285000       0.00000          -1   0.00000       0.00000    
     12769 HOAC     84       HOAC     C1       CD2O3A    3.55420       11.6110           0  -1.20700      0.708000    
     12770 HOAC     84       HOAC     DC1      DRUD     -2.69620      0.400000           0   0.00000       0.00000    
     12771 HOAC     84       HOAC     C2       CD33C     3.26820       11.6110           0  -2.11400      0.750000    
     12772 HOAC     84       HOAC     DC2      DRUD     -3.56820      0.400000           0   0.00000       0.00000    
     12773 HOAC     84       HOAC     H1       HDA3A    0.920000E-01   1.00800           0   0.00000       0.00000    
     12774 HOAC     84       HOAC     H2       HDA3A    0.920000E-01   1.00800           0   0.00000       0.00000    
     12775 HOAC     84       HOAC     H3       HDA3A    0.920000E-01   1.00800           0   0.00000       0.00000    
     12776 HOAC     84       HOAC     O1       OD2C3A    2.35650       15.5994           0 -0.922000       1.53900    
     12777 HOAC     84       HOAC     DO1      DRUD     -2.35650      0.400000           0   0.00000       0.00000    
     12778 HOAC     84       HOAC     O2       OD31F     2.77650       15.5990           0  -1.28000       1.12400    
     12779 HOAC     84       HOAC     DO2      DRUD     -2.77650      0.400000           0   0.00000       0.00000    
     12780 HOAC     84       HOAC     H        HDP1A    0.374000       1.00800           0   0.00000       0.00000    
     12781 HOAC     84       HOAC     LPO11    LPD     -0.319000       0.00000          -1   0.00000       0.00000    
     12782 HOAC     84       HOAC     LPO12    LPD     -0.319000       0.00000          -1   0.00000       0.00000    
     12783 HOAC     84       HOAC     LPO21    LPD     -0.285000       0.00000          -1   0.00000       0.00000    
     12784 HOAC     84       HOAC     LPO22    LPD     -0.285000       0.00000          -1   0.00000       0.00000    
     12785 HOAC     85       HOAC     C1       CD2O3A    3.55420       11.6110           0  -1.20700      0.708000    
     12786 HOAC     85       HOAC     DC1      DRUD     -2.69620      0.400000           0   0.00000       0.00000    
     12787 HOAC     85       HOAC     C2       CD33C     3.26820       11.6110           0  -2.11400      0.750000    
     12788 HOAC     85       HOAC     DC2      DRUD     -3.56820      0.400000           0   0.00000       0.00000    
     12789 HOAC     85       HOAC     H1       HDA3A    0.920000E-01   1.00800           0   0.00000       0.00000    
     12790 HOAC     85       HOAC     H2       HDA3A    0.920000E-01   1.00800           0   0.00000       0.00000    
     12791 HOAC     85       HOAC     H3       HDA3A    0.920000E-01   1.00800           0   0.00000       0.00000    
     12792 HOAC     85       HOAC     O1       OD2C3A    2.35650       15.5994           0 -0.922000       1.53900    
     12793 HOAC     85       HOAC     DO1      DRUD     -2.35650      0.400000           0   0.00000       0.00000    
     12794 HOAC     85       HOAC     O2       OD31F     2.77650       15.5990           0  -1.28000       1.12400    
     12795 HOAC     85       HOAC     DO2      DRUD     -2.77650      0.400000           0   0.00000       0.00000    
     12796 HOAC     85       HOAC     H        HDP1A    0.374000       1.00800           0   0.00000       0.00000    
     12797 HOAC     85       HOAC     LPO11    LPD     -0.319000       0.00000          -1   0.00000       0.00000    
     12798 HOAC     85       HOAC     LPO12    LPD     -0.319000       0.00000          -1   0.00000       0.00000    
     12799 HOAC     85       HOAC     LPO21    LPD     -0.285000       0.00000          -1   0.00000       0.00000    
     12800 HOAC     85       HOAC     LPO22    LPD     -0.285000       0.00000          -1   0.00000       0.00000    
     12801 HOAC     86       HOAC     C1       CD2O3A    3.55420       11.6110           0  -1.20700      0.708000    
     12802 HOAC     86       HOAC     DC1      DRUD     -2.69620      0.400000           0   0.00000       0.00000    
     12803 HOAC     86       HOAC     C2       CD33C     3.26820       11.6110           0  -2.11400      0.750000    
     12804 HOAC     86       HOAC     DC2      DRUD     -3.56820      0.400000           0   0.00000       0.00000    
     12805 HOAC     86       HOAC     H1       HDA3A    0.920000E-01   1.00800           0   0.00000       0.00000    
     12806 HOAC     86       HOAC     H2       HDA3A    0.920000E-01   1.00800           0   0.00000       0.00000    
     12807 HOAC     86       HOAC     H3       HDA3A    0.920000E-01   1.00800           0   0.00000       0.00000    
     12808 HOAC     86       HOAC     O1       OD2C3A    2.35650       15.5994           0 -0.922000       1.53900    
     12809 HOAC     86       HOAC     DO1      DRUD     -2.35650      0.400000           0   0.00000       0.00000    
     12810 HOAC     86       HOAC     O2       OD31F     2.77650       15.5990           0  -1.28000       1.12400    
     12811 HOAC     86       HOAC     DO2      DRUD     -2.77650      0.400000           0   0.00000       0.00000    
     12812 HOAC     86       HOAC     H        HDP1A    0.374000       1.00800           0   0.00000       0.00000    
     12813 HOAC     86       HOAC     LPO11    LPD     -0.319000       0.00000          -1   0.00000       0.00000    
     12814 HOAC     86       HOAC     LPO12    LPD     -0.319000       0.00000          -1   0.00000       0.00000    
     12815 HOAC     86       HOAC     LPO21    LPD     -0.285000       0.00000          -1   0.00000       0.00000    
     12816 HOAC     86       HOAC     LPO22    LPD     -0.285000       0.00000          -1   0.00000       0.00000    
     12817 HOAC     87       HOAC     C1       CD2O3A    3.55420       11.6110           0  -1.20700      0.708000    
     12818 HOAC     87       HOAC     DC1      DRUD     -2.69620      0.400000           0   0.00000       0.00000    
     12819 HOAC     87       HOAC     C2       CD33C     3.26820       11.6110           0  -2.11400      0.750000    
     12820 HOAC     87       HOAC     DC2      DRUD     -3.56820      0.400000           0   0.00000       0.00000    
     12821 HOAC     87       HOAC     H1       HDA3A    0.920000E-01   1.00800           0   0.00000       0.00000    
     12822 HOAC     87       HOAC     H2       HDA3A    0.920000E-01   1.00800           0   0.00000       0.00000    
     12823 HOAC     87       HOAC     H3       HDA3A    0.920000E-01   1.00800           0   0.00000       0.00000    
     12824 HOAC     87       HOAC     O1       OD2C3A    2.35650       15.5994           0 -0.922000       1.53900    
     12825 HOAC     87       HOAC     DO1      DRUD     -2.35650      0.400000           0   0.00000       0.00000    
     12826 HOAC     87       HOAC     O2       OD31F     2.77650       15.5990           0  -1.28000       1.12400    
     12827 HOAC     87       HOAC     DO2      DRUD     -2.77650      0.400000           0   0.00000       0.00000    
     12828 HOAC     87       HOAC     H        HDP1A    0.374000       1.00800           0   0.00000       0.00000    
     12829 HOAC     87       HOAC     LPO11    LPD     -0.319000       0.00000          -1   0.00000       0.00000    
     12830 HOAC     87       HOAC     LPO12    LPD     -0.319000       0.00000          -1   0.00000       0.00000    
     12831 HOAC     87       HOAC     LPO21    LPD     -0.285000       0.00000          -1   0.00000       0.00000    
     12832 HOAC     87       HOAC     LPO22    LPD     -0.285000       0.00000          -1   0.00000       0.00000    
     12833 HOAC     88       HOAC     C1       CD2O3A    3.55420       11.6110           0  -1.20700      0.708000    
     12834 HOAC     88       HOAC     DC1      DRUD     -2.69620      0.400000           0   0.00000       0.00000    
     12835 HOAC     88       HOAC     C2       CD33C     3.26820       11.6110           0  -2.11400      0.750000    
     12836 HOAC     88       HOAC     DC2      DRUD     -3.56820      0.400000           0   0.00000       0.00000    
     12837 HOAC     88       HOAC     H1       HDA3A    0.920000E-01   1.00800           0   0.00000       0.00000    
     12838 HOAC     88       HOAC     H2       HDA3A    0.920000E-01   1.00800           0   0.00000       0.00000    
     12839 HOAC     88       HOAC     H3       HDA3A    0.920000E-01   1.00800           0   0.00000       0.00000    
     12840 HOAC     88       HOAC     O1       OD2C3A    2.35650       15.5994           0 -0.922000       1.53900    
     12841 HOAC     88       HOAC     DO1      DRUD     -2.35650      0.400000           0   0.00000       0.00000    
     12842 HOAC     88       HOAC     O2       OD31F     2.77650       15.5990           0  -1.28000       1.12400    
     12843 HOAC     88       HOAC     DO2      DRUD     -2.77650      0.400000           0   0.00000       0.00000    
     12844 HOAC     88       HOAC     H        HDP1A    0.374000       1.00800           0   0.00000       0.00000    
     12845 HOAC     88       HOAC     LPO11    LPD     -0.319000       0.00000          -1   0.00000       0.00000    
     12846 HOAC     88       HOAC     LPO12    LPD     -0.319000       0.00000          -1   0.00000       0.00000    
     12847 HOAC     88       HOAC     LPO21    LPD     -0.285000       0.00000          -1   0.00000       0.00000    
     12848 HOAC     88       HOAC     LPO22    LPD     -0.285000       0.00000          -1   0.00000       0.00000    
     12849 HOAC     89       HOAC     C1       CD2O3A    3.55420       11.6110           0  -1.20700      0.708000    
     12850 HOAC     89       HOAC     DC1      DRUD     -2.69620      0.400000           0   0.00000       0.00000    
     12851 HOAC     89       HOAC     C2       CD33C     3.26820       11.6110           0  -2.11400      0.750000    
     12852 HOAC     89       HOAC     DC2      DRUD     -3.56820      0.400000           0   0.00000       0.00000    
     12853 HOAC     89       HOAC     H1       HDA3A    0.920000E-01   1.00800           0   0.00000       0.00000    
     12854 HOAC     89       HOAC     H2       HDA3A    0.920000E-01   1.00800           0   0.00000       0.00000    
     12855 HOAC     89       HOAC     H3       HDA3A    0.920000E-01   1.00800           0   0.00000       0.00000    
     12856 HOAC     89       HOAC     O1       OD2C3A    2.35650       15.5994           0 -0.922000       1.53900    
     12857 HOAC     89       HOAC     DO1      DRUD     -2.35650      0.400000           0   0.00000       0.00000    
     12858 HOAC     89       HOAC     O2       OD31F     2.77650       15.5990           0  -1.28000       1.12400    
     12859 HOAC     89       HOAC     DO2      DRUD     -2.77650      0.400000           0   0.00000       0.00000    
     12860 HOAC     89       HOAC     H        HDP1A    0.374000       1.00800           0   0.00000       0.00000    
     12861 HOAC     89       HOAC     LPO11    LPD     -0.319000       0.00000          -1   0.00000       0.00000    
     12862 HOAC     89       HOAC     LPO12    LPD     -0.319000       0.00000          -1   0.00000       0.00000    
     12863 HOAC     89       HOAC     LPO21    LPD     -0.285000       0.00000          -1   0.00000       0.00000    
     12864 HOAC     89       HOAC     LPO22    LPD     -0.285000       0.00000          -1   0.00000       0.00000    
     12865 HOAC     90       HOAC     C1       CD2O3A    3.55420       11.6110           0  -1.20700      0.708000    
     12866 HOAC     90       HOAC     DC1      DRUD     -2.69620      0.400000           0   0.00000       0.00000    
     12867 HOAC     90       HOAC     C2       CD33C     3.26820       11.6110           0  -2.11400      0.750000    
     12868 HOAC     90       HOAC     DC2      DRUD     -3.56820      0.400000           0   0.00000       0.00000    
     12869 HOAC     90       HOAC     H1       HDA3A    0.920000E-01   1.00800           0   0.00000       0.00000    
     12870 HOAC     90       HOAC     H2       HDA3A    0.920000E-01   1.00800           0   0.00000       0.00000    
     12871 HOAC     90       HOAC     H3       HDA3A    0.920000E-01   1.00800           0   0.00000       0.00000    
     12872 HOAC     90       HOAC     O1       OD2C3A    2.35650       15.5994           0 -0.922000       1.53900    
     12873 HOAC     90       HOAC     DO1      DRUD     -2.35650      0.400000           0   0.00000       0.00000    
     12874 HOAC     90       HOAC     O2       OD31F     2.77650       15.5990           0  -1.28000       1.12400    
     12875 HOAC     90       HOAC     DO2      DRUD     -2.77650      0.400000           0   0.00000       0.00000    
     12876 HOAC     90       HOAC     H        HDP1A    0.374000       1.00800           0   0.00000       0.00000    
     12877 HOAC     90       HOAC     LPO11    LPD     -0.319000       0.00000          -1   0.00000       0.00000    
     12878 HOAC     90       HOAC     LPO12    LPD     -0.319000       0.00000          -1   0.00000       0.00000    
     12879 HOAC     90       HOAC     LPO21    LPD     -0.285000       0.00000          -1   0.00000       0.00000    
     12880 HOAC     90       HOAC     LPO22    LPD     -0.285000       0.00000          -1   0.00000       0.00000    
     12881 HOAC     91       HOAC     C1       CD2O3A    3.55420       11.6110           0  -1.20700      0.708000    
     12882 HOAC     91       HOAC     DC1      DRUD     -2.69620      0.400000           0   0.00000       0.00000    
     12883 HOAC     91       HOAC     C2       CD33C     3.26820       11.6110           0  -2.11400      0.750000    
     12884 HOAC     91       HOAC     DC2      DRUD     -3.56820      0.400000           0   0.00000       0.00000    
     12885 HOAC     91       HOAC     H1       HDA3A    0.920000E-01   1.00800           0   0.00000       0.00000    
     12886 HOAC     91       HOAC     H2       HDA3A    0.920000E-01   1.00800           0   0.00000       0.00000    
     12887 HOAC     91       HOAC     H3       HDA3A    0.920000E-01   1.00800           0   0.00000       0.00000    
     12888 HOAC     91       HOAC     O1       OD2C3A    2.35650       15.5994           0 -0.922000       1.53900    
     12889 HOAC     91       HOAC     DO1      DRUD     -2.35650      0.400000           0   0.00000       0.00000    
     12890 HOAC     91       HOAC     O2       OD31F     2.77650       15.5990           0  -1.28000       1.12400    
     12891 HOAC     91       HOAC     DO2      DRUD     -2.77650      0.400000           0   0.00000       0.00000    
     12892 HOAC     91       HOAC     H        HDP1A    0.374000       1.00800           0   0.00000       0.00000    
     12893 HOAC     91       HOAC     LPO11    LPD     -0.319000       0.00000          -1   0.00000       0.00000    
     12894 HOAC     91       HOAC     LPO12    LPD     -0.319000       0.00000          -1   0.00000       0.00000    
     12895 HOAC     91       HOAC     LPO21    LPD     -0.285000       0.00000          -1   0.00000       0.00000    
     12896 HOAC     91       HOAC     LPO22    LPD     -0.285000       0.00000          -1   0.00000       0.00000    
     12897 HOAC     92       HOAC     C1       CD2O3A    3.55420       11.6110           0  -1.20700      0.708000    
     12898 HOAC     92       HOAC     DC1      DRUD     -2.69620      0.400000           0   0.00000       0.00000    
     12899 HOAC     92       HOAC     C2       CD33C     3.26820       11.6110           0  -2.11400      0.750000    
     12900 HOAC     92       HOAC     DC2      DRUD     -3.56820      0.400000           0   0.00000       0.00000    
     12901 HOAC     92       HOAC     H1       HDA3A    0.920000E-01   1.00800           0   0.00000       0.00000    
     12902 HOAC     92       HOAC     H2       HDA3A    0.920000E-01   1.00800           0   0.00000       0.00000    
     12903 HOAC     92       HOAC     H3       HDA3A    0.920000E-01   1.00800           0   0.00000       0.00000    
     12904 HOAC     92       HOAC     O1       OD2C3A    2.35650       15.5994           0 -0.922000       1.53900    
     12905 HOAC     92       HOAC     DO1      DRUD     -2.35650      0.400000           0   0.00000       0.00000    
     12906 HOAC     92       HOAC     O2       OD31F     2.77650       15.5990           0  -1.28000       1.12400    
     12907 HOAC     92       HOAC     DO2      DRUD     -2.77650      0.400000           0   0.00000       0.00000    
     12908 HOAC     92       HOAC     H        HDP1A    0.374000       1.00800           0   0.00000       0.00000    
     12909 HOAC     92       HOAC     LPO11    LPD     -0.319000       0.00000          -1   0.00000       0.00000    
     12910 HOAC     92       HOAC     LPO12    LPD     -0.319000       0.00000          -1   0.00000       0.00000    
     12911 HOAC     92       HOAC     LPO21    LPD     -0.285000       0.00000          -1   0.00000       0.00000    
     12912 HOAC     92       HOAC     LPO22    LPD     -0.285000       0.00000          -1   0.00000       0.00000    
     12913 HOAC     93       HOAC     C1       CD2O3A    3.55420       11.6110           0  -1.20700      0.708000    
     12914 HOAC     93       HOAC     DC1      DRUD     -2.69620      0.400000           0   0.00000       0.00000    
     12915 HOAC     93       HOAC     C2       CD33C     3.26820       11.6110           0  -2.11400      0.750000    
     12916 HOAC     93       HOAC     DC2      DRUD     -3.56820      0.400000           0   0.00000       0.00000    
     12917 HOAC     93       HOAC     H1       HDA3A    0.920000E-01   1.00800           0   0.00000       0.00000    
     12918 HOAC     93       HOAC     H2       HDA3A    0.920000E-01   1.00800           0   0.00000       0.00000    
     12919 HOAC     93       HOAC     H3       HDA3A    0.920000E-01   1.00800           0   0.00000       0.00000    
     12920 HOAC     93       HOAC     O1       OD2C3A    2.35650       15.5994           0 -0.922000       1.53900    
     12921 HOAC     93       HOAC     DO1      DRUD     -2.35650      0.400000           0   0.00000       0.00000    
     12922 HOAC     93       HOAC     O2       OD31F     2.77650       15.5990           0  -1.28000       1.12400    
     12923 HOAC     93       HOAC     DO2      DRUD     -2.77650      0.400000           0   0.00000       0.00000    
     12924 HOAC     93       HOAC     H        HDP1A    0.374000       1.00800           0   0.00000       0.00000    
     12925 HOAC     93       HOAC     LPO11    LPD     -0.319000       0.00000          -1   0.00000       0.00000    
     12926 HOAC     93       HOAC     LPO12    LPD     -0.319000       0.00000          -1   0.00000       0.00000    
     12927 HOAC     93       HOAC     LPO21    LPD     -0.285000       0.00000          -1   0.00000       0.00000    
     12928 HOAC     93       HOAC     LPO22    LPD     -0.285000       0.00000          -1   0.00000       0.00000    
     12929 HOAC     94       HOAC     C1       CD2O3A    3.55420       11.6110           0  -1.20700      0.708000    
     12930 HOAC     94       HOAC     DC1      DRUD     -2.69620      0.400000           0   0.00000       0.00000    
     12931 HOAC     94       HOAC     C2       CD33C     3.26820       11.6110           0  -2.11400      0.750000    
     12932 HOAC     94       HOAC     DC2      DRUD     -3.56820      0.400000           0   0.00000       0.00000    
     12933 HOAC     94       HOAC     H1       HDA3A    0.920000E-01   1.00800           0   0.00000       0.00000    
     12934 HOAC     94       HOAC     H2       HDA3A    0.920000E-01   1.00800           0   0.00000       0.00000    
     12935 HOAC     94       HOAC     H3       HDA3A    0.920000E-01   1.00800           0   0.00000       0.00000    
     12936 HOAC     94       HOAC     O1       OD2C3A    2.35650       15.5994           0 -0.922000       1.53900    
     12937 HOAC     94       HOAC     DO1      DRUD     -2.35650      0.400000           0   0.00000       0.00000    
     12938 HOAC     94       HOAC     O2       OD31F     2.77650       15.5990           0  -1.28000       1.12400    
     12939 HOAC     94       HOAC     DO2      DRUD     -2.77650      0.400000           0   0.00000       0.00000    
     12940 HOAC     94       HOAC     H        HDP1A    0.374000       1.00800           0   0.00000       0.00000    
     12941 HOAC     94       HOAC     LPO11    LPD     -0.319000       0.00000          -1   0.00000       0.00000    
     12942 HOAC     94       HOAC     LPO12    LPD     -0.319000       0.00000          -1   0.00000       0.00000    
     12943 HOAC     94       HOAC     LPO21    LPD     -0.285000       0.00000          -1   0.00000       0.00000    
     12944 HOAC     94       HOAC     LPO22    LPD     -0.285000       0.00000          -1   0.00000       0.00000    
     12945 HOAC     95       HOAC     C1       CD2O3A    3.55420       11.6110           0  -1.20700      0.708000    
     12946 HOAC     95       HOAC     DC1      DRUD     -2.69620      0.400000           0   0.00000       0.00000    
     12947 HOAC     95       HOAC     C2       CD33C     3.26820       11.6110           0  -2.11400      0.750000    
     12948 HOAC     95       HOAC     DC2      DRUD     -3.56820      0.400000           0   0.00000       0.00000    
     12949 HOAC     95       HOAC     H1       HDA3A    0.920000E-01   1.00800           0   0.00000       0.00000    
     12950 HOAC     95       HOAC     H2       HDA3A    0.920000E-01   1.00800           0   0.00000       0.00000    
     12951 HOAC     95       HOAC     H3       HDA3A    0.920000E-01   1.00800           0   0.00000       0.00000    
     12952 HOAC     95       HOAC     O1       OD2C3A    2.35650       15.5994           0 -0.922000       1.53900    
     12953 HOAC     95       HOAC     DO1      DRUD     -2.35650      0.400000           0   0.00000       0.00000    
     12954 HOAC     95       HOAC     O2       OD31F     2.77650       15.5990           0  -1.28000       1.12400    
     12955 HOAC     95       HOAC     DO2      DRUD     -2.77650      0.400000           0   0.00000       0.00000    
     12956 HOAC     95       HOAC     H        HDP1A    0.374000       1.00800           0   0.00000       0.00000    
     12957 HOAC     95       HOAC     LPO11    LPD     -0.319000       0.00000          -1   0.00000       0.00000    
     12958 HOAC     95       HOAC     LPO12    LPD     -0.319000       0.00000          -1   0.00000       0.00000    
     12959 HOAC     95       HOAC     LPO21    LPD     -0.285000       0.00000          -1   0.00000       0.00000    
     12960 HOAC     95       HOAC     LPO22    LPD     -0.285000       0.00000          -1   0.00000       0.00000    
     12961 HOAC     96       HOAC     C1       CD2O3A    3.55420       11.6110           0  -1.20700      0.708000    
     12962 HOAC     96       HOAC     DC1      DRUD     -2.69620      0.400000           0   0.00000       0.00000    
     12963 HOAC     96       HOAC     C2       CD33C     3.26820       11.6110           0  -2.11400      0.750000    
     12964 HOAC     96       HOAC     DC2      DRUD     -3.56820      0.400000           0   0.00000       0.00000    
     12965 HOAC     96       HOAC     H1       HDA3A    0.920000E-01   1.00800           0   0.00000       0.00000    
     12966 HOAC     96       HOAC     H2       HDA3A    0.920000E-01   1.00800           0   0.00000       0.00000    
     12967 HOAC     96       HOAC     H3       HDA3A    0.920000E-01   1.00800           0   0.00000       0.00000    
     12968 HOAC     96       HOAC     O1       OD2C3A    2.35650       15.5994           0 -0.922000       1.53900    
     12969 HOAC     96       HOAC     DO1      DRUD     -2.35650      0.400000           0   0.00000       0.00000    
     12970 HOAC     96       HOAC     O2       OD31F     2.77650       15.5990           0  -1.28000       1.12400    
     12971 HOAC     96       HOAC     DO2      DRUD     -2.77650      0.400000           0   0.00000       0.00000    
     12972 HOAC     96       HOAC     H        HDP1A    0.374000       1.00800           0   0.00000       0.00000    
     12973 HOAC     96       HOAC     LPO11    LPD     -0.319000       0.00000          -1   0.00000       0.00000    
     12974 HOAC     96       HOAC     LPO12    LPD     -0.319000       0.00000          -1   0.00000       0.00000    
     12975 HOAC     96       HOAC     LPO21    LPD     -0.285000       0.00000          -1   0.00000       0.00000    
     12976 HOAC     96       HOAC     LPO22    LPD     -0.285000       0.00000          -1   0.00000       0.00000    
     12977 HOAC     97       HOAC     C1       CD2O3A    3.55420       11.6110           0  -1.20700      0.708000    
     12978 HOAC     97       HOAC     DC1      DRUD     -2.69620      0.400000           0   0.00000       0.00000    
     12979 HOAC     97       HOAC     C2       CD33C     3.26820       11.6110           0  -2.11400      0.750000    
     12980 HOAC     97       HOAC     DC2      DRUD     -3.56820      0.400000           0   0.00000       0.00000    
     12981 HOAC     97       HOAC     H1       HDA3A    0.920000E-01   1.00800           0   0.00000       0.00000    
     12982 HOAC     97       HOAC     H2       HDA3A    0.920000E-01   1.00800           0   0.00000       0.00000    
     12983 HOAC     97       HOAC     H3       HDA3A    0.920000E-01   1.00800           0   0.00000       0.00000    
     12984 HOAC     97       HOAC     O1       OD2C3A    2.35650       15.5994           0 -0.922000       1.53900    
     12985 HOAC     97       HOAC     DO1      DRUD     -2.35650      0.400000           0   0.00000       0.00000    
     12986 HOAC     97       HOAC     O2       OD31F     2.77650       15.5990           0  -1.28000       1.12400    
     12987 HOAC     97       HOAC     DO2      DRUD     -2.77650      0.400000           0   0.00000       0.00000    
     12988 HOAC     97       HOAC     H        HDP1A    0.374000       1.00800           0   0.00000       0.00000    
     12989 HOAC     97       HOAC     LPO11    LPD     -0.319000       0.00000          -1   0.00000       0.00000    
     12990 HOAC     97       HOAC     LPO12    LPD     -0.319000       0.00000          -1   0.00000       0.00000    
     12991 HOAC     97       HOAC     LPO21    LPD     -0.285000       0.00000          -1   0.00000       0.00000    
     12992 HOAC     97       HOAC     LPO22    LPD     -0.285000       0.00000          -1   0.00000       0.00000    
     12993 HOAC     98       HOAC     C1       CD2O3A    3.55420       11.6110           0  -1.20700      0.708000    
     12994 HOAC     98       HOAC     DC1      DRUD     -2.69620      0.400000           0   0.00000       0.00000    
     12995 HOAC     98       HOAC     C2       CD33C     3.26820       11.6110           0  -2.11400      0.750000    
     12996 HOAC     98       HOAC     DC2      DRUD     -3.56820      0.400000           0   0.00000       0.00000    
     12997 HOAC     98       HOAC     H1       HDA3A    0.920000E-01   1.00800           0   0.00000       0.00000    
     12998 HOAC     98       HOAC     H2       HDA3A    0.920000E-01   1.00800           0   0.00000       0.00000    
     12999 HOAC     98       HOAC     H3       HDA3A    0.920000E-01   1.00800           0   0.00000       0.00000    
     13000 HOAC     98       HOAC     O1       OD2C3A    2.35650       15.5994           0 -0.922000       1.53900    
     13001 HOAC     98       HOAC     DO1      DRUD     -2.35650      0.400000           0   0.00000       0.00000    
     13002 HOAC     98       HOAC     O2       OD31F     2.77650       15.5990           0  -1.28000       1.12400    
     13003 HOAC     98       HOAC     DO2      DRUD     -2.77650      0.400000           0   0.00000       0.00000    
     13004 HOAC     98       HOAC     H        HDP1A    0.374000       1.00800           0   0.00000       0.00000    
     13005 HOAC     98       HOAC     LPO11    LPD     -0.319000       0.00000          -1   0.00000       0.00000    
     13006 HOAC     98       HOAC     LPO12    LPD     -0.319000       0.00000          -1   0.00000       0.00000    
     13007 HOAC     98       HOAC     LPO21    LPD     -0.285000       0.00000          -1   0.00000       0.00000    
     13008 HOAC     98       HOAC     LPO22    LPD     -0.285000       0.00000          -1   0.00000       0.00000    
     13009 HOAC     99       HOAC     C1       CD2O3A    3.55420       11.6110           0  -1.20700      0.708000    
     13010 HOAC     99       HOAC     DC1      DRUD     -2.69620      0.400000           0   0.00000       0.00000    
     13011 HOAC     99       HOAC     C2       CD33C     3.26820       11.6110           0  -2.11400      0.750000    
     13012 HOAC     99       HOAC     DC2      DRUD     -3.56820      0.400000           0   0.00000       0.00000    
     13013 HOAC     99       HOAC     H1       HDA3A    0.920000E-01   1.00800           0   0.00000       0.00000    
     13014 HOAC     99       HOAC     H2       HDA3A    0.920000E-01   1.00800           0   0.00000       0.00000    
     13015 HOAC     99       HOAC     H3       HDA3A    0.920000E-01   1.00800           0   0.00000       0.00000    
     13016 HOAC     99       HOAC     O1       OD2C3A    2.35650       15.5994           0 -0.922000       1.53900    
     13017 HOAC     99       HOAC     DO1      DRUD     -2.35650      0.400000           0   0.00000       0.00000    
     13018 HOAC     99       HOAC     O2       OD31F     2.77650       15.5990           0  -1.28000       1.12400    
     13019 HOAC     99       HOAC     DO2      DRUD     -2.77650      0.400000           0   0.00000       0.00000    
     13020 HOAC     99       HOAC     H        HDP1A    0.374000       1.00800           0   0.00000       0.00000    
     13021 HOAC     99       HOAC     LPO11    LPD     -0.319000       0.00000          -1   0.00000       0.00000    
     13022 HOAC     99       HOAC     LPO12    LPD     -0.319000       0.00000          -1   0.00000       0.00000    
     13023 HOAC     99       HOAC     LPO21    LPD     -0.285000       0.00000          -1   0.00000       0.00000    
     13024 HOAC     99       HOAC     LPO22    LPD     -0.285000       0.00000          -1   0.00000       0.00000    
     13025 HOAC     100      HOAC     C1       CD2O3A    3.55420       11.6110           0  -1.20700      0.708000    
     13026 HOAC     100      HOAC     DC1      DRUD     -2.69620      0.400000           0   0.00000       0.00000    
     13027 HOAC     100      HOAC     C2       CD33C     3.26820       11.6110           0  -2.11400      0.750000    
     13028 HOAC     100      HOAC     DC2      DRUD     -3.56820      0.400000           0   0.00000       0.00000    
     13029 HOAC     100      HOAC     H1       HDA3A    0.920000E-01   1.00800           0   0.00000       0.00000    
     13030 HOAC     100      HOAC     H2       HDA3A    0.920000E-01   1.00800           0   0.00000       0.00000    
     13031 HOAC     100      HOAC     H3       HDA3A    0.920000E-01   1.00800           0   0.00000       0.00000    
     13032 HOAC     100      HOAC     O1       OD2C3A    2.35650       15.5994           0 -0.922000       1.53900    
     13033 HOAC     100      HOAC     DO1      DRUD     -2.35650      0.400000           0   0.00000       0.00000    
     13034 HOAC     100      HOAC     O2       OD31F     2.77650       15.5990           0  -1.28000       1.12400    
     13035 HOAC     100      HOAC     DO2      DRUD     -2.77650      0.400000           0   0.00000       0.00000    
     13036 HOAC     100      HOAC     H        HDP1A    0.374000       1.00800           0   0.00000       0.00000    
     13037 HOAC     100      HOAC     LPO11    LPD     -0.319000       0.00000          -1   0.00000       0.00000    
     13038 HOAC     100      HOAC     LPO12    LPD     -0.319000       0.00000          -1   0.00000       0.00000    
     13039 HOAC     100      HOAC     LPO21    LPD     -0.285000       0.00000          -1   0.00000       0.00000    
     13040 HOAC     100      HOAC     LPO22    LPD     -0.285000       0.00000          -1   0.00000       0.00000    
     13041 HOAC     101      HOAC     C1       CD2O3A    3.55420       11.6110           0  -1.20700      0.708000    
     13042 HOAC     101      HOAC     DC1      DRUD     -2.69620      0.400000           0   0.00000       0.00000    
     13043 HOAC     101      HOAC     C2       CD33C     3.26820       11.6110           0  -2.11400      0.750000    
     13044 HOAC     101      HOAC     DC2      DRUD     -3.56820      0.400000           0   0.00000       0.00000    
     13045 HOAC     101      HOAC     H1       HDA3A    0.920000E-01   1.00800           0   0.00000       0.00000    
     13046 HOAC     101      HOAC     H2       HDA3A    0.920000E-01   1.00800           0   0.00000       0.00000    
     13047 HOAC     101      HOAC     H3       HDA3A    0.920000E-01   1.00800           0   0.00000       0.00000    
     13048 HOAC     101      HOAC     O1       OD2C3A    2.35650       15.5994           0 -0.922000       1.53900    
     13049 HOAC     101      HOAC     DO1      DRUD     -2.35650      0.400000           0   0.00000       0.00000    
     13050 HOAC     101      HOAC     O2       OD31F     2.77650       15.5990           0  -1.28000       1.12400    
     13051 HOAC     101      HOAC     DO2      DRUD     -2.77650      0.400000           0   0.00000       0.00000    
     13052 HOAC     101      HOAC     H        HDP1A    0.374000       1.00800           0   0.00000       0.00000    
     13053 HOAC     101      HOAC     LPO11    LPD     -0.319000       0.00000          -1   0.00000       0.00000    
     13054 HOAC     101      HOAC     LPO12    LPD     -0.319000       0.00000          -1   0.00000       0.00000    
     13055 HOAC     101      HOAC     LPO21    LPD     -0.285000       0.00000          -1   0.00000       0.00000    
     13056 HOAC     101      HOAC     LPO22    LPD     -0.285000       0.00000          -1   0.00000       0.00000    
     13057 HOAC     102      HOAC     C1       CD2O3A    3.55420       11.6110           0  -1.20700      0.708000    
     13058 HOAC     102      HOAC     DC1      DRUD     -2.69620      0.400000           0   0.00000       0.00000    
     13059 HOAC     102      HOAC     C2       CD33C     3.26820       11.6110           0  -2.11400      0.750000    
     13060 HOAC     102      HOAC     DC2      DRUD     -3.56820      0.400000           0   0.00000       0.00000    
     13061 HOAC     102      HOAC     H1       HDA3A    0.920000E-01   1.00800           0   0.00000       0.00000    
     13062 HOAC     102      HOAC     H2       HDA3A    0.920000E-01   1.00800           0   0.00000       0.00000    
     13063 HOAC     102      HOAC     H3       HDA3A    0.920000E-01   1.00800           0   0.00000       0.00000    
     13064 HOAC     102      HOAC     O1       OD2C3A    2.35650       15.5994           0 -0.922000       1.53900    
     13065 HOAC     102      HOAC     DO1      DRUD     -2.35650      0.400000           0   0.00000       0.00000    
     13066 HOAC     102      HOAC     O2       OD31F     2.77650       15.5990           0  -1.28000       1.12400    
     13067 HOAC     102      HOAC     DO2      DRUD     -2.77650      0.400000           0   0.00000       0.00000    
     13068 HOAC     102      HOAC     H        HDP1A    0.374000       1.00800           0   0.00000       0.00000    
     13069 HOAC     102      HOAC     LPO11    LPD     -0.319000       0.00000          -1   0.00000       0.00000    
     13070 HOAC     102      HOAC     LPO12    LPD     -0.319000       0.00000          -1   0.00000       0.00000    
     13071 HOAC     102      HOAC     LPO21    LPD     -0.285000       0.00000          -1   0.00000       0.00000    
     13072 HOAC     102      HOAC     LPO22    LPD     -0.285000       0.00000          -1   0.00000       0.00000    
     13073 HOAC     103      HOAC     C1       CD2O3A    3.55420       11.6110           0  -1.20700      0.708000    
     13074 HOAC     103      HOAC     DC1      DRUD     -2.69620      0.400000           0   0.00000       0.00000    
     13075 HOAC     103      HOAC     C2       CD33C     3.26820       11.6110           0  -2.11400      0.750000    
     13076 HOAC     103      HOAC     DC2      DRUD     -3.56820      0.400000           0   0.00000       0.00000    
     13077 HOAC     103      HOAC     H1       HDA3A    0.920000E-01   1.00800           0   0.00000       0.00000    
     13078 HOAC     103      HOAC     H2       HDA3A    0.920000E-01   1.00800           0   0.00000       0.00000    
     13079 HOAC     103      HOAC     H3       HDA3A    0.920000E-01   1.00800           0   0.00000       0.00000    
     13080 HOAC     103      HOAC     O1       OD2C3A    2.35650       15.5994           0 -0.922000       1.53900    
     13081 HOAC     103      HOAC     DO1      DRUD     -2.35650      0.400000           0   0.00000       0.00000    
     13082 HOAC     103      HOAC     O2       OD31F     2.77650       15.5990           0  -1.28000       1.12400    
     13083 HOAC     103      HOAC     DO2      DRUD     -2.77650      0.400000           0   0.00000       0.00000    
     13084 HOAC     103      HOAC     H        HDP1A    0.374000       1.00800           0   0.00000       0.00000    
     13085 HOAC     103      HOAC     LPO11    LPD     -0.319000       0.00000          -1   0.00000       0.00000    
     13086 HOAC     103      HOAC     LPO12    LPD     -0.319000       0.00000          -1   0.00000       0.00000    
     13087 HOAC     103      HOAC     LPO21    LPD     -0.285000       0.00000          -1   0.00000       0.00000    
     13088 HOAC     103      HOAC     LPO22    LPD     -0.285000       0.00000          -1   0.00000       0.00000    
     13089 HOAC     104      HOAC     C1       CD2O3A    3.55420       11.6110           0  -1.20700      0.708000    
     13090 HOAC     104      HOAC     DC1      DRUD     -2.69620      0.400000           0   0.00000       0.00000    
     13091 HOAC     104      HOAC     C2       CD33C     3.26820       11.6110           0  -2.11400      0.750000    
     13092 HOAC     104      HOAC     DC2      DRUD     -3.56820      0.400000           0   0.00000       0.00000    
     13093 HOAC     104      HOAC     H1       HDA3A    0.920000E-01   1.00800           0   0.00000       0.00000    
     13094 HOAC     104      HOAC     H2       HDA3A    0.920000E-01   1.00800           0   0.00000       0.00000    
     13095 HOAC     104      HOAC     H3       HDA3A    0.920000E-01   1.00800           0   0.00000       0.00000    
     13096 HOAC     104      HOAC     O1       OD2C3A    2.35650       15.5994           0 -0.922000       1.53900    
     13097 HOAC     104      HOAC     DO1      DRUD     -2.35650      0.400000           0   0.00000       0.00000    
     13098 HOAC     104      HOAC     O2       OD31F     2.77650       15.5990           0  -1.28000       1.12400    
     13099 HOAC     104      HOAC     DO2      DRUD     -2.77650      0.400000           0   0.00000       0.00000    
     13100 HOAC     104      HOAC     H        HDP1A    0.374000       1.00800           0   0.00000       0.00000    
     13101 HOAC     104      HOAC     LPO11    LPD     -0.319000       0.00000          -1   0.00000       0.00000    
     13102 HOAC     104      HOAC     LPO12    LPD     -0.319000       0.00000          -1   0.00000       0.00000    
     13103 HOAC     104      HOAC     LPO21    LPD     -0.285000       0.00000          -1   0.00000       0.00000    
     13104 HOAC     104      HOAC     LPO22    LPD     -0.285000       0.00000          -1   0.00000       0.00000    
     13105 HOAC     105      HOAC     C1       CD2O3A    3.55420       11.6110           0  -1.20700      0.708000    
     13106 HOAC     105      HOAC     DC1      DRUD     -2.69620      0.400000           0   0.00000       0.00000    
     13107 HOAC     105      HOAC     C2       CD33C     3.26820       11.6110           0  -2.11400      0.750000    
     13108 HOAC     105      HOAC     DC2      DRUD     -3.56820      0.400000           0   0.00000       0.00000    
     13109 HOAC     105      HOAC     H1       HDA3A    0.920000E-01   1.00800           0   0.00000       0.00000    
     13110 HOAC     105      HOAC     H2       HDA3A    0.920000E-01   1.00800           0   0.00000       0.00000    
     13111 HOAC     105      HOAC     H3       HDA3A    0.920000E-01   1.00800           0   0.00000       0.00000    
     13112 HOAC     105      HOAC     O1       OD2C3A    2.35650       15.5994           0 -0.922000       1.53900    
     13113 HOAC     105      HOAC     DO1      DRUD     -2.35650      0.400000           0   0.00000       0.00000    
     13114 HOAC     105      HOAC     O2       OD31F     2.77650       15.5990           0  -1.28000       1.12400    
     13115 HOAC     105      HOAC     DO2      DRUD     -2.77650      0.400000           0   0.00000       0.00000    
     13116 HOAC     105      HOAC     H        HDP1A    0.374000       1.00800           0   0.00000       0.00000    
     13117 HOAC     105      HOAC     LPO11    LPD     -0.319000       0.00000          -1   0.00000       0.00000    
     13118 HOAC     105      HOAC     LPO12    LPD     -0.319000       0.00000          -1   0.00000       0.00000    
     13119 HOAC     105      HOAC     LPO21    LPD     -0.285000       0.00000          -1   0.00000       0.00000    
     13120 HOAC     105      HOAC     LPO22    LPD     -0.285000       0.00000          -1   0.00000       0.00000    
     13121 HOAC     106      HOAC     C1       CD2O3A    3.55420       11.6110           0  -1.20700      0.708000    
     13122 HOAC     106      HOAC     DC1      DRUD     -2.69620      0.400000           0   0.00000       0.00000    
     13123 HOAC     106      HOAC     C2       CD33C     3.26820       11.6110           0  -2.11400      0.750000    
     13124 HOAC     106      HOAC     DC2      DRUD     -3.56820      0.400000           0   0.00000       0.00000    
     13125 HOAC     106      HOAC     H1       HDA3A    0.920000E-01   1.00800           0   0.00000       0.00000    
     13126 HOAC     106      HOAC     H2       HDA3A    0.920000E-01   1.00800           0   0.00000       0.00000    
     13127 HOAC     106      HOAC     H3       HDA3A    0.920000E-01   1.00800           0   0.00000       0.00000    
     13128 HOAC     106      HOAC     O1       OD2C3A    2.35650       15.5994           0 -0.922000       1.53900    
     13129 HOAC     106      HOAC     DO1      DRUD     -2.35650      0.400000           0   0.00000       0.00000    
     13130 HOAC     106      HOAC     O2       OD31F     2.77650       15.5990           0  -1.28000       1.12400    
     13131 HOAC     106      HOAC     DO2      DRUD     -2.77650      0.400000           0   0.00000       0.00000    
     13132 HOAC     106      HOAC     H        HDP1A    0.374000       1.00800           0   0.00000       0.00000    
     13133 HOAC     106      HOAC     LPO11    LPD     -0.319000       0.00000          -1   0.00000       0.00000    
     13134 HOAC     106      HOAC     LPO12    LPD     -0.319000       0.00000          -1   0.00000       0.00000    
     13135 HOAC     106      HOAC     LPO21    LPD     -0.285000       0.00000          -1   0.00000       0.00000    
     13136 HOAC     106      HOAC     LPO22    LPD     -0.285000       0.00000          -1   0.00000       0.00000    
     13137 HOAC     107      HOAC     C1       CD2O3A    3.55420       11.6110           0  -1.20700      0.708000    
     13138 HOAC     107      HOAC     DC1      DRUD     -2.69620      0.400000           0   0.00000       0.00000    
     13139 HOAC     107      HOAC     C2       CD33C     3.26820       11.6110           0  -2.11400      0.750000    
     13140 HOAC     107      HOAC     DC2      DRUD     -3.56820      0.400000           0   0.00000       0.00000    
     13141 HOAC     107      HOAC     H1       HDA3A    0.920000E-01   1.00800           0   0.00000       0.00000    
     13142 HOAC     107      HOAC     H2       HDA3A    0.920000E-01   1.00800           0   0.00000       0.00000    
     13143 HOAC     107      HOAC     H3       HDA3A    0.920000E-01   1.00800           0   0.00000       0.00000    
     13144 HOAC     107      HOAC     O1       OD2C3A    2.35650       15.5994           0 -0.922000       1.53900    
     13145 HOAC     107      HOAC     DO1      DRUD     -2.35650      0.400000           0   0.00000       0.00000    
     13146 HOAC     107      HOAC     O2       OD31F     2.77650       15.5990           0  -1.28000       1.12400    
     13147 HOAC     107      HOAC     DO2      DRUD     -2.77650      0.400000           0   0.00000       0.00000    
     13148 HOAC     107      HOAC     H        HDP1A    0.374000       1.00800           0   0.00000       0.00000    
     13149 HOAC     107      HOAC     LPO11    LPD     -0.319000       0.00000          -1   0.00000       0.00000    
     13150 HOAC     107      HOAC     LPO12    LPD     -0.319000       0.00000          -1   0.00000       0.00000    
     13151 HOAC     107      HOAC     LPO21    LPD     -0.285000       0.00000          -1   0.00000       0.00000    
     13152 HOAC     107      HOAC     LPO22    LPD     -0.285000       0.00000          -1   0.00000       0.00000    
     13153 HOAC     108      HOAC     C1       CD2O3A    3.55420       11.6110           0  -1.20700      0.708000    
     13154 HOAC     108      HOAC     DC1      DRUD     -2.69620      0.400000           0   0.00000       0.00000    
     13155 HOAC     108      HOAC     C2       CD33C     3.26820       11.6110           0  -2.11400      0.750000    
     13156 HOAC     108      HOAC     DC2      DRUD     -3.56820      0.400000           0   0.00000       0.00000    
     13157 HOAC     108      HOAC     H1       HDA3A    0.920000E-01   1.00800           0   0.00000       0.00000    
     13158 HOAC     108      HOAC     H2       HDA3A    0.920000E-01   1.00800           0   0.00000       0.00000    
     13159 HOAC     108      HOAC     H3       HDA3A    0.920000E-01   1.00800           0   0.00000       0.00000    
     13160 HOAC     108      HOAC     O1       OD2C3A    2.35650       15.5994           0 -0.922000       1.53900    
     13161 HOAC     108      HOAC     DO1      DRUD     -2.35650      0.400000           0   0.00000       0.00000    
     13162 HOAC     108      HOAC     O2       OD31F     2.77650       15.5990           0  -1.28000       1.12400    
     13163 HOAC     108      HOAC     DO2      DRUD     -2.77650      0.400000           0   0.00000       0.00000    
     13164 HOAC     108      HOAC     H        HDP1A    0.374000       1.00800           0   0.00000       0.00000    
     13165 HOAC     108      HOAC     LPO11    LPD     -0.319000       0.00000          -1   0.00000       0.00000    
     13166 HOAC     108      HOAC     LPO12    LPD     -0.319000       0.00000          -1   0.00000       0.00000    
     13167 HOAC     108      HOAC     LPO21    LPD     -0.285000       0.00000          -1   0.00000       0.00000    
     13168 HOAC     108      HOAC     LPO22    LPD     -0.285000       0.00000          -1   0.00000       0.00000    
     13169 HOAC     109      HOAC     C1       CD2O3A    3.55420       11.6110           0  -1.20700      0.708000    
     13170 HOAC     109      HOAC     DC1      DRUD     -2.69620      0.400000           0   0.00000       0.00000    
     13171 HOAC     109      HOAC     C2       CD33C     3.26820       11.6110           0  -2.11400      0.750000    
     13172 HOAC     109      HOAC     DC2      DRUD     -3.56820      0.400000           0   0.00000       0.00000    
     13173 HOAC     109      HOAC     H1       HDA3A    0.920000E-01   1.00800           0   0.00000       0.00000    
     13174 HOAC     109      HOAC     H2       HDA3A    0.920000E-01   1.00800           0   0.00000       0.00000    
     13175 HOAC     109      HOAC     H3       HDA3A    0.920000E-01   1.00800           0   0.00000       0.00000    
     13176 HOAC     109      HOAC     O1       OD2C3A    2.35650       15.5994           0 -0.922000       1.53900    
     13177 HOAC     109      HOAC     DO1      DRUD     -2.35650      0.400000           0   0.00000       0.00000    
     13178 HOAC     109      HOAC     O2       OD31F     2.77650       15.5990           0  -1.28000       1.12400    
     13179 HOAC     109      HOAC     DO2      DRUD     -2.77650      0.400000           0   0.00000       0.00000    
     13180 HOAC     109      HOAC     H        HDP1A    0.374000       1.00800           0   0.00000       0.00000    
     13181 HOAC     109      HOAC     LPO11    LPD     -0.319000       0.00000          -1   0.00000       0.00000    
     13182 HOAC     109      HOAC     LPO12    LPD     -0.319000       0.00000          -1   0.00000       0.00000    
     13183 HOAC     109      HOAC     LPO21    LPD     -0.285000       0.00000          -1   0.00000       0.00000    
     13184 HOAC     109      HOAC     LPO22    LPD     -0.285000       0.00000          -1   0.00000       0.00000    
     13185 HOAC     110      HOAC     C1       CD2O3A    3.55420       11.6110           0  -1.20700      0.708000    
     13186 HOAC     110      HOAC     DC1      DRUD     -2.69620      0.400000           0   0.00000       0.00000    
     13187 HOAC     110      HOAC     C2       CD33C     3.26820       11.6110           0  -2.11400      0.750000    
     13188 HOAC     110      HOAC     DC2      DRUD     -3.56820      0.400000           0   0.00000       0.00000    
     13189 HOAC     110      HOAC     H1       HDA3A    0.920000E-01   1.00800           0   0.00000       0.00000    
     13190 HOAC     110      HOAC     H2       HDA3A    0.920000E-01   1.00800           0   0.00000       0.00000    
     13191 HOAC     110      HOAC     H3       HDA3A    0.920000E-01   1.00800           0   0.00000       0.00000    
     13192 HOAC     110      HOAC     O1       OD2C3A    2.35650       15.5994           0 -0.922000       1.53900    
     13193 HOAC     110      HOAC     DO1      DRUD     -2.35650      0.400000           0   0.00000       0.00000    
     13194 HOAC     110      HOAC     O2       OD31F     2.77650       15.5990           0  -1.28000       1.12400    
     13195 HOAC     110      HOAC     DO2      DRUD     -2.77650      0.400000           0   0.00000       0.00000    
     13196 HOAC     110      HOAC     H        HDP1A    0.374000       1.00800           0   0.00000       0.00000    
     13197 HOAC     110      HOAC     LPO11    LPD     -0.319000       0.00000          -1   0.00000       0.00000    
     13198 HOAC     110      HOAC     LPO12    LPD     -0.319000       0.00000          -1   0.00000       0.00000    
     13199 HOAC     110      HOAC     LPO21    LPD     -0.285000       0.00000          -1   0.00000       0.00000    
     13200 HOAC     110      HOAC     LPO22    LPD     -0.285000       0.00000          -1   0.00000       0.00000    
     13201 HOAC     111      HOAC     C1       CD2O3A    3.55420       11.6110           0  -1.20700      0.708000    
     13202 HOAC     111      HOAC     DC1      DRUD     -2.69620      0.400000           0   0.00000       0.00000    
     13203 HOAC     111      HOAC     C2       CD33C     3.26820       11.6110           0  -2.11400      0.750000    
     13204 HOAC     111      HOAC     DC2      DRUD     -3.56820      0.400000           0   0.00000       0.00000    
     13205 HOAC     111      HOAC     H1       HDA3A    0.920000E-01   1.00800           0   0.00000       0.00000    
     13206 HOAC     111      HOAC     H2       HDA3A    0.920000E-01   1.00800           0   0.00000       0.00000    
     13207 HOAC     111      HOAC     H3       HDA3A    0.920000E-01   1.00800           0   0.00000       0.00000    
     13208 HOAC     111      HOAC     O1       OD2C3A    2.35650       15.5994           0 -0.922000       1.53900    
     13209 HOAC     111      HOAC     DO1      DRUD     -2.35650      0.400000           0   0.00000       0.00000    
     13210 HOAC     111      HOAC     O2       OD31F     2.77650       15.5990           0  -1.28000       1.12400    
     13211 HOAC     111      HOAC     DO2      DRUD     -2.77650      0.400000           0   0.00000       0.00000    
     13212 HOAC     111      HOAC     H        HDP1A    0.374000       1.00800           0   0.00000       0.00000    
     13213 HOAC     111      HOAC     LPO11    LPD     -0.319000       0.00000          -1   0.00000       0.00000    
     13214 HOAC     111      HOAC     LPO12    LPD     -0.319000       0.00000          -1   0.00000       0.00000    
     13215 HOAC     111      HOAC     LPO21    LPD     -0.285000       0.00000          -1   0.00000       0.00000    
     13216 HOAC     111      HOAC     LPO22    LPD     -0.285000       0.00000          -1   0.00000       0.00000    
     13217 HOAC     112      HOAC     C1       CD2O3A    3.55420       11.6110           0  -1.20700      0.708000    
     13218 HOAC     112      HOAC     DC1      DRUD     -2.69620      0.400000           0   0.00000       0.00000    
     13219 HOAC     112      HOAC     C2       CD33C     3.26820       11.6110           0  -2.11400      0.750000    
     13220 HOAC     112      HOAC     DC2      DRUD     -3.56820      0.400000           0   0.00000       0.00000    
     13221 HOAC     112      HOAC     H1       HDA3A    0.920000E-01   1.00800           0   0.00000       0.00000    
     13222 HOAC     112      HOAC     H2       HDA3A    0.920000E-01   1.00800           0   0.00000       0.00000    
     13223 HOAC     112      HOAC     H3       HDA3A    0.920000E-01   1.00800           0   0.00000       0.00000    
     13224 HOAC     112      HOAC     O1       OD2C3A    2.35650       15.5994           0 -0.922000       1.53900    
     13225 HOAC     112      HOAC     DO1      DRUD     -2.35650      0.400000           0   0.00000       0.00000    
     13226 HOAC     112      HOAC     O2       OD31F     2.77650       15.5990           0  -1.28000       1.12400    
     13227 HOAC     112      HOAC     DO2      DRUD     -2.77650      0.400000           0   0.00000       0.00000    
     13228 HOAC     112      HOAC     H        HDP1A    0.374000       1.00800           0   0.00000       0.00000    
     13229 HOAC     112      HOAC     LPO11    LPD     -0.319000       0.00000          -1   0.00000       0.00000    
     13230 HOAC     112      HOAC     LPO12    LPD     -0.319000       0.00000          -1   0.00000       0.00000    
     13231 HOAC     112      HOAC     LPO21    LPD     -0.285000       0.00000          -1   0.00000       0.00000    
     13232 HOAC     112      HOAC     LPO22    LPD     -0.285000       0.00000          -1   0.00000       0.00000    
     13233 HOAC     113      HOAC     C1       CD2O3A    3.55420       11.6110           0  -1.20700      0.708000    
     13234 HOAC     113      HOAC     DC1      DRUD     -2.69620      0.400000           0   0.00000       0.00000    
     13235 HOAC     113      HOAC     C2       CD33C     3.26820       11.6110           0  -2.11400      0.750000    
     13236 HOAC     113      HOAC     DC2      DRUD     -3.56820      0.400000           0   0.00000       0.00000    
     13237 HOAC     113      HOAC     H1       HDA3A    0.920000E-01   1.00800           0   0.00000       0.00000    
     13238 HOAC     113      HOAC     H2       HDA3A    0.920000E-01   1.00800           0   0.00000       0.00000    
     13239 HOAC     113      HOAC     H3       HDA3A    0.920000E-01   1.00800           0   0.00000       0.00000    
     13240 HOAC     113      HOAC     O1       OD2C3A    2.35650       15.5994           0 -0.922000       1.53900    
     13241 HOAC     113      HOAC     DO1      DRUD     -2.35650      0.400000           0   0.00000       0.00000    
     13242 HOAC     113      HOAC     O2       OD31F     2.77650       15.5990           0  -1.28000       1.12400    
     13243 HOAC     113      HOAC     DO2      DRUD     -2.77650      0.400000           0   0.00000       0.00000    
     13244 HOAC     113      HOAC     H        HDP1A    0.374000       1.00800           0   0.00000       0.00000    
     13245 HOAC     113      HOAC     LPO11    LPD     -0.319000       0.00000          -1   0.00000       0.00000    
     13246 HOAC     113      HOAC     LPO12    LPD     -0.319000       0.00000          -1   0.00000       0.00000    
     13247 HOAC     113      HOAC     LPO21    LPD     -0.285000       0.00000          -1   0.00000       0.00000    
     13248 HOAC     113      HOAC     LPO22    LPD     -0.285000       0.00000          -1   0.00000       0.00000    
     13249 HOAC     114      HOAC     C1       CD2O3A    3.55420       11.6110           0  -1.20700      0.708000    
     13250 HOAC     114      HOAC     DC1      DRUD     -2.69620      0.400000           0   0.00000       0.00000    
     13251 HOAC     114      HOAC     C2       CD33C     3.26820       11.6110           0  -2.11400      0.750000    
     13252 HOAC     114      HOAC     DC2      DRUD     -3.56820      0.400000           0   0.00000       0.00000    
     13253 HOAC     114      HOAC     H1       HDA3A    0.920000E-01   1.00800           0   0.00000       0.00000    
     13254 HOAC     114      HOAC     H2       HDA3A    0.920000E-01   1.00800           0   0.00000       0.00000    
     13255 HOAC     114      HOAC     H3       HDA3A    0.920000E-01   1.00800           0   0.00000       0.00000    
     13256 HOAC     114      HOAC     O1       OD2C3A    2.35650       15.5994           0 -0.922000       1.53900    
     13257 HOAC     114      HOAC     DO1      DRUD     -2.35650      0.400000           0   0.00000       0.00000    
     13258 HOAC     114      HOAC     O2       OD31F     2.77650       15.5990           0  -1.28000       1.12400    
     13259 HOAC     114      HOAC     DO2      DRUD     -2.77650      0.400000           0   0.00000       0.00000    
     13260 HOAC     114      HOAC     H        HDP1A    0.374000       1.00800           0   0.00000       0.00000    
     13261 HOAC     114      HOAC     LPO11    LPD     -0.319000       0.00000          -1   0.00000       0.00000    
     13262 HOAC     114      HOAC     LPO12    LPD     -0.319000       0.00000          -1   0.00000       0.00000    
     13263 HOAC     114      HOAC     LPO21    LPD     -0.285000       0.00000          -1   0.00000       0.00000    
     13264 HOAC     114      HOAC     LPO22    LPD     -0.285000       0.00000          -1   0.00000       0.00000    
     13265 HOAC     115      HOAC     C1       CD2O3A    3.55420       11.6110           0  -1.20700      0.708000    
     13266 HOAC     115      HOAC     DC1      DRUD     -2.69620      0.400000           0   0.00000       0.00000    
     13267 HOAC     115      HOAC     C2       CD33C     3.26820       11.6110           0  -2.11400      0.750000    
     13268 HOAC     115      HOAC     DC2      DRUD     -3.56820      0.400000           0   0.00000       0.00000    
     13269 HOAC     115      HOAC     H1       HDA3A    0.920000E-01   1.00800           0   0.00000       0.00000    
     13270 HOAC     115      HOAC     H2       HDA3A    0.920000E-01   1.00800           0   0.00000       0.00000    
     13271 HOAC     115      HOAC     H3       HDA3A    0.920000E-01   1.00800           0   0.00000       0.00000    
     13272 HOAC     115      HOAC     O1       OD2C3A    2.35650       15.5994           0 -0.922000       1.53900    
     13273 HOAC     115      HOAC     DO1      DRUD     -2.35650      0.400000           0   0.00000       0.00000    
     13274 HOAC     115      HOAC     O2       OD31F     2.77650       15.5990           0  -1.28000       1.12400    
     13275 HOAC     115      HOAC     DO2      DRUD     -2.77650      0.400000           0   0.00000       0.00000    
     13276 HOAC     115      HOAC     H        HDP1A    0.374000       1.00800           0   0.00000       0.00000    
     13277 HOAC     115      HOAC     LPO11    LPD     -0.319000       0.00000          -1   0.00000       0.00000    
     13278 HOAC     115      HOAC     LPO12    LPD     -0.319000       0.00000          -1   0.00000       0.00000    
     13279 HOAC     115      HOAC     LPO21    LPD     -0.285000       0.00000          -1   0.00000       0.00000    
     13280 HOAC     115      HOAC     LPO22    LPD     -0.285000       0.00000          -1   0.00000       0.00000    
     13281 HOAC     116      HOAC     C1       CD2O3A    3.55420       11.6110           0  -1.20700      0.708000    
     13282 HOAC     116      HOAC     DC1      DRUD     -2.69620      0.400000           0   0.00000       0.00000    
     13283 HOAC     116      HOAC     C2       CD33C     3.26820       11.6110           0  -2.11400      0.750000    
     13284 HOAC     116      HOAC     DC2      DRUD     -3.56820      0.400000           0   0.00000       0.00000    
     13285 HOAC     116      HOAC     H1       HDA3A    0.920000E-01   1.00800           0   0.00000       0.00000    
     13286 HOAC     116      HOAC     H2       HDA3A    0.920000E-01   1.00800           0   0.00000       0.00000    
     13287 HOAC     116      HOAC     H3       HDA3A    0.920000E-01   1.00800           0   0.00000       0.00000    
     13288 HOAC     116      HOAC     O1       OD2C3A    2.35650       15.5994           0 -0.922000       1.53900    
     13289 HOAC     116      HOAC     DO1      DRUD     -2.35650      0.400000           0   0.00000       0.00000    
     13290 HOAC     116      HOAC     O2       OD31F     2.77650       15.5990           0  -1.28000       1.12400    
     13291 HOAC     116      HOAC     DO2      DRUD     -2.77650      0.400000           0   0.00000       0.00000    
     13292 HOAC     116      HOAC     H        HDP1A    0.374000       1.00800           0   0.00000       0.00000    
     13293 HOAC     116      HOAC     LPO11    LPD     -0.319000       0.00000          -1   0.00000       0.00000    
     13294 HOAC     116      HOAC     LPO12    LPD     -0.319000       0.00000          -1   0.00000       0.00000    
     13295 HOAC     116      HOAC     LPO21    LPD     -0.285000       0.00000          -1   0.00000       0.00000    
     13296 HOAC     116      HOAC     LPO22    LPD     -0.285000       0.00000          -1   0.00000       0.00000    
     13297 HOAC     117      HOAC     C1       CD2O3A    3.55420       11.6110           0  -1.20700      0.708000    
     13298 HOAC     117      HOAC     DC1      DRUD     -2.69620      0.400000           0   0.00000       0.00000    
     13299 HOAC     117      HOAC     C2       CD33C     3.26820       11.6110           0  -2.11400      0.750000    
     13300 HOAC     117      HOAC     DC2      DRUD     -3.56820      0.400000           0   0.00000       0.00000    
     13301 HOAC     117      HOAC     H1       HDA3A    0.920000E-01   1.00800           0   0.00000       0.00000    
     13302 HOAC     117      HOAC     H2       HDA3A    0.920000E-01   1.00800           0   0.00000       0.00000    
     13303 HOAC     117      HOAC     H3       HDA3A    0.920000E-01   1.00800           0   0.00000       0.00000    
     13304 HOAC     117      HOAC     O1       OD2C3A    2.35650       15.5994           0 -0.922000       1.53900    
     13305 HOAC     117      HOAC     DO1      DRUD     -2.35650      0.400000           0   0.00000       0.00000    
     13306 HOAC     117      HOAC     O2       OD31F     2.77650       15.5990           0  -1.28000       1.12400    
     13307 HOAC     117      HOAC     DO2      DRUD     -2.77650      0.400000           0   0.00000       0.00000    
     13308 HOAC     117      HOAC     H        HDP1A    0.374000       1.00800           0   0.00000       0.00000    
     13309 HOAC     117      HOAC     LPO11    LPD     -0.319000       0.00000          -1   0.00000       0.00000    
     13310 HOAC     117      HOAC     LPO12    LPD     -0.319000       0.00000          -1   0.00000       0.00000    
     13311 HOAC     117      HOAC     LPO21    LPD     -0.285000       0.00000          -1   0.00000       0.00000    
     13312 HOAC     117      HOAC     LPO22    LPD     -0.285000       0.00000          -1   0.00000       0.00000    
     13313 HOAC     118      HOAC     C1       CD2O3A    3.55420       11.6110           0  -1.20700      0.708000    
     13314 HOAC     118      HOAC     DC1      DRUD     -2.69620      0.400000           0   0.00000       0.00000    
     13315 HOAC     118      HOAC     C2       CD33C     3.26820       11.6110           0  -2.11400      0.750000    
     13316 HOAC     118      HOAC     DC2      DRUD     -3.56820      0.400000           0   0.00000       0.00000    
     13317 HOAC     118      HOAC     H1       HDA3A    0.920000E-01   1.00800           0   0.00000       0.00000    
     13318 HOAC     118      HOAC     H2       HDA3A    0.920000E-01   1.00800           0   0.00000       0.00000    
     13319 HOAC     118      HOAC     H3       HDA3A    0.920000E-01   1.00800           0   0.00000       0.00000    
     13320 HOAC     118      HOAC     O1       OD2C3A    2.35650       15.5994           0 -0.922000       1.53900    
     13321 HOAC     118      HOAC     DO1      DRUD     -2.35650      0.400000           0   0.00000       0.00000    
     13322 HOAC     118      HOAC     O2       OD31F     2.77650       15.5990           0  -1.28000       1.12400    
     13323 HOAC     118      HOAC     DO2      DRUD     -2.77650      0.400000           0   0.00000       0.00000    
     13324 HOAC     118      HOAC     H        HDP1A    0.374000       1.00800           0   0.00000       0.00000    
     13325 HOAC     118      HOAC     LPO11    LPD     -0.319000       0.00000          -1   0.00000       0.00000    
     13326 HOAC     118      HOAC     LPO12    LPD     -0.319000       0.00000          -1   0.00000       0.00000    
     13327 HOAC     118      HOAC     LPO21    LPD     -0.285000       0.00000          -1   0.00000       0.00000    
     13328 HOAC     118      HOAC     LPO22    LPD     -0.285000       0.00000          -1   0.00000       0.00000    
     13329 HOAC     119      HOAC     C1       CD2O3A    3.55420       11.6110           0  -1.20700      0.708000    
     13330 HOAC     119      HOAC     DC1      DRUD     -2.69620      0.400000           0   0.00000       0.00000    
     13331 HOAC     119      HOAC     C2       CD33C     3.26820       11.6110           0  -2.11400      0.750000    
     13332 HOAC     119      HOAC     DC2      DRUD     -3.56820      0.400000           0   0.00000       0.00000    
     13333 HOAC     119      HOAC     H1       HDA3A    0.920000E-01   1.00800           0   0.00000       0.00000    
     13334 HOAC     119      HOAC     H2       HDA3A    0.920000E-01   1.00800           0   0.00000       0.00000    
     13335 HOAC     119      HOAC     H3       HDA3A    0.920000E-01   1.00800           0   0.00000       0.00000    
     13336 HOAC     119      HOAC     O1       OD2C3A    2.35650       15.5994           0 -0.922000       1.53900    
     13337 HOAC     119      HOAC     DO1      DRUD     -2.35650      0.400000           0   0.00000       0.00000    
     13338 HOAC     119      HOAC     O2       OD31F     2.77650       15.5990           0  -1.28000       1.12400    
     13339 HOAC     119      HOAC     DO2      DRUD     -2.77650      0.400000           0   0.00000       0.00000    
     13340 HOAC     119      HOAC     H        HDP1A    0.374000       1.00800           0   0.00000       0.00000    
     13341 HOAC     119      HOAC     LPO11    LPD     -0.319000       0.00000          -1   0.00000       0.00000    
     13342 HOAC     119      HOAC     LPO12    LPD     -0.319000       0.00000          -1   0.00000       0.00000    
     13343 HOAC     119      HOAC     LPO21    LPD     -0.285000       0.00000          -1   0.00000       0.00000    
     13344 HOAC     119      HOAC     LPO22    LPD     -0.285000       0.00000          -1   0.00000       0.00000    
     13345 HOAC     120      HOAC     C1       CD2O3A    3.55420       11.6110           0  -1.20700      0.708000    
     13346 HOAC     120      HOAC     DC1      DRUD     -2.69620      0.400000           0   0.00000       0.00000    
     13347 HOAC     120      HOAC     C2       CD33C     3.26820       11.6110           0  -2.11400      0.750000    
     13348 HOAC     120      HOAC     DC2      DRUD     -3.56820      0.400000           0   0.00000       0.00000    
     13349 HOAC     120      HOAC     H1       HDA3A    0.920000E-01   1.00800           0   0.00000       0.00000    
     13350 HOAC     120      HOAC     H2       HDA3A    0.920000E-01   1.00800           0   0.00000       0.00000    
     13351 HOAC     120      HOAC     H3       HDA3A    0.920000E-01   1.00800           0   0.00000       0.00000    
     13352 HOAC     120      HOAC     O1       OD2C3A    2.35650       15.5994           0 -0.922000       1.53900    
     13353 HOAC     120      HOAC     DO1      DRUD     -2.35650      0.400000           0   0.00000       0.00000    
     13354 HOAC     120      HOAC     O2       OD31F     2.77650       15.5990           0  -1.28000       1.12400    
     13355 HOAC     120      HOAC     DO2      DRUD     -2.77650      0.400000           0   0.00000       0.00000    
     13356 HOAC     120      HOAC     H        HDP1A    0.374000       1.00800           0   0.00000       0.00000    
     13357 HOAC     120      HOAC     LPO11    LPD     -0.319000       0.00000          -1   0.00000       0.00000    
     13358 HOAC     120      HOAC     LPO12    LPD     -0.319000       0.00000          -1   0.00000       0.00000    
     13359 HOAC     120      HOAC     LPO21    LPD     -0.285000       0.00000          -1   0.00000       0.00000    
     13360 HOAC     120      HOAC     LPO22    LPD     -0.285000       0.00000          -1   0.00000       0.00000    
     13361 HOAC     121      HOAC     C1       CD2O3A    3.55420       11.6110           0  -1.20700      0.708000    
     13362 HOAC     121      HOAC     DC1      DRUD     -2.69620      0.400000           0   0.00000       0.00000    
     13363 HOAC     121      HOAC     C2       CD33C     3.26820       11.6110           0  -2.11400      0.750000    
     13364 HOAC     121      HOAC     DC2      DRUD     -3.56820      0.400000           0   0.00000       0.00000    
     13365 HOAC     121      HOAC     H1       HDA3A    0.920000E-01   1.00800           0   0.00000       0.00000    
     13366 HOAC     121      HOAC     H2       HDA3A    0.920000E-01   1.00800           0   0.00000       0.00000    
     13367 HOAC     121      HOAC     H3       HDA3A    0.920000E-01   1.00800           0   0.00000       0.00000    
     13368 HOAC     121      HOAC     O1       OD2C3A    2.35650       15.5994           0 -0.922000       1.53900    
     13369 HOAC     121      HOAC     DO1      DRUD     -2.35650      0.400000           0   0.00000       0.00000    
     13370 HOAC     121      HOAC     O2       OD31F     2.77650       15.5990           0  -1.28000       1.12400    
     13371 HOAC     121      HOAC     DO2      DRUD     -2.77650      0.400000           0   0.00000       0.00000    
     13372 HOAC     121      HOAC     H        HDP1A    0.374000       1.00800           0   0.00000       0.00000    
     13373 HOAC     121      HOAC     LPO11    LPD     -0.319000       0.00000          -1   0.00000       0.00000    
     13374 HOAC     121      HOAC     LPO12    LPD     -0.319000       0.00000          -1   0.00000       0.00000    
     13375 HOAC     121      HOAC     LPO21    LPD     -0.285000       0.00000          -1   0.00000       0.00000    
     13376 HOAC     121      HOAC     LPO22    LPD     -0.285000       0.00000          -1   0.00000       0.00000    
     13377 HOAC     122      HOAC     C1       CD2O3A    3.55420       11.6110           0  -1.20700      0.708000    
     13378 HOAC     122      HOAC     DC1      DRUD     -2.69620      0.400000           0   0.00000       0.00000    
     13379 HOAC     122      HOAC     C2       CD33C     3.26820       11.6110           0  -2.11400      0.750000    
     13380 HOAC     122      HOAC     DC2      DRUD     -3.56820      0.400000           0   0.00000       0.00000    
     13381 HOAC     122      HOAC     H1       HDA3A    0.920000E-01   1.00800           0   0.00000       0.00000    
     13382 HOAC     122      HOAC     H2       HDA3A    0.920000E-01   1.00800           0   0.00000       0.00000    
     13383 HOAC     122      HOAC     H3       HDA3A    0.920000E-01   1.00800           0   0.00000       0.00000    
     13384 HOAC     122      HOAC     O1       OD2C3A    2.35650       15.5994           0 -0.922000       1.53900    
     13385 HOAC     122      HOAC     DO1      DRUD     -2.35650      0.400000           0   0.00000       0.00000    
     13386 HOAC     122      HOAC     O2       OD31F     2.77650       15.5990           0  -1.28000       1.12400    
     13387 HOAC     122      HOAC     DO2      DRUD     -2.77650      0.400000           0   0.00000       0.00000    
     13388 HOAC     122      HOAC     H        HDP1A    0.374000       1.00800           0   0.00000       0.00000    
     13389 HOAC     122      HOAC     LPO11    LPD     -0.319000       0.00000          -1   0.00000       0.00000    
     13390 HOAC     122      HOAC     LPO12    LPD     -0.319000       0.00000          -1   0.00000       0.00000    
     13391 HOAC     122      HOAC     LPO21    LPD     -0.285000       0.00000          -1   0.00000       0.00000    
     13392 HOAC     122      HOAC     LPO22    LPD     -0.285000       0.00000          -1   0.00000       0.00000    
     13393 HOAC     123      HOAC     C1       CD2O3A    3.55420       11.6110           0  -1.20700      0.708000    
     13394 HOAC     123      HOAC     DC1      DRUD     -2.69620      0.400000           0   0.00000       0.00000    
     13395 HOAC     123      HOAC     C2       CD33C     3.26820       11.6110           0  -2.11400      0.750000    
     13396 HOAC     123      HOAC     DC2      DRUD     -3.56820      0.400000           0   0.00000       0.00000    
     13397 HOAC     123      HOAC     H1       HDA3A    0.920000E-01   1.00800           0   0.00000       0.00000    
     13398 HOAC     123      HOAC     H2       HDA3A    0.920000E-01   1.00800           0   0.00000       0.00000    
     13399 HOAC     123      HOAC     H3       HDA3A    0.920000E-01   1.00800           0   0.00000       0.00000    
     13400 HOAC     123      HOAC     O1       OD2C3A    2.35650       15.5994           0 -0.922000       1.53900    
     13401 HOAC     123      HOAC     DO1      DRUD     -2.35650      0.400000           0   0.00000       0.00000    
     13402 HOAC     123      HOAC     O2       OD31F     2.77650       15.5990           0  -1.28000       1.12400    
     13403 HOAC     123      HOAC     DO2      DRUD     -2.77650      0.400000           0   0.00000       0.00000    
     13404 HOAC     123      HOAC     H        HDP1A    0.374000       1.00800           0   0.00000       0.00000    
     13405 HOAC     123      HOAC     LPO11    LPD     -0.319000       0.00000          -1   0.00000       0.00000    
     13406 HOAC     123      HOAC     LPO12    LPD     -0.319000       0.00000          -1   0.00000       0.00000    
     13407 HOAC     123      HOAC     LPO21    LPD     -0.285000       0.00000          -1   0.00000       0.00000    
     13408 HOAC     123      HOAC     LPO22    LPD     -0.285000       0.00000          -1   0.00000       0.00000    
     13409 HOAC     124      HOAC     C1       CD2O3A    3.55420       11.6110           0  -1.20700      0.708000    
     13410 HOAC     124      HOAC     DC1      DRUD     -2.69620      0.400000           0   0.00000       0.00000    
     13411 HOAC     124      HOAC     C2       CD33C     3.26820       11.6110           0  -2.11400      0.750000    
     13412 HOAC     124      HOAC     DC2      DRUD     -3.56820      0.400000           0   0.00000       0.00000    
     13413 HOAC     124      HOAC     H1       HDA3A    0.920000E-01   1.00800           0   0.00000       0.00000    
     13414 HOAC     124      HOAC     H2       HDA3A    0.920000E-01   1.00800           0   0.00000       0.00000    
     13415 HOAC     124      HOAC     H3       HDA3A    0.920000E-01   1.00800           0   0.00000       0.00000    
     13416 HOAC     124      HOAC     O1       OD2C3A    2.35650       15.5994           0 -0.922000       1.53900    
     13417 HOAC     124      HOAC     DO1      DRUD     -2.35650      0.400000           0   0.00000       0.00000    
     13418 HOAC     124      HOAC     O2       OD31F     2.77650       15.5990           0  -1.28000       1.12400    
     13419 HOAC     124      HOAC     DO2      DRUD     -2.77650      0.400000           0   0.00000       0.00000    
     13420 HOAC     124      HOAC     H        HDP1A    0.374000       1.00800           0   0.00000       0.00000    
     13421 HOAC     124      HOAC     LPO11    LPD     -0.319000       0.00000          -1   0.00000       0.00000    
     13422 HOAC     124      HOAC     LPO12    LPD     -0.319000       0.00000          -1   0.00000       0.00000    
     13423 HOAC     124      HOAC     LPO21    LPD     -0.285000       0.00000          -1   0.00000       0.00000    
     13424 HOAC     124      HOAC     LPO22    LPD     -0.285000       0.00000          -1   0.00000       0.00000    
     13425 HOAC     125      HOAC     C1       CD2O3A    3.55420       11.6110           0  -1.20700      0.708000    
     13426 HOAC     125      HOAC     DC1      DRUD     -2.69620      0.400000           0   0.00000       0.00000    
     13427 HOAC     125      HOAC     C2       CD33C     3.26820       11.6110           0  -2.11400      0.750000    
     13428 HOAC     125      HOAC     DC2      DRUD     -3.56820      0.400000           0   0.00000       0.00000    
     13429 HOAC     125      HOAC     H1       HDA3A    0.920000E-01   1.00800           0   0.00000       0.00000    
     13430 HOAC     125      HOAC     H2       HDA3A    0.920000E-01   1.00800           0   0.00000       0.00000    
     13431 HOAC     125      HOAC     H3       HDA3A    0.920000E-01   1.00800           0   0.00000       0.00000    
     13432 HOAC     125      HOAC     O1       OD2C3A    2.35650       15.5994           0 -0.922000       1.53900    
     13433 HOAC     125      HOAC     DO1      DRUD     -2.35650      0.400000           0   0.00000       0.00000    
     13434 HOAC     125      HOAC     O2       OD31F     2.77650       15.5990           0  -1.28000       1.12400    
     13435 HOAC     125      HOAC     DO2      DRUD     -2.77650      0.400000           0   0.00000       0.00000    
     13436 HOAC     125      HOAC     H        HDP1A    0.374000       1.00800           0   0.00000       0.00000    
     13437 HOAC     125      HOAC     LPO11    LPD     -0.319000       0.00000          -1   0.00000       0.00000    
     13438 HOAC     125      HOAC     LPO12    LPD     -0.319000       0.00000          -1   0.00000       0.00000    
     13439 HOAC     125      HOAC     LPO21    LPD     -0.285000       0.00000          -1   0.00000       0.00000    
     13440 HOAC     125      HOAC     LPO22    LPD     -0.285000       0.00000          -1   0.00000       0.00000    
     13441 HOAC     126      HOAC     C1       CD2O3A    3.55420       11.6110           0  -1.20700      0.708000    
     13442 HOAC     126      HOAC     DC1      DRUD     -2.69620      0.400000           0   0.00000       0.00000    
     13443 HOAC     126      HOAC     C2       CD33C     3.26820       11.6110           0  -2.11400      0.750000    
     13444 HOAC     126      HOAC     DC2      DRUD     -3.56820      0.400000           0   0.00000       0.00000    
     13445 HOAC     126      HOAC     H1       HDA3A    0.920000E-01   1.00800           0   0.00000       0.00000    
     13446 HOAC     126      HOAC     H2       HDA3A    0.920000E-01   1.00800           0   0.00000       0.00000    
     13447 HOAC     126      HOAC     H3       HDA3A    0.920000E-01   1.00800           0   0.00000       0.00000    
     13448 HOAC     126      HOAC     O1       OD2C3A    2.35650       15.5994           0 -0.922000       1.53900    
     13449 HOAC     126      HOAC     DO1      DRUD     -2.35650      0.400000           0   0.00000       0.00000    
     13450 HOAC     126      HOAC     O2       OD31F     2.77650       15.5990           0  -1.28000       1.12400    
     13451 HOAC     126      HOAC     DO2      DRUD     -2.77650      0.400000           0   0.00000       0.00000    
     13452 HOAC     126      HOAC     H        HDP1A    0.374000       1.00800           0   0.00000       0.00000    
     13453 HOAC     126      HOAC     LPO11    LPD     -0.319000       0.00000          -1   0.00000       0.00000    
     13454 HOAC     126      HOAC     LPO12    LPD     -0.319000       0.00000          -1   0.00000       0.00000    
     13455 HOAC     126      HOAC     LPO21    LPD     -0.285000       0.00000          -1   0.00000       0.00000    
     13456 HOAC     126      HOAC     LPO22    LPD     -0.285000       0.00000          -1   0.00000       0.00000    
     13457 HOAC     127      HOAC     C1       CD2O3A    3.55420       11.6110           0  -1.20700      0.708000    
     13458 HOAC     127      HOAC     DC1      DRUD     -2.69620      0.400000           0   0.00000       0.00000    
     13459 HOAC     127      HOAC     C2       CD33C     3.26820       11.6110           0  -2.11400      0.750000    
     13460 HOAC     127      HOAC     DC2      DRUD     -3.56820      0.400000           0   0.00000       0.00000    
     13461 HOAC     127      HOAC     H1       HDA3A    0.920000E-01   1.00800           0   0.00000       0.00000    
     13462 HOAC     127      HOAC     H2       HDA3A    0.920000E-01   1.00800           0   0.00000       0.00000    
     13463 HOAC     127      HOAC     H3       HDA3A    0.920000E-01   1.00800           0   0.00000       0.00000    
     13464 HOAC     127      HOAC     O1       OD2C3A    2.35650       15.5994           0 -0.922000       1.53900    
     13465 HOAC     127      HOAC     DO1      DRUD     -2.35650      0.400000           0   0.00000       0.00000    
     13466 HOAC     127      HOAC     O2       OD31F     2.77650       15.5990           0  -1.28000       1.12400    
     13467 HOAC     127      HOAC     DO2      DRUD     -2.77650      0.400000           0   0.00000       0.00000    
     13468 HOAC     127      HOAC     H        HDP1A    0.374000       1.00800           0   0.00000       0.00000    
     13469 HOAC     127      HOAC     LPO11    LPD     -0.319000       0.00000          -1   0.00000       0.00000    
     13470 HOAC     127      HOAC     LPO12    LPD     -0.319000       0.00000          -1   0.00000       0.00000    
     13471 HOAC     127      HOAC     LPO21    LPD     -0.285000       0.00000          -1   0.00000       0.00000    
     13472 HOAC     127      HOAC     LPO22    LPD     -0.285000       0.00000          -1   0.00000       0.00000    
     13473 HOAC     128      HOAC     C1       CD2O3A    3.55420       11.6110           0  -1.20700      0.708000    
     13474 HOAC     128      HOAC     DC1      DRUD     -2.69620      0.400000           0   0.00000       0.00000    
     13475 HOAC     128      HOAC     C2       CD33C     3.26820       11.6110           0  -2.11400      0.750000    
     13476 HOAC     128      HOAC     DC2      DRUD     -3.56820      0.400000           0   0.00000       0.00000    
     13477 HOAC     128      HOAC     H1       HDA3A    0.920000E-01   1.00800           0   0.00000       0.00000    
     13478 HOAC     128      HOAC     H2       HDA3A    0.920000E-01   1.00800           0   0.00000       0.00000    
     13479 HOAC     128      HOAC     H3       HDA3A    0.920000E-01   1.00800           0   0.00000       0.00000    
     13480 HOAC     128      HOAC     O1       OD2C3A    2.35650       15.5994           0 -0.922000       1.53900    
     13481 HOAC     128      HOAC     DO1      DRUD     -2.35650      0.400000           0   0.00000       0.00000    
     13482 HOAC     128      HOAC     O2       OD31F     2.77650       15.5990           0  -1.28000       1.12400    
     13483 HOAC     128      HOAC     DO2      DRUD     -2.77650      0.400000           0   0.00000       0.00000    
     13484 HOAC     128      HOAC     H        HDP1A    0.374000       1.00800           0   0.00000       0.00000    
     13485 HOAC     128      HOAC     LPO11    LPD     -0.319000       0.00000          -1   0.00000       0.00000    
     13486 HOAC     128      HOAC     LPO12    LPD     -0.319000       0.00000          -1   0.00000       0.00000    
     13487 HOAC     128      HOAC     LPO21    LPD     -0.285000       0.00000          -1   0.00000       0.00000    
     13488 HOAC     128      HOAC     LPO22    LPD     -0.285000       0.00000          -1   0.00000       0.00000    
     13489 HOAC     129      HOAC     C1       CD2O3A    3.55420       11.6110           0  -1.20700      0.708000    
     13490 HOAC     129      HOAC     DC1      DRUD     -2.69620      0.400000           0   0.00000       0.00000    
     13491 HOAC     129      HOAC     C2       CD33C     3.26820       11.6110           0  -2.11400      0.750000    
     13492 HOAC     129      HOAC     DC2      DRUD     -3.56820      0.400000           0   0.00000       0.00000    
     13493 HOAC     129      HOAC     H1       HDA3A    0.920000E-01   1.00800           0   0.00000       0.00000    
     13494 HOAC     129      HOAC     H2       HDA3A    0.920000E-01   1.00800           0   0.00000       0.00000    
     13495 HOAC     129      HOAC     H3       HDA3A    0.920000E-01   1.00800           0   0.00000       0.00000    
     13496 HOAC     129      HOAC     O1       OD2C3A    2.35650       15.5994           0 -0.922000       1.53900    
     13497 HOAC     129      HOAC     DO1      DRUD     -2.35650      0.400000           0   0.00000       0.00000    
     13498 HOAC     129      HOAC     O2       OD31F     2.77650       15.5990           0  -1.28000       1.12400    
     13499 HOAC     129      HOAC     DO2      DRUD     -2.77650      0.400000           0   0.00000       0.00000    
     13500 HOAC     129      HOAC     H        HDP1A    0.374000       1.00800           0   0.00000       0.00000    
     13501 HOAC     129      HOAC     LPO11    LPD     -0.319000       0.00000          -1   0.00000       0.00000    
     13502 HOAC     129      HOAC     LPO12    LPD     -0.319000       0.00000          -1   0.00000       0.00000    
     13503 HOAC     129      HOAC     LPO21    LPD     -0.285000       0.00000          -1   0.00000       0.00000    
     13504 HOAC     129      HOAC     LPO22    LPD     -0.285000       0.00000          -1   0.00000       0.00000    
     13505 HOAC     130      HOAC     C1       CD2O3A    3.55420       11.6110           0  -1.20700      0.708000    
     13506 HOAC     130      HOAC     DC1      DRUD     -2.69620      0.400000           0   0.00000       0.00000    
     13507 HOAC     130      HOAC     C2       CD33C     3.26820       11.6110           0  -2.11400      0.750000    
     13508 HOAC     130      HOAC     DC2      DRUD     -3.56820      0.400000           0   0.00000       0.00000    
     13509 HOAC     130      HOAC     H1       HDA3A    0.920000E-01   1.00800           0   0.00000       0.00000    
     13510 HOAC     130      HOAC     H2       HDA3A    0.920000E-01   1.00800           0   0.00000       0.00000    
     13511 HOAC     130      HOAC     H3       HDA3A    0.920000E-01   1.00800           0   0.00000       0.00000    
     13512 HOAC     130      HOAC     O1       OD2C3A    2.35650       15.5994           0 -0.922000       1.53900    
     13513 HOAC     130      HOAC     DO1      DRUD     -2.35650      0.400000           0   0.00000       0.00000    
     13514 HOAC     130      HOAC     O2       OD31F     2.77650       15.5990           0  -1.28000       1.12400    
     13515 HOAC     130      HOAC     DO2      DRUD     -2.77650      0.400000           0   0.00000       0.00000    
     13516 HOAC     130      HOAC     H        HDP1A    0.374000       1.00800           0   0.00000       0.00000    
     13517 HOAC     130      HOAC     LPO11    LPD     -0.319000       0.00000          -1   0.00000       0.00000    
     13518 HOAC     130      HOAC     LPO12    LPD     -0.319000       0.00000          -1   0.00000       0.00000    
     13519 HOAC     130      HOAC     LPO21    LPD     -0.285000       0.00000          -1   0.00000       0.00000    
     13520 HOAC     130      HOAC     LPO22    LPD     -0.285000       0.00000          -1   0.00000       0.00000    
     13521 HOAC     131      HOAC     C1       CD2O3A    3.55420       11.6110           0  -1.20700      0.708000    
     13522 HOAC     131      HOAC     DC1      DRUD     -2.69620      0.400000           0   0.00000       0.00000    
     13523 HOAC     131      HOAC     C2       CD33C     3.26820       11.6110           0  -2.11400      0.750000    
     13524 HOAC     131      HOAC     DC2      DRUD     -3.56820      0.400000           0   0.00000       0.00000    
     13525 HOAC     131      HOAC     H1       HDA3A    0.920000E-01   1.00800           0   0.00000       0.00000    
     13526 HOAC     131      HOAC     H2       HDA3A    0.920000E-01   1.00800           0   0.00000       0.00000    
     13527 HOAC     131      HOAC     H3       HDA3A    0.920000E-01   1.00800           0   0.00000       0.00000    
     13528 HOAC     131      HOAC     O1       OD2C3A    2.35650       15.5994           0 -0.922000       1.53900    
     13529 HOAC     131      HOAC     DO1      DRUD     -2.35650      0.400000           0   0.00000       0.00000    
     13530 HOAC     131      HOAC     O2       OD31F     2.77650       15.5990           0  -1.28000       1.12400    
     13531 HOAC     131      HOAC     DO2      DRUD     -2.77650      0.400000           0   0.00000       0.00000    
     13532 HOAC     131      HOAC     H        HDP1A    0.374000       1.00800           0   0.00000       0.00000    
     13533 HOAC     131      HOAC     LPO11    LPD     -0.319000       0.00000          -1   0.00000       0.00000    
     13534 HOAC     131      HOAC     LPO12    LPD     -0.319000       0.00000          -1   0.00000       0.00000    
     13535 HOAC     131      HOAC     LPO21    LPD     -0.285000       0.00000          -1   0.00000       0.00000    
     13536 HOAC     131      HOAC     LPO22    LPD     -0.285000       0.00000          -1   0.00000       0.00000    
     13537 HOAC     132      HOAC     C1       CD2O3A    3.55420       11.6110           0  -1.20700      0.708000    
     13538 HOAC     132      HOAC     DC1      DRUD     -2.69620      0.400000           0   0.00000       0.00000    
     13539 HOAC     132      HOAC     C2       CD33C     3.26820       11.6110           0  -2.11400      0.750000    
     13540 HOAC     132      HOAC     DC2      DRUD     -3.56820      0.400000           0   0.00000       0.00000    
     13541 HOAC     132      HOAC     H1       HDA3A    0.920000E-01   1.00800           0   0.00000       0.00000    
     13542 HOAC     132      HOAC     H2       HDA3A    0.920000E-01   1.00800           0   0.00000       0.00000    
     13543 HOAC     132      HOAC     H3       HDA3A    0.920000E-01   1.00800           0   0.00000       0.00000    
     13544 HOAC     132      HOAC     O1       OD2C3A    2.35650       15.5994           0 -0.922000       1.53900    
     13545 HOAC     132      HOAC     DO1      DRUD     -2.35650      0.400000           0   0.00000       0.00000    
     13546 HOAC     132      HOAC     O2       OD31F     2.77650       15.5990           0  -1.28000       1.12400    
     13547 HOAC     132      HOAC     DO2      DRUD     -2.77650      0.400000           0   0.00000       0.00000    
     13548 HOAC     132      HOAC     H        HDP1A    0.374000       1.00800           0   0.00000       0.00000    
     13549 HOAC     132      HOAC     LPO11    LPD     -0.319000       0.00000          -1   0.00000       0.00000    
     13550 HOAC     132      HOAC     LPO12    LPD     -0.319000       0.00000          -1   0.00000       0.00000    
     13551 HOAC     132      HOAC     LPO21    LPD     -0.285000       0.00000          -1   0.00000       0.00000    
     13552 HOAC     132      HOAC     LPO22    LPD     -0.285000       0.00000          -1   0.00000       0.00000    
     13553 HOAC     133      HOAC     C1       CD2O3A    3.55420       11.6110           0  -1.20700      0.708000    
     13554 HOAC     133      HOAC     DC1      DRUD     -2.69620      0.400000           0   0.00000       0.00000    
     13555 HOAC     133      HOAC     C2       CD33C     3.26820       11.6110           0  -2.11400      0.750000    
     13556 HOAC     133      HOAC     DC2      DRUD     -3.56820      0.400000           0   0.00000       0.00000    
     13557 HOAC     133      HOAC     H1       HDA3A    0.920000E-01   1.00800           0   0.00000       0.00000    
     13558 HOAC     133      HOAC     H2       HDA3A    0.920000E-01   1.00800           0   0.00000       0.00000    
     13559 HOAC     133      HOAC     H3       HDA3A    0.920000E-01   1.00800           0   0.00000       0.00000    
     13560 HOAC     133      HOAC     O1       OD2C3A    2.35650       15.5994           0 -0.922000       1.53900    
     13561 HOAC     133      HOAC     DO1      DRUD     -2.35650      0.400000           0   0.00000       0.00000    
     13562 HOAC     133      HOAC     O2       OD31F     2.77650       15.5990           0  -1.28000       1.12400    
     13563 HOAC     133      HOAC     DO2      DRUD     -2.77650      0.400000           0   0.00000       0.00000    
     13564 HOAC     133      HOAC     H        HDP1A    0.374000       1.00800           0   0.00000       0.00000    
     13565 HOAC     133      HOAC     LPO11    LPD     -0.319000       0.00000          -1   0.00000       0.00000    
     13566 HOAC     133      HOAC     LPO12    LPD     -0.319000       0.00000          -1   0.00000       0.00000    
     13567 HOAC     133      HOAC     LPO21    LPD     -0.285000       0.00000          -1   0.00000       0.00000    
     13568 HOAC     133      HOAC     LPO22    LPD     -0.285000       0.00000          -1   0.00000       0.00000    
     13569 HOAC     134      HOAC     C1       CD2O3A    3.55420       11.6110           0  -1.20700      0.708000    
     13570 HOAC     134      HOAC     DC1      DRUD     -2.69620      0.400000           0   0.00000       0.00000    
     13571 HOAC     134      HOAC     C2       CD33C     3.26820       11.6110           0  -2.11400      0.750000    
     13572 HOAC     134      HOAC     DC2      DRUD     -3.56820      0.400000           0   0.00000       0.00000    
     13573 HOAC     134      HOAC     H1       HDA3A    0.920000E-01   1.00800           0   0.00000       0.00000    
     13574 HOAC     134      HOAC     H2       HDA3A    0.920000E-01   1.00800           0   0.00000       0.00000    
     13575 HOAC     134      HOAC     H3       HDA3A    0.920000E-01   1.00800           0   0.00000       0.00000    
     13576 HOAC     134      HOAC     O1       OD2C3A    2.35650       15.5994           0 -0.922000       1.53900    
     13577 HOAC     134      HOAC     DO1      DRUD     -2.35650      0.400000           0   0.00000       0.00000    
     13578 HOAC     134      HOAC     O2       OD31F     2.77650       15.5990           0  -1.28000       1.12400    
     13579 HOAC     134      HOAC     DO2      DRUD     -2.77650      0.400000           0   0.00000       0.00000    
     13580 HOAC     134      HOAC     H        HDP1A    0.374000       1.00800           0   0.00000       0.00000    
     13581 HOAC     134      HOAC     LPO11    LPD     -0.319000       0.00000          -1   0.00000       0.00000    
     13582 HOAC     134      HOAC     LPO12    LPD     -0.319000       0.00000          -1   0.00000       0.00000    
     13583 HOAC     134      HOAC     LPO21    LPD     -0.285000       0.00000          -1   0.00000       0.00000    
     13584 HOAC     134      HOAC     LPO22    LPD     -0.285000       0.00000          -1   0.00000       0.00000    
     13585 HOAC     135      HOAC     C1       CD2O3A    3.55420       11.6110           0  -1.20700      0.708000    
     13586 HOAC     135      HOAC     DC1      DRUD     -2.69620      0.400000           0   0.00000       0.00000    
     13587 HOAC     135      HOAC     C2       CD33C     3.26820       11.6110           0  -2.11400      0.750000    
     13588 HOAC     135      HOAC     DC2      DRUD     -3.56820      0.400000           0   0.00000       0.00000    
     13589 HOAC     135      HOAC     H1       HDA3A    0.920000E-01   1.00800           0   0.00000       0.00000    
     13590 HOAC     135      HOAC     H2       HDA3A    0.920000E-01   1.00800           0   0.00000       0.00000    
     13591 HOAC     135      HOAC     H3       HDA3A    0.920000E-01   1.00800           0   0.00000       0.00000    
     13592 HOAC     135      HOAC     O1       OD2C3A    2.35650       15.5994           0 -0.922000       1.53900    
     13593 HOAC     135      HOAC     DO1      DRUD     -2.35650      0.400000           0   0.00000       0.00000    
     13594 HOAC     135      HOAC     O2       OD31F     2.77650       15.5990           0  -1.28000       1.12400    
     13595 HOAC     135      HOAC     DO2      DRUD     -2.77650      0.400000           0   0.00000       0.00000    
     13596 HOAC     135      HOAC     H        HDP1A    0.374000       1.00800           0   0.00000       0.00000    
     13597 HOAC     135      HOAC     LPO11    LPD     -0.319000       0.00000          -1   0.00000       0.00000    
     13598 HOAC     135      HOAC     LPO12    LPD     -0.319000       0.00000          -1   0.00000       0.00000    
     13599 HOAC     135      HOAC     LPO21    LPD     -0.285000       0.00000          -1   0.00000       0.00000    
     13600 HOAC     135      HOAC     LPO22    LPD     -0.285000       0.00000          -1   0.00000       0.00000    
     13601 HOAC     136      HOAC     C1       CD2O3A    3.55420       11.6110           0  -1.20700      0.708000    
     13602 HOAC     136      HOAC     DC1      DRUD     -2.69620      0.400000           0   0.00000       0.00000    
     13603 HOAC     136      HOAC     C2       CD33C     3.26820       11.6110           0  -2.11400      0.750000    
     13604 HOAC     136      HOAC     DC2      DRUD     -3.56820      0.400000           0   0.00000       0.00000    
     13605 HOAC     136      HOAC     H1       HDA3A    0.920000E-01   1.00800           0   0.00000       0.00000    
     13606 HOAC     136      HOAC     H2       HDA3A    0.920000E-01   1.00800           0   0.00000       0.00000    
     13607 HOAC     136      HOAC     H3       HDA3A    0.920000E-01   1.00800           0   0.00000       0.00000    
     13608 HOAC     136      HOAC     O1       OD2C3A    2.35650       15.5994           0 -0.922000       1.53900    
     13609 HOAC     136      HOAC     DO1      DRUD     -2.35650      0.400000           0   0.00000       0.00000    
     13610 HOAC     136      HOAC     O2       OD31F     2.77650       15.5990           0  -1.28000       1.12400    
     13611 HOAC     136      HOAC     DO2      DRUD     -2.77650      0.400000           0   0.00000       0.00000    
     13612 HOAC     136      HOAC     H        HDP1A    0.374000       1.00800           0   0.00000       0.00000    
     13613 HOAC     136      HOAC     LPO11    LPD     -0.319000       0.00000          -1   0.00000       0.00000    
     13614 HOAC     136      HOAC     LPO12    LPD     -0.319000       0.00000          -1   0.00000       0.00000    
     13615 HOAC     136      HOAC     LPO21    LPD     -0.285000       0.00000          -1   0.00000       0.00000    
     13616 HOAC     136      HOAC     LPO22    LPD     -0.285000       0.00000          -1   0.00000       0.00000    
     13617 HOAC     137      HOAC     C1       CD2O3A    3.55420       11.6110           0  -1.20700      0.708000    
     13618 HOAC     137      HOAC     DC1      DRUD     -2.69620      0.400000           0   0.00000       0.00000    
     13619 HOAC     137      HOAC     C2       CD33C     3.26820       11.6110           0  -2.11400      0.750000    
     13620 HOAC     137      HOAC     DC2      DRUD     -3.56820      0.400000           0   0.00000       0.00000    
     13621 HOAC     137      HOAC     H1       HDA3A    0.920000E-01   1.00800           0   0.00000       0.00000    
     13622 HOAC     137      HOAC     H2       HDA3A    0.920000E-01   1.00800           0   0.00000       0.00000    
     13623 HOAC     137      HOAC     H3       HDA3A    0.920000E-01   1.00800           0   0.00000       0.00000    
     13624 HOAC     137      HOAC     O1       OD2C3A    2.35650       15.5994           0 -0.922000       1.53900    
     13625 HOAC     137      HOAC     DO1      DRUD     -2.35650      0.400000           0   0.00000       0.00000    
     13626 HOAC     137      HOAC     O2       OD31F     2.77650       15.5990           0  -1.28000       1.12400    
     13627 HOAC     137      HOAC     DO2      DRUD     -2.77650      0.400000           0   0.00000       0.00000    
     13628 HOAC     137      HOAC     H        HDP1A    0.374000       1.00800           0   0.00000       0.00000    
     13629 HOAC     137      HOAC     LPO11    LPD     -0.319000       0.00000          -1   0.00000       0.00000    
     13630 HOAC     137      HOAC     LPO12    LPD     -0.319000       0.00000          -1   0.00000       0.00000    
     13631 HOAC     137      HOAC     LPO21    LPD     -0.285000       0.00000          -1   0.00000       0.00000    
     13632 HOAC     137      HOAC     LPO22    LPD     -0.285000       0.00000          -1   0.00000       0.00000    
     13633 HOAC     138      HOAC     C1       CD2O3A    3.55420       11.6110           0  -1.20700      0.708000    
     13634 HOAC     138      HOAC     DC1      DRUD     -2.69620      0.400000           0   0.00000       0.00000    
     13635 HOAC     138      HOAC     C2       CD33C     3.26820       11.6110           0  -2.11400      0.750000    
     13636 HOAC     138      HOAC     DC2      DRUD     -3.56820      0.400000           0   0.00000       0.00000    
     13637 HOAC     138      HOAC     H1       HDA3A    0.920000E-01   1.00800           0   0.00000       0.00000    
     13638 HOAC     138      HOAC     H2       HDA3A    0.920000E-01   1.00800           0   0.00000       0.00000    
     13639 HOAC     138      HOAC     H3       HDA3A    0.920000E-01   1.00800           0   0.00000       0.00000    
     13640 HOAC     138      HOAC     O1       OD2C3A    2.35650       15.5994           0 -0.922000       1.53900    
     13641 HOAC     138      HOAC     DO1      DRUD     -2.35650      0.400000           0   0.00000       0.00000    
     13642 HOAC     138      HOAC     O2       OD31F     2.77650       15.5990           0  -1.28000       1.12400    
     13643 HOAC     138      HOAC     DO2      DRUD     -2.77650      0.400000           0   0.00000       0.00000    
     13644 HOAC     138      HOAC     H        HDP1A    0.374000       1.00800           0   0.00000       0.00000    
     13645 HOAC     138      HOAC     LPO11    LPD     -0.319000       0.00000          -1   0.00000       0.00000    
     13646 HOAC     138      HOAC     LPO12    LPD     -0.319000       0.00000          -1   0.00000       0.00000    
     13647 HOAC     138      HOAC     LPO21    LPD     -0.285000       0.00000          -1   0.00000       0.00000    
     13648 HOAC     138      HOAC     LPO22    LPD     -0.285000       0.00000          -1   0.00000       0.00000    
     13649 HOAC     139      HOAC     C1       CD2O3A    3.55420       11.6110           0  -1.20700      0.708000    
     13650 HOAC     139      HOAC     DC1      DRUD     -2.69620      0.400000           0   0.00000       0.00000    
     13651 HOAC     139      HOAC     C2       CD33C     3.26820       11.6110           0  -2.11400      0.750000    
     13652 HOAC     139      HOAC     DC2      DRUD     -3.56820      0.400000           0   0.00000       0.00000    
     13653 HOAC     139      HOAC     H1       HDA3A    0.920000E-01   1.00800           0   0.00000       0.00000    
     13654 HOAC     139      HOAC     H2       HDA3A    0.920000E-01   1.00800           0   0.00000       0.00000    
     13655 HOAC     139      HOAC     H3       HDA3A    0.920000E-01   1.00800           0   0.00000       0.00000    
     13656 HOAC     139      HOAC     O1       OD2C3A    2.35650       15.5994           0 -0.922000       1.53900    
     13657 HOAC     139      HOAC     DO1      DRUD     -2.35650      0.400000           0   0.00000       0.00000    
     13658 HOAC     139      HOAC     O2       OD31F     2.77650       15.5990           0  -1.28000       1.12400    
     13659 HOAC     139      HOAC     DO2      DRUD     -2.77650      0.400000           0   0.00000       0.00000    
     13660 HOAC     139      HOAC     H        HDP1A    0.374000       1.00800           0   0.00000       0.00000    
     13661 HOAC     139      HOAC     LPO11    LPD     -0.319000       0.00000          -1   0.00000       0.00000    
     13662 HOAC     139      HOAC     LPO12    LPD     -0.319000       0.00000          -1   0.00000       0.00000    
     13663 HOAC     139      HOAC     LPO21    LPD     -0.285000       0.00000          -1   0.00000       0.00000    
     13664 HOAC     139      HOAC     LPO22    LPD     -0.285000       0.00000          -1   0.00000       0.00000    
     13665 HOAC     140      HOAC     C1       CD2O3A    3.55420       11.6110           0  -1.20700      0.708000    
     13666 HOAC     140      HOAC     DC1      DRUD     -2.69620      0.400000           0   0.00000       0.00000    
     13667 HOAC     140      HOAC     C2       CD33C     3.26820       11.6110           0  -2.11400      0.750000    
     13668 HOAC     140      HOAC     DC2      DRUD     -3.56820      0.400000           0   0.00000       0.00000    
     13669 HOAC     140      HOAC     H1       HDA3A    0.920000E-01   1.00800           0   0.00000       0.00000    
     13670 HOAC     140      HOAC     H2       HDA3A    0.920000E-01   1.00800           0   0.00000       0.00000    
     13671 HOAC     140      HOAC     H3       HDA3A    0.920000E-01   1.00800           0   0.00000       0.00000    
     13672 HOAC     140      HOAC     O1       OD2C3A    2.35650       15.5994           0 -0.922000       1.53900    
     13673 HOAC     140      HOAC     DO1      DRUD     -2.35650      0.400000           0   0.00000       0.00000    
     13674 HOAC     140      HOAC     O2       OD31F     2.77650       15.5990           0  -1.28000       1.12400    
     13675 HOAC     140      HOAC     DO2      DRUD     -2.77650      0.400000           0   0.00000       0.00000    
     13676 HOAC     140      HOAC     H        HDP1A    0.374000       1.00800           0   0.00000       0.00000    
     13677 HOAC     140      HOAC     LPO11    LPD     -0.319000       0.00000          -1   0.00000       0.00000    
     13678 HOAC     140      HOAC     LPO12    LPD     -0.319000       0.00000          -1   0.00000       0.00000    
     13679 HOAC     140      HOAC     LPO21    LPD     -0.285000       0.00000          -1   0.00000       0.00000    
     13680 HOAC     140      HOAC     LPO22    LPD     -0.285000       0.00000          -1   0.00000       0.00000    
     13681 HOAC     141      HOAC     C1       CD2O3A    3.55420       11.6110           0  -1.20700      0.708000    
     13682 HOAC     141      HOAC     DC1      DRUD     -2.69620      0.400000           0   0.00000       0.00000    
     13683 HOAC     141      HOAC     C2       CD33C     3.26820       11.6110           0  -2.11400      0.750000    
     13684 HOAC     141      HOAC     DC2      DRUD     -3.56820      0.400000           0   0.00000       0.00000    
     13685 HOAC     141      HOAC     H1       HDA3A    0.920000E-01   1.00800           0   0.00000       0.00000    
     13686 HOAC     141      HOAC     H2       HDA3A    0.920000E-01   1.00800           0   0.00000       0.00000    
     13687 HOAC     141      HOAC     H3       HDA3A    0.920000E-01   1.00800           0   0.00000       0.00000    
     13688 HOAC     141      HOAC     O1       OD2C3A    2.35650       15.5994           0 -0.922000       1.53900    
     13689 HOAC     141      HOAC     DO1      DRUD     -2.35650      0.400000           0   0.00000       0.00000    
     13690 HOAC     141      HOAC     O2       OD31F     2.77650       15.5990           0  -1.28000       1.12400    
     13691 HOAC     141      HOAC     DO2      DRUD     -2.77650      0.400000           0   0.00000       0.00000    
     13692 HOAC     141      HOAC     H        HDP1A    0.374000       1.00800           0   0.00000       0.00000    
     13693 HOAC     141      HOAC     LPO11    LPD     -0.319000       0.00000          -1   0.00000       0.00000    
     13694 HOAC     141      HOAC     LPO12    LPD     -0.319000       0.00000          -1   0.00000       0.00000    
     13695 HOAC     141      HOAC     LPO21    LPD     -0.285000       0.00000          -1   0.00000       0.00000    
     13696 HOAC     141      HOAC     LPO22    LPD     -0.285000       0.00000          -1   0.00000       0.00000    
     13697 HOAC     142      HOAC     C1       CD2O3A    3.55420       11.6110           0  -1.20700      0.708000    
     13698 HOAC     142      HOAC     DC1      DRUD     -2.69620      0.400000           0   0.00000       0.00000    
     13699 HOAC     142      HOAC     C2       CD33C     3.26820       11.6110           0  -2.11400      0.750000    
     13700 HOAC     142      HOAC     DC2      DRUD     -3.56820      0.400000           0   0.00000       0.00000    
     13701 HOAC     142      HOAC     H1       HDA3A    0.920000E-01   1.00800           0   0.00000       0.00000    
     13702 HOAC     142      HOAC     H2       HDA3A    0.920000E-01   1.00800           0   0.00000       0.00000    
     13703 HOAC     142      HOAC     H3       HDA3A    0.920000E-01   1.00800           0   0.00000       0.00000    
     13704 HOAC     142      HOAC     O1       OD2C3A    2.35650       15.5994           0 -0.922000       1.53900    
     13705 HOAC     142      HOAC     DO1      DRUD     -2.35650      0.400000           0   0.00000       0.00000    
     13706 HOAC     142      HOAC     O2       OD31F     2.77650       15.5990           0  -1.28000       1.12400    
     13707 HOAC     142      HOAC     DO2      DRUD     -2.77650      0.400000           0   0.00000       0.00000    
     13708 HOAC     142      HOAC     H        HDP1A    0.374000       1.00800           0   0.00000       0.00000    
     13709 HOAC     142      HOAC     LPO11    LPD     -0.319000       0.00000          -1   0.00000       0.00000    
     13710 HOAC     142      HOAC     LPO12    LPD     -0.319000       0.00000          -1   0.00000       0.00000    
     13711 HOAC     142      HOAC     LPO21    LPD     -0.285000       0.00000          -1   0.00000       0.00000    
     13712 HOAC     142      HOAC     LPO22    LPD     -0.285000       0.00000          -1   0.00000       0.00000    
     13713 HOAC     143      HOAC     C1       CD2O3A    3.55420       11.6110           0  -1.20700      0.708000    
     13714 HOAC     143      HOAC     DC1      DRUD     -2.69620      0.400000           0   0.00000       0.00000    
     13715 HOAC     143      HOAC     C2       CD33C     3.26820       11.6110           0  -2.11400      0.750000    
     13716 HOAC     143      HOAC     DC2      DRUD     -3.56820      0.400000           0   0.00000       0.00000    
     13717 HOAC     143      HOAC     H1       HDA3A    0.920000E-01   1.00800           0   0.00000       0.00000    
     13718 HOAC     143      HOAC     H2       HDA3A    0.920000E-01   1.00800           0   0.00000       0.00000    
     13719 HOAC     143      HOAC     H3       HDA3A    0.920000E-01   1.00800           0   0.00000       0.00000    
     13720 HOAC     143      HOAC     O1       OD2C3A    2.35650       15.5994           0 -0.922000       1.53900    
     13721 HOAC     143      HOAC     DO1      DRUD     -2.35650      0.400000           0   0.00000       0.00000    
     13722 HOAC     143      HOAC     O2       OD31F     2.77650       15.5990           0  -1.28000       1.12400    
     13723 HOAC     143      HOAC     DO2      DRUD     -2.77650      0.400000           0   0.00000       0.00000    
     13724 HOAC     143      HOAC     H        HDP1A    0.374000       1.00800           0   0.00000       0.00000    
     13725 HOAC     143      HOAC     LPO11    LPD     -0.319000       0.00000          -1   0.00000       0.00000    
     13726 HOAC     143      HOAC     LPO12    LPD     -0.319000       0.00000          -1   0.00000       0.00000    
     13727 HOAC     143      HOAC     LPO21    LPD     -0.285000       0.00000          -1   0.00000       0.00000    
     13728 HOAC     143      HOAC     LPO22    LPD     -0.285000       0.00000          -1   0.00000       0.00000    
     13729 HOAC     144      HOAC     C1       CD2O3A    3.55420       11.6110           0  -1.20700      0.708000    
     13730 HOAC     144      HOAC     DC1      DRUD     -2.69620      0.400000           0   0.00000       0.00000    
     13731 HOAC     144      HOAC     C2       CD33C     3.26820       11.6110           0  -2.11400      0.750000    
     13732 HOAC     144      HOAC     DC2      DRUD     -3.56820      0.400000           0   0.00000       0.00000    
     13733 HOAC     144      HOAC     H1       HDA3A    0.920000E-01   1.00800           0   0.00000       0.00000    
     13734 HOAC     144      HOAC     H2       HDA3A    0.920000E-01   1.00800           0   0.00000       0.00000    
     13735 HOAC     144      HOAC     H3       HDA3A    0.920000E-01   1.00800           0   0.00000       0.00000    
     13736 HOAC     144      HOAC     O1       OD2C3A    2.35650       15.5994           0 -0.922000       1.53900    
     13737 HOAC     144      HOAC     DO1      DRUD     -2.35650      0.400000           0   0.00000       0.00000    
     13738 HOAC     144      HOAC     O2       OD31F     2.77650       15.5990           0  -1.28000       1.12400    
     13739 HOAC     144      HOAC     DO2      DRUD     -2.77650      0.400000           0   0.00000       0.00000    
     13740 HOAC     144      HOAC     H        HDP1A    0.374000       1.00800           0   0.00000       0.00000    
     13741 HOAC     144      HOAC     LPO11    LPD     -0.319000       0.00000          -1   0.00000       0.00000    
     13742 HOAC     144      HOAC     LPO12    LPD     -0.319000       0.00000          -1   0.00000       0.00000    
     13743 HOAC     144      HOAC     LPO21    LPD     -0.285000       0.00000          -1   0.00000       0.00000    
     13744 HOAC     144      HOAC     LPO22    LPD     -0.285000       0.00000          -1   0.00000       0.00000    
     13745 HOAC     145      HOAC     C1       CD2O3A    3.55420       11.6110           0  -1.20700      0.708000    
     13746 HOAC     145      HOAC     DC1      DRUD     -2.69620      0.400000           0   0.00000       0.00000    
     13747 HOAC     145      HOAC     C2       CD33C     3.26820       11.6110           0  -2.11400      0.750000    
     13748 HOAC     145      HOAC     DC2      DRUD     -3.56820      0.400000           0   0.00000       0.00000    
     13749 HOAC     145      HOAC     H1       HDA3A    0.920000E-01   1.00800           0   0.00000       0.00000    
     13750 HOAC     145      HOAC     H2       HDA3A    0.920000E-01   1.00800           0   0.00000       0.00000    
     13751 HOAC     145      HOAC     H3       HDA3A    0.920000E-01   1.00800           0   0.00000       0.00000    
     13752 HOAC     145      HOAC     O1       OD2C3A    2.35650       15.5994           0 -0.922000       1.53900    
     13753 HOAC     145      HOAC     DO1      DRUD     -2.35650      0.400000           0   0.00000       0.00000    
     13754 HOAC     145      HOAC     O2       OD31F     2.77650       15.5990           0  -1.28000       1.12400    
     13755 HOAC     145      HOAC     DO2      DRUD     -2.77650      0.400000           0   0.00000       0.00000    
     13756 HOAC     145      HOAC     H        HDP1A    0.374000       1.00800           0   0.00000       0.00000    
     13757 HOAC     145      HOAC     LPO11    LPD     -0.319000       0.00000          -1   0.00000       0.00000    
     13758 HOAC     145      HOAC     LPO12    LPD     -0.319000       0.00000          -1   0.00000       0.00000    
     13759 HOAC     145      HOAC     LPO21    LPD     -0.285000       0.00000          -1   0.00000       0.00000    
     13760 HOAC     145      HOAC     LPO22    LPD     -0.285000       0.00000          -1   0.00000       0.00000    
     13761 HOAC     146      HOAC     C1       CD2O3A    3.55420       11.6110           0  -1.20700      0.708000    
     13762 HOAC     146      HOAC     DC1      DRUD     -2.69620      0.400000           0   0.00000       0.00000    
     13763 HOAC     146      HOAC     C2       CD33C     3.26820       11.6110           0  -2.11400      0.750000    
     13764 HOAC     146      HOAC     DC2      DRUD     -3.56820      0.400000           0   0.00000       0.00000    
     13765 HOAC     146      HOAC     H1       HDA3A    0.920000E-01   1.00800           0   0.00000       0.00000    
     13766 HOAC     146      HOAC     H2       HDA3A    0.920000E-01   1.00800           0   0.00000       0.00000    
     13767 HOAC     146      HOAC     H3       HDA3A    0.920000E-01   1.00800           0   0.00000       0.00000    
     13768 HOAC     146      HOAC     O1       OD2C3A    2.35650       15.5994           0 -0.922000       1.53900    
     13769 HOAC     146      HOAC     DO1      DRUD     -2.35650      0.400000           0   0.00000       0.00000    
     13770 HOAC     146      HOAC     O2       OD31F     2.77650       15.5990           0  -1.28000       1.12400    
     13771 HOAC     146      HOAC     DO2      DRUD     -2.77650      0.400000           0   0.00000       0.00000    
     13772 HOAC     146      HOAC     H        HDP1A    0.374000       1.00800           0   0.00000       0.00000    
     13773 HOAC     146      HOAC     LPO11    LPD     -0.319000       0.00000          -1   0.00000       0.00000    
     13774 HOAC     146      HOAC     LPO12    LPD     -0.319000       0.00000          -1   0.00000       0.00000    
     13775 HOAC     146      HOAC     LPO21    LPD     -0.285000       0.00000          -1   0.00000       0.00000    
     13776 HOAC     146      HOAC     LPO22    LPD     -0.285000       0.00000          -1   0.00000       0.00000    
     13777 HOAC     147      HOAC     C1       CD2O3A    3.55420       11.6110           0  -1.20700      0.708000    
     13778 HOAC     147      HOAC     DC1      DRUD     -2.69620      0.400000           0   0.00000       0.00000    
     13779 HOAC     147      HOAC     C2       CD33C     3.26820       11.6110           0  -2.11400      0.750000    
     13780 HOAC     147      HOAC     DC2      DRUD     -3.56820      0.400000           0   0.00000       0.00000    
     13781 HOAC     147      HOAC     H1       HDA3A    0.920000E-01   1.00800           0   0.00000       0.00000    
     13782 HOAC     147      HOAC     H2       HDA3A    0.920000E-01   1.00800           0   0.00000       0.00000    
     13783 HOAC     147      HOAC     H3       HDA3A    0.920000E-01   1.00800           0   0.00000       0.00000    
     13784 HOAC     147      HOAC     O1       OD2C3A    2.35650       15.5994           0 -0.922000       1.53900    
     13785 HOAC     147      HOAC     DO1      DRUD     -2.35650      0.400000           0   0.00000       0.00000    
     13786 HOAC     147      HOAC     O2       OD31F     2.77650       15.5990           0  -1.28000       1.12400    
     13787 HOAC     147      HOAC     DO2      DRUD     -2.77650      0.400000           0   0.00000       0.00000    
     13788 HOAC     147      HOAC     H        HDP1A    0.374000       1.00800           0   0.00000       0.00000    
     13789 HOAC     147      HOAC     LPO11    LPD     -0.319000       0.00000          -1   0.00000       0.00000    
     13790 HOAC     147      HOAC     LPO12    LPD     -0.319000       0.00000          -1   0.00000       0.00000    
     13791 HOAC     147      HOAC     LPO21    LPD     -0.285000       0.00000          -1   0.00000       0.00000    
     13792 HOAC     147      HOAC     LPO22    LPD     -0.285000       0.00000          -1   0.00000       0.00000    
     13793 HOAC     148      HOAC     C1       CD2O3A    3.55420       11.6110           0  -1.20700      0.708000    
     13794 HOAC     148      HOAC     DC1      DRUD     -2.69620      0.400000           0   0.00000       0.00000    
     13795 HOAC     148      HOAC     C2       CD33C     3.26820       11.6110           0  -2.11400      0.750000    
     13796 HOAC     148      HOAC     DC2      DRUD     -3.56820      0.400000           0   0.00000       0.00000    
     13797 HOAC     148      HOAC     H1       HDA3A    0.920000E-01   1.00800           0   0.00000       0.00000    
     13798 HOAC     148      HOAC     H2       HDA3A    0.920000E-01   1.00800           0   0.00000       0.00000    
     13799 HOAC     148      HOAC     H3       HDA3A    0.920000E-01   1.00800           0   0.00000       0.00000    
     13800 HOAC     148      HOAC     O1       OD2C3A    2.35650       15.5994           0 -0.922000       1.53900    
     13801 HOAC     148      HOAC     DO1      DRUD     -2.35650      0.400000           0   0.00000       0.00000    
     13802 HOAC     148      HOAC     O2       OD31F     2.77650       15.5990           0  -1.28000       1.12400    
     13803 HOAC     148      HOAC     DO2      DRUD     -2.77650      0.400000           0   0.00000       0.00000    
     13804 HOAC     148      HOAC     H        HDP1A    0.374000       1.00800           0   0.00000       0.00000    
     13805 HOAC     148      HOAC     LPO11    LPD     -0.319000       0.00000          -1   0.00000       0.00000    
     13806 HOAC     148      HOAC     LPO12    LPD     -0.319000       0.00000          -1   0.00000       0.00000    
     13807 HOAC     148      HOAC     LPO21    LPD     -0.285000       0.00000          -1   0.00000       0.00000    
     13808 HOAC     148      HOAC     LPO22    LPD     -0.285000       0.00000          -1   0.00000       0.00000    
     13809 HOAC     149      HOAC     C1       CD2O3A    3.55420       11.6110           0  -1.20700      0.708000    
     13810 HOAC     149      HOAC     DC1      DRUD     -2.69620      0.400000           0   0.00000       0.00000    
     13811 HOAC     149      HOAC     C2       CD33C     3.26820       11.6110           0  -2.11400      0.750000    
     13812 HOAC     149      HOAC     DC2      DRUD     -3.56820      0.400000           0   0.00000       0.00000    
     13813 HOAC     149      HOAC     H1       HDA3A    0.920000E-01   1.00800           0   0.00000       0.00000    
     13814 HOAC     149      HOAC     H2       HDA3A    0.920000E-01   1.00800           0   0.00000       0.00000    
     13815 HOAC     149      HOAC     H3       HDA3A    0.920000E-01   1.00800           0   0.00000       0.00000    
     13816 HOAC     149      HOAC     O1       OD2C3A    2.35650       15.5994           0 -0.922000       1.53900    
     13817 HOAC     149      HOAC     DO1      DRUD     -2.35650      0.400000           0   0.00000       0.00000    
     13818 HOAC     149      HOAC     O2       OD31F     2.77650       15.5990           0  -1.28000       1.12400    
     13819 HOAC     149      HOAC     DO2      DRUD     -2.77650      0.400000           0   0.00000       0.00000    
     13820 HOAC     149      HOAC     H        HDP1A    0.374000       1.00800           0   0.00000       0.00000    
     13821 HOAC     149      HOAC     LPO11    LPD     -0.319000       0.00000          -1   0.00000       0.00000    
     13822 HOAC     149      HOAC     LPO12    LPD     -0.319000       0.00000          -1   0.00000       0.00000    
     13823 HOAC     149      HOAC     LPO21    LPD     -0.285000       0.00000          -1   0.00000       0.00000    
     13824 HOAC     149      HOAC     LPO22    LPD     -0.285000       0.00000          -1   0.00000       0.00000    
     13825 HOAC     150      HOAC     C1       CD2O3A    3.55420       11.6110           0  -1.20700      0.708000    
     13826 HOAC     150      HOAC     DC1      DRUD     -2.69620      0.400000           0   0.00000       0.00000    
     13827 HOAC     150      HOAC     C2       CD33C     3.26820       11.6110           0  -2.11400      0.750000    
     13828 HOAC     150      HOAC     DC2      DRUD     -3.56820      0.400000           0   0.00000       0.00000    
     13829 HOAC     150      HOAC     H1       HDA3A    0.920000E-01   1.00800           0   0.00000       0.00000    
     13830 HOAC     150      HOAC     H2       HDA3A    0.920000E-01   1.00800           0   0.00000       0.00000    
     13831 HOAC     150      HOAC     H3       HDA3A    0.920000E-01   1.00800           0   0.00000       0.00000    
     13832 HOAC     150      HOAC     O1       OD2C3A    2.35650       15.5994           0 -0.922000       1.53900    
     13833 HOAC     150      HOAC     DO1      DRUD     -2.35650      0.400000           0   0.00000       0.00000    
     13834 HOAC     150      HOAC     O2       OD31F     2.77650       15.5990           0  -1.28000       1.12400    
     13835 HOAC     150      HOAC     DO2      DRUD     -2.77650      0.400000           0   0.00000       0.00000    
     13836 HOAC     150      HOAC     H        HDP1A    0.374000       1.00800           0   0.00000       0.00000    
     13837 HOAC     150      HOAC     LPO11    LPD     -0.319000       0.00000          -1   0.00000       0.00000    
     13838 HOAC     150      HOAC     LPO12    LPD     -0.319000       0.00000          -1   0.00000       0.00000    
     13839 HOAC     150      HOAC     LPO21    LPD     -0.285000       0.00000          -1   0.00000       0.00000    
     13840 HOAC     150      HOAC     LPO22    LPD     -0.285000       0.00000          -1   0.00000       0.00000    
     13841 HOAC     151      HOAC     C1       CD2O3A    3.55420       11.6110           0  -1.20700      0.708000    
     13842 HOAC     151      HOAC     DC1      DRUD     -2.69620      0.400000           0   0.00000       0.00000    
     13843 HOAC     151      HOAC     C2       CD33C     3.26820       11.6110           0  -2.11400      0.750000    
     13844 HOAC     151      HOAC     DC2      DRUD     -3.56820      0.400000           0   0.00000       0.00000    
     13845 HOAC     151      HOAC     H1       HDA3A    0.920000E-01   1.00800           0   0.00000       0.00000    
     13846 HOAC     151      HOAC     H2       HDA3A    0.920000E-01   1.00800           0   0.00000       0.00000    
     13847 HOAC     151      HOAC     H3       HDA3A    0.920000E-01   1.00800           0   0.00000       0.00000    
     13848 HOAC     151      HOAC     O1       OD2C3A    2.35650       15.5994           0 -0.922000       1.53900    
     13849 HOAC     151      HOAC     DO1      DRUD     -2.35650      0.400000           0   0.00000       0.00000    
     13850 HOAC     151      HOAC     O2       OD31F     2.77650       15.5990           0  -1.28000       1.12400    
     13851 HOAC     151      HOAC     DO2      DRUD     -2.77650      0.400000           0   0.00000       0.00000    
     13852 HOAC     151      HOAC     H        HDP1A    0.374000       1.00800           0   0.00000       0.00000    
     13853 HOAC     151      HOAC     LPO11    LPD     -0.319000       0.00000          -1   0.00000       0.00000    
     13854 HOAC     151      HOAC     LPO12    LPD     -0.319000       0.00000          -1   0.00000       0.00000    
     13855 HOAC     151      HOAC     LPO21    LPD     -0.285000       0.00000          -1   0.00000       0.00000    
     13856 HOAC     151      HOAC     LPO22    LPD     -0.285000       0.00000          -1   0.00000       0.00000    
     13857 HOAC     152      HOAC     C1       CD2O3A    3.55420       11.6110           0  -1.20700      0.708000    
     13858 HOAC     152      HOAC     DC1      DRUD     -2.69620      0.400000           0   0.00000       0.00000    
     13859 HOAC     152      HOAC     C2       CD33C     3.26820       11.6110           0  -2.11400      0.750000    
     13860 HOAC     152      HOAC     DC2      DRUD     -3.56820      0.400000           0   0.00000       0.00000    
     13861 HOAC     152      HOAC     H1       HDA3A    0.920000E-01   1.00800           0   0.00000       0.00000    
     13862 HOAC     152      HOAC     H2       HDA3A    0.920000E-01   1.00800           0   0.00000       0.00000    
     13863 HOAC     152      HOAC     H3       HDA3A    0.920000E-01   1.00800           0   0.00000       0.00000    
     13864 HOAC     152      HOAC     O1       OD2C3A    2.35650       15.5994           0 -0.922000       1.53900    
     13865 HOAC     152      HOAC     DO1      DRUD     -2.35650      0.400000           0   0.00000       0.00000    
     13866 HOAC     152      HOAC     O2       OD31F     2.77650       15.5990           0  -1.28000       1.12400    
     13867 HOAC     152      HOAC     DO2      DRUD     -2.77650      0.400000           0   0.00000       0.00000    
     13868 HOAC     152      HOAC     H        HDP1A    0.374000       1.00800           0   0.00000       0.00000    
     13869 HOAC     152      HOAC     LPO11    LPD     -0.319000       0.00000          -1   0.00000       0.00000    
     13870 HOAC     152      HOAC     LPO12    LPD     -0.319000       0.00000          -1   0.00000       0.00000    
     13871 HOAC     152      HOAC     LPO21    LPD     -0.285000       0.00000          -1   0.00000       0.00000    
     13872 HOAC     152      HOAC     LPO22    LPD     -0.285000       0.00000          -1   0.00000       0.00000    
     13873 HOAC     153      HOAC     C1       CD2O3A    3.55420       11.6110           0  -1.20700      0.708000    
     13874 HOAC     153      HOAC     DC1      DRUD     -2.69620      0.400000           0   0.00000       0.00000    
     13875 HOAC     153      HOAC     C2       CD33C     3.26820       11.6110           0  -2.11400      0.750000    
     13876 HOAC     153      HOAC     DC2      DRUD     -3.56820      0.400000           0   0.00000       0.00000    
     13877 HOAC     153      HOAC     H1       HDA3A    0.920000E-01   1.00800           0   0.00000       0.00000    
     13878 HOAC     153      HOAC     H2       HDA3A    0.920000E-01   1.00800           0   0.00000       0.00000    
     13879 HOAC     153      HOAC     H3       HDA3A    0.920000E-01   1.00800           0   0.00000       0.00000    
     13880 HOAC     153      HOAC     O1       OD2C3A    2.35650       15.5994           0 -0.922000       1.53900    
     13881 HOAC     153      HOAC     DO1      DRUD     -2.35650      0.400000           0   0.00000       0.00000    
     13882 HOAC     153      HOAC     O2       OD31F     2.77650       15.5990           0  -1.28000       1.12400    
     13883 HOAC     153      HOAC     DO2      DRUD     -2.77650      0.400000           0   0.00000       0.00000    
     13884 HOAC     153      HOAC     H        HDP1A    0.374000       1.00800           0   0.00000       0.00000    
     13885 HOAC     153      HOAC     LPO11    LPD     -0.319000       0.00000          -1   0.00000       0.00000    
     13886 HOAC     153      HOAC     LPO12    LPD     -0.319000       0.00000          -1   0.00000       0.00000    
     13887 HOAC     153      HOAC     LPO21    LPD     -0.285000       0.00000          -1   0.00000       0.00000    
     13888 HOAC     153      HOAC     LPO22    LPD     -0.285000       0.00000          -1   0.00000       0.00000    
     13889 HOAC     154      HOAC     C1       CD2O3A    3.55420       11.6110           0  -1.20700      0.708000    
     13890 HOAC     154      HOAC     DC1      DRUD     -2.69620      0.400000           0   0.00000       0.00000    
     13891 HOAC     154      HOAC     C2       CD33C     3.26820       11.6110           0  -2.11400      0.750000    
     13892 HOAC     154      HOAC     DC2      DRUD     -3.56820      0.400000           0   0.00000       0.00000    
     13893 HOAC     154      HOAC     H1       HDA3A    0.920000E-01   1.00800           0   0.00000       0.00000    
     13894 HOAC     154      HOAC     H2       HDA3A    0.920000E-01   1.00800           0   0.00000       0.00000    
     13895 HOAC     154      HOAC     H3       HDA3A    0.920000E-01   1.00800           0   0.00000       0.00000    
     13896 HOAC     154      HOAC     O1       OD2C3A    2.35650       15.5994           0 -0.922000       1.53900    
     13897 HOAC     154      HOAC     DO1      DRUD     -2.35650      0.400000           0   0.00000       0.00000    
     13898 HOAC     154      HOAC     O2       OD31F     2.77650       15.5990           0  -1.28000       1.12400    
     13899 HOAC     154      HOAC     DO2      DRUD     -2.77650      0.400000           0   0.00000       0.00000    
     13900 HOAC     154      HOAC     H        HDP1A    0.374000       1.00800           0   0.00000       0.00000    
     13901 HOAC     154      HOAC     LPO11    LPD     -0.319000       0.00000          -1   0.00000       0.00000    
     13902 HOAC     154      HOAC     LPO12    LPD     -0.319000       0.00000          -1   0.00000       0.00000    
     13903 HOAC     154      HOAC     LPO21    LPD     -0.285000       0.00000          -1   0.00000       0.00000    
     13904 HOAC     154      HOAC     LPO22    LPD     -0.285000       0.00000          -1   0.00000       0.00000    
     13905 HOAC     155      HOAC     C1       CD2O3A    3.55420       11.6110           0  -1.20700      0.708000    
     13906 HOAC     155      HOAC     DC1      DRUD     -2.69620      0.400000           0   0.00000       0.00000    
     13907 HOAC     155      HOAC     C2       CD33C     3.26820       11.6110           0  -2.11400      0.750000    
     13908 HOAC     155      HOAC     DC2      DRUD     -3.56820      0.400000           0   0.00000       0.00000    
     13909 HOAC     155      HOAC     H1       HDA3A    0.920000E-01   1.00800           0   0.00000       0.00000    
     13910 HOAC     155      HOAC     H2       HDA3A    0.920000E-01   1.00800           0   0.00000       0.00000    
     13911 HOAC     155      HOAC     H3       HDA3A    0.920000E-01   1.00800           0   0.00000       0.00000    
     13912 HOAC     155      HOAC     O1       OD2C3A    2.35650       15.5994           0 -0.922000       1.53900    
     13913 HOAC     155      HOAC     DO1      DRUD     -2.35650      0.400000           0   0.00000       0.00000    
     13914 HOAC     155      HOAC     O2       OD31F     2.77650       15.5990           0  -1.28000       1.12400    
     13915 HOAC     155      HOAC     DO2      DRUD     -2.77650      0.400000           0   0.00000       0.00000    
     13916 HOAC     155      HOAC     H        HDP1A    0.374000       1.00800           0   0.00000       0.00000    
     13917 HOAC     155      HOAC     LPO11    LPD     -0.319000       0.00000          -1   0.00000       0.00000    
     13918 HOAC     155      HOAC     LPO12    LPD     -0.319000       0.00000          -1   0.00000       0.00000    
     13919 HOAC     155      HOAC     LPO21    LPD     -0.285000       0.00000          -1   0.00000       0.00000    
     13920 HOAC     155      HOAC     LPO22    LPD     -0.285000       0.00000          -1   0.00000       0.00000    
     13921 HOAC     156      HOAC     C1       CD2O3A    3.55420       11.6110           0  -1.20700      0.708000    
     13922 HOAC     156      HOAC     DC1      DRUD     -2.69620      0.400000           0   0.00000       0.00000    
     13923 HOAC     156      HOAC     C2       CD33C     3.26820       11.6110           0  -2.11400      0.750000    
     13924 HOAC     156      HOAC     DC2      DRUD     -3.56820      0.400000           0   0.00000       0.00000    
     13925 HOAC     156      HOAC     H1       HDA3A    0.920000E-01   1.00800           0   0.00000       0.00000    
     13926 HOAC     156      HOAC     H2       HDA3A    0.920000E-01   1.00800           0   0.00000       0.00000    
     13927 HOAC     156      HOAC     H3       HDA3A    0.920000E-01   1.00800           0   0.00000       0.00000    
     13928 HOAC     156      HOAC     O1       OD2C3A    2.35650       15.5994           0 -0.922000       1.53900    
     13929 HOAC     156      HOAC     DO1      DRUD     -2.35650      0.400000           0   0.00000       0.00000    
     13930 HOAC     156      HOAC     O2       OD31F     2.77650       15.5990           0  -1.28000       1.12400    
     13931 HOAC     156      HOAC     DO2      DRUD     -2.77650      0.400000           0   0.00000       0.00000    
     13932 HOAC     156      HOAC     H        HDP1A    0.374000       1.00800           0   0.00000       0.00000    
     13933 HOAC     156      HOAC     LPO11    LPD     -0.319000       0.00000          -1   0.00000       0.00000    
     13934 HOAC     156      HOAC     LPO12    LPD     -0.319000       0.00000          -1   0.00000       0.00000    
     13935 HOAC     156      HOAC     LPO21    LPD     -0.285000       0.00000          -1   0.00000       0.00000    
     13936 HOAC     156      HOAC     LPO22    LPD     -0.285000       0.00000          -1   0.00000       0.00000    
     13937 HOAC     157      HOAC     C1       CD2O3A    3.55420       11.6110           0  -1.20700      0.708000    
     13938 HOAC     157      HOAC     DC1      DRUD     -2.69620      0.400000           0   0.00000       0.00000    
     13939 HOAC     157      HOAC     C2       CD33C     3.26820       11.6110           0  -2.11400      0.750000    
     13940 HOAC     157      HOAC     DC2      DRUD     -3.56820      0.400000           0   0.00000       0.00000    
     13941 HOAC     157      HOAC     H1       HDA3A    0.920000E-01   1.00800           0   0.00000       0.00000    
     13942 HOAC     157      HOAC     H2       HDA3A    0.920000E-01   1.00800           0   0.00000       0.00000    
     13943 HOAC     157      HOAC     H3       HDA3A    0.920000E-01   1.00800           0   0.00000       0.00000    
     13944 HOAC     157      HOAC     O1       OD2C3A    2.35650       15.5994           0 -0.922000       1.53900    
     13945 HOAC     157      HOAC     DO1      DRUD     -2.35650      0.400000           0   0.00000       0.00000    
     13946 HOAC     157      HOAC     O2       OD31F     2.77650       15.5990           0  -1.28000       1.12400    
     13947 HOAC     157      HOAC     DO2      DRUD     -2.77650      0.400000           0   0.00000       0.00000    
     13948 HOAC     157      HOAC     H        HDP1A    0.374000       1.00800           0   0.00000       0.00000    
     13949 HOAC     157      HOAC     LPO11    LPD     -0.319000       0.00000          -1   0.00000       0.00000    
     13950 HOAC     157      HOAC     LPO12    LPD     -0.319000       0.00000          -1   0.00000       0.00000    
     13951 HOAC     157      HOAC     LPO21    LPD     -0.285000       0.00000          -1   0.00000       0.00000    
     13952 HOAC     157      HOAC     LPO22    LPD     -0.285000       0.00000          -1   0.00000       0.00000    
     13953 HOAC     158      HOAC     C1       CD2O3A    3.55420       11.6110           0  -1.20700      0.708000    
     13954 HOAC     158      HOAC     DC1      DRUD     -2.69620      0.400000           0   0.00000       0.00000    
     13955 HOAC     158      HOAC     C2       CD33C     3.26820       11.6110           0  -2.11400      0.750000    
     13956 HOAC     158      HOAC     DC2      DRUD     -3.56820      0.400000           0   0.00000       0.00000    
     13957 HOAC     158      HOAC     H1       HDA3A    0.920000E-01   1.00800           0   0.00000       0.00000    
     13958 HOAC     158      HOAC     H2       HDA3A    0.920000E-01   1.00800           0   0.00000       0.00000    
     13959 HOAC     158      HOAC     H3       HDA3A    0.920000E-01   1.00800           0   0.00000       0.00000    
     13960 HOAC     158      HOAC     O1       OD2C3A    2.35650       15.5994           0 -0.922000       1.53900    
     13961 HOAC     158      HOAC     DO1      DRUD     -2.35650      0.400000           0   0.00000       0.00000    
     13962 HOAC     158      HOAC     O2       OD31F     2.77650       15.5990           0  -1.28000       1.12400    
     13963 HOAC     158      HOAC     DO2      DRUD     -2.77650      0.400000           0   0.00000       0.00000    
     13964 HOAC     158      HOAC     H        HDP1A    0.374000       1.00800           0   0.00000       0.00000    
     13965 HOAC     158      HOAC     LPO11    LPD     -0.319000       0.00000          -1   0.00000       0.00000    
     13966 HOAC     158      HOAC     LPO12    LPD     -0.319000       0.00000          -1   0.00000       0.00000    
     13967 HOAC     158      HOAC     LPO21    LPD     -0.285000       0.00000          -1   0.00000       0.00000    
     13968 HOAC     158      HOAC     LPO22    LPD     -0.285000       0.00000          -1   0.00000       0.00000    
     13969 HOAC     159      HOAC     C1       CD2O3A    3.55420       11.6110           0  -1.20700      0.708000    
     13970 HOAC     159      HOAC     DC1      DRUD     -2.69620      0.400000           0   0.00000       0.00000    
     13971 HOAC     159      HOAC     C2       CD33C     3.26820       11.6110           0  -2.11400      0.750000    
     13972 HOAC     159      HOAC     DC2      DRUD     -3.56820      0.400000           0   0.00000       0.00000    
     13973 HOAC     159      HOAC     H1       HDA3A    0.920000E-01   1.00800           0   0.00000       0.00000    
     13974 HOAC     159      HOAC     H2       HDA3A    0.920000E-01   1.00800           0   0.00000       0.00000    
     13975 HOAC     159      HOAC     H3       HDA3A    0.920000E-01   1.00800           0   0.00000       0.00000    
     13976 HOAC     159      HOAC     O1       OD2C3A    2.35650       15.5994           0 -0.922000       1.53900    
     13977 HOAC     159      HOAC     DO1      DRUD     -2.35650      0.400000           0   0.00000       0.00000    
     13978 HOAC     159      HOAC     O2       OD31F     2.77650       15.5990           0  -1.28000       1.12400    
     13979 HOAC     159      HOAC     DO2      DRUD     -2.77650      0.400000           0   0.00000       0.00000    
     13980 HOAC     159      HOAC     H        HDP1A    0.374000       1.00800           0   0.00000       0.00000    
     13981 HOAC     159      HOAC     LPO11    LPD     -0.319000       0.00000          -1   0.00000       0.00000    
     13982 HOAC     159      HOAC     LPO12    LPD     -0.319000       0.00000          -1   0.00000       0.00000    
     13983 HOAC     159      HOAC     LPO21    LPD     -0.285000       0.00000          -1   0.00000       0.00000    
     13984 HOAC     159      HOAC     LPO22    LPD     -0.285000       0.00000          -1   0.00000       0.00000    
     13985 HOAC     160      HOAC     C1       CD2O3A    3.55420       11.6110           0  -1.20700      0.708000    
     13986 HOAC     160      HOAC     DC1      DRUD     -2.69620      0.400000           0   0.00000       0.00000    
     13987 HOAC     160      HOAC     C2       CD33C     3.26820       11.6110           0  -2.11400      0.750000    
     13988 HOAC     160      HOAC     DC2      DRUD     -3.56820      0.400000           0   0.00000       0.00000    
     13989 HOAC     160      HOAC     H1       HDA3A    0.920000E-01   1.00800           0   0.00000       0.00000    
     13990 HOAC     160      HOAC     H2       HDA3A    0.920000E-01   1.00800           0   0.00000       0.00000    
     13991 HOAC     160      HOAC     H3       HDA3A    0.920000E-01   1.00800           0   0.00000       0.00000    
     13992 HOAC     160      HOAC     O1       OD2C3A    2.35650       15.5994           0 -0.922000       1.53900    
     13993 HOAC     160      HOAC     DO1      DRUD     -2.35650      0.400000           0   0.00000       0.00000    
     13994 HOAC     160      HOAC     O2       OD31F     2.77650       15.5990           0  -1.28000       1.12400    
     13995 HOAC     160      HOAC     DO2      DRUD     -2.77650      0.400000           0   0.00000       0.00000    
     13996 HOAC     160      HOAC     H        HDP1A    0.374000       1.00800           0   0.00000       0.00000    
     13997 HOAC     160      HOAC     LPO11    LPD     -0.319000       0.00000          -1   0.00000       0.00000    
     13998 HOAC     160      HOAC     LPO12    LPD     -0.319000       0.00000          -1   0.00000       0.00000    
     13999 HOAC     160      HOAC     LPO21    LPD     -0.285000       0.00000          -1   0.00000       0.00000    
     14000 HOAC     160      HOAC     LPO22    LPD     -0.285000       0.00000          -1   0.00000       0.00000    
     14001 HOAC     161      HOAC     C1       CD2O3A    3.55420       11.6110           0  -1.20700      0.708000    
     14002 HOAC     161      HOAC     DC1      DRUD     -2.69620      0.400000           0   0.00000       0.00000    
     14003 HOAC     161      HOAC     C2       CD33C     3.26820       11.6110           0  -2.11400      0.750000    
     14004 HOAC     161      HOAC     DC2      DRUD     -3.56820      0.400000           0   0.00000       0.00000    
     14005 HOAC     161      HOAC     H1       HDA3A    0.920000E-01   1.00800           0   0.00000       0.00000    
     14006 HOAC     161      HOAC     H2       HDA3A    0.920000E-01   1.00800           0   0.00000       0.00000    
     14007 HOAC     161      HOAC     H3       HDA3A    0.920000E-01   1.00800           0   0.00000       0.00000    
     14008 HOAC     161      HOAC     O1       OD2C3A    2.35650       15.5994           0 -0.922000       1.53900    
     14009 HOAC     161      HOAC     DO1      DRUD     -2.35650      0.400000           0   0.00000       0.00000    
     14010 HOAC     161      HOAC     O2       OD31F     2.77650       15.5990           0  -1.28000       1.12400    
     14011 HOAC     161      HOAC     DO2      DRUD     -2.77650      0.400000           0   0.00000       0.00000    
     14012 HOAC     161      HOAC     H        HDP1A    0.374000       1.00800           0   0.00000       0.00000    
     14013 HOAC     161      HOAC     LPO11    LPD     -0.319000       0.00000          -1   0.00000       0.00000    
     14014 HOAC     161      HOAC     LPO12    LPD     -0.319000       0.00000          -1   0.00000       0.00000    
     14015 HOAC     161      HOAC     LPO21    LPD     -0.285000       0.00000          -1   0.00000       0.00000    
     14016 HOAC     161      HOAC     LPO22    LPD     -0.285000       0.00000          -1   0.00000       0.00000    
     14017 HOAC     162      HOAC     C1       CD2O3A    3.55420       11.6110           0  -1.20700      0.708000    
     14018 HOAC     162      HOAC     DC1      DRUD     -2.69620      0.400000           0   0.00000       0.00000    
     14019 HOAC     162      HOAC     C2       CD33C     3.26820       11.6110           0  -2.11400      0.750000    
     14020 HOAC     162      HOAC     DC2      DRUD     -3.56820      0.400000           0   0.00000       0.00000    
     14021 HOAC     162      HOAC     H1       HDA3A    0.920000E-01   1.00800           0   0.00000       0.00000    
     14022 HOAC     162      HOAC     H2       HDA3A    0.920000E-01   1.00800           0   0.00000       0.00000    
     14023 HOAC     162      HOAC     H3       HDA3A    0.920000E-01   1.00800           0   0.00000       0.00000    
     14024 HOAC     162      HOAC     O1       OD2C3A    2.35650       15.5994           0 -0.922000       1.53900    
     14025 HOAC     162      HOAC     DO1      DRUD     -2.35650      0.400000           0   0.00000       0.00000    
     14026 HOAC     162      HOAC     O2       OD31F     2.77650       15.5990           0  -1.28000       1.12400    
     14027 HOAC     162      HOAC     DO2      DRUD     -2.77650      0.400000           0   0.00000       0.00000    
     14028 HOAC     162      HOAC     H        HDP1A    0.374000       1.00800           0   0.00000       0.00000    
     14029 HOAC     162      HOAC     LPO11    LPD     -0.319000       0.00000          -1   0.00000       0.00000    
     14030 HOAC     162      HOAC     LPO12    LPD     -0.319000       0.00000          -1   0.00000       0.00000    
     14031 HOAC     162      HOAC     LPO21    LPD     -0.285000       0.00000          -1   0.00000       0.00000    
     14032 HOAC     162      HOAC     LPO22    LPD     -0.285000       0.00000          -1   0.00000       0.00000    
     14033 HOAC     163      HOAC     C1       CD2O3A    3.55420       11.6110           0  -1.20700      0.708000    
     14034 HOAC     163      HOAC     DC1      DRUD     -2.69620      0.400000           0   0.00000       0.00000    
     14035 HOAC     163      HOAC     C2       CD33C     3.26820       11.6110           0  -2.11400      0.750000    
     14036 HOAC     163      HOAC     DC2      DRUD     -3.56820      0.400000           0   0.00000       0.00000    
     14037 HOAC     163      HOAC     H1       HDA3A    0.920000E-01   1.00800           0   0.00000       0.00000    
     14038 HOAC     163      HOAC     H2       HDA3A    0.920000E-01   1.00800           0   0.00000       0.00000    
     14039 HOAC     163      HOAC     H3       HDA3A    0.920000E-01   1.00800           0   0.00000       0.00000    
     14040 HOAC     163      HOAC     O1       OD2C3A    2.35650       15.5994           0 -0.922000       1.53900    
     14041 HOAC     163      HOAC     DO1      DRUD     -2.35650      0.400000           0   0.00000       0.00000    
     14042 HOAC     163      HOAC     O2       OD31F     2.77650       15.5990           0  -1.28000       1.12400    
     14043 HOAC     163      HOAC     DO2      DRUD     -2.77650      0.400000           0   0.00000       0.00000    
     14044 HOAC     163      HOAC     H        HDP1A    0.374000       1.00800           0   0.00000       0.00000    
     14045 HOAC     163      HOAC     LPO11    LPD     -0.319000       0.00000          -1   0.00000       0.00000    
     14046 HOAC     163      HOAC     LPO12    LPD     -0.319000       0.00000          -1   0.00000       0.00000    
     14047 HOAC     163      HOAC     LPO21    LPD     -0.285000       0.00000          -1   0.00000       0.00000    
     14048 HOAC     163      HOAC     LPO22    LPD     -0.285000       0.00000          -1   0.00000       0.00000    
     14049 HOAC     164      HOAC     C1       CD2O3A    3.55420       11.6110           0  -1.20700      0.708000    
     14050 HOAC     164      HOAC     DC1      DRUD     -2.69620      0.400000           0   0.00000       0.00000    
     14051 HOAC     164      HOAC     C2       CD33C     3.26820       11.6110           0  -2.11400      0.750000    
     14052 HOAC     164      HOAC     DC2      DRUD     -3.56820      0.400000           0   0.00000       0.00000    
     14053 HOAC     164      HOAC     H1       HDA3A    0.920000E-01   1.00800           0   0.00000       0.00000    
     14054 HOAC     164      HOAC     H2       HDA3A    0.920000E-01   1.00800           0   0.00000       0.00000    
     14055 HOAC     164      HOAC     H3       HDA3A    0.920000E-01   1.00800           0   0.00000       0.00000    
     14056 HOAC     164      HOAC     O1       OD2C3A    2.35650       15.5994           0 -0.922000       1.53900    
     14057 HOAC     164      HOAC     DO1      DRUD     -2.35650      0.400000           0   0.00000       0.00000    
     14058 HOAC     164      HOAC     O2       OD31F     2.77650       15.5990           0  -1.28000       1.12400    
     14059 HOAC     164      HOAC     DO2      DRUD     -2.77650      0.400000           0   0.00000       0.00000    
     14060 HOAC     164      HOAC     H        HDP1A    0.374000       1.00800           0   0.00000       0.00000    
     14061 HOAC     164      HOAC     LPO11    LPD     -0.319000       0.00000          -1   0.00000       0.00000    
     14062 HOAC     164      HOAC     LPO12    LPD     -0.319000       0.00000          -1   0.00000       0.00000    
     14063 HOAC     164      HOAC     LPO21    LPD     -0.285000       0.00000          -1   0.00000       0.00000    
     14064 HOAC     164      HOAC     LPO22    LPD     -0.285000       0.00000          -1   0.00000       0.00000    
     14065 HOAC     165      HOAC     C1       CD2O3A    3.55420       11.6110           0  -1.20700      0.708000    
     14066 HOAC     165      HOAC     DC1      DRUD     -2.69620      0.400000           0   0.00000       0.00000    
     14067 HOAC     165      HOAC     C2       CD33C     3.26820       11.6110           0  -2.11400      0.750000    
     14068 HOAC     165      HOAC     DC2      DRUD     -3.56820      0.400000           0   0.00000       0.00000    
     14069 HOAC     165      HOAC     H1       HDA3A    0.920000E-01   1.00800           0   0.00000       0.00000    
     14070 HOAC     165      HOAC     H2       HDA3A    0.920000E-01   1.00800           0   0.00000       0.00000    
     14071 HOAC     165      HOAC     H3       HDA3A    0.920000E-01   1.00800           0   0.00000       0.00000    
     14072 HOAC     165      HOAC     O1       OD2C3A    2.35650       15.5994           0 -0.922000       1.53900    
     14073 HOAC     165      HOAC     DO1      DRUD     -2.35650      0.400000           0   0.00000       0.00000    
     14074 HOAC     165      HOAC     O2       OD31F     2.77650       15.5990           0  -1.28000       1.12400    
     14075 HOAC     165      HOAC     DO2      DRUD     -2.77650      0.400000           0   0.00000       0.00000    
     14076 HOAC     165      HOAC     H        HDP1A    0.374000       1.00800           0   0.00000       0.00000    
     14077 HOAC     165      HOAC     LPO11    LPD     -0.319000       0.00000          -1   0.00000       0.00000    
     14078 HOAC     165      HOAC     LPO12    LPD     -0.319000       0.00000          -1   0.00000       0.00000    
     14079 HOAC     165      HOAC     LPO21    LPD     -0.285000       0.00000          -1   0.00000       0.00000    
     14080 HOAC     165      HOAC     LPO22    LPD     -0.285000       0.00000          -1   0.00000       0.00000    
     14081 HOAC     166      HOAC     C1       CD2O3A    3.55420       11.6110           0  -1.20700      0.708000    
     14082 HOAC     166      HOAC     DC1      DRUD     -2.69620      0.400000           0   0.00000       0.00000    
     14083 HOAC     166      HOAC     C2       CD33C     3.26820       11.6110           0  -2.11400      0.750000    
     14084 HOAC     166      HOAC     DC2      DRUD     -3.56820      0.400000           0   0.00000       0.00000    
     14085 HOAC     166      HOAC     H1       HDA3A    0.920000E-01   1.00800           0   0.00000       0.00000    
     14086 HOAC     166      HOAC     H2       HDA3A    0.920000E-01   1.00800           0   0.00000       0.00000    
     14087 HOAC     166      HOAC     H3       HDA3A    0.920000E-01   1.00800           0   0.00000       0.00000    
     14088 HOAC     166      HOAC     O1       OD2C3A    2.35650       15.5994           0 -0.922000       1.53900    
     14089 HOAC     166      HOAC     DO1      DRUD     -2.35650      0.400000           0   0.00000       0.00000    
     14090 HOAC     166      HOAC     O2       OD31F     2.77650       15.5990           0  -1.28000       1.12400    
     14091 HOAC     166      HOAC     DO2      DRUD     -2.77650      0.400000           0   0.00000       0.00000    
     14092 HOAC     166      HOAC     H        HDP1A    0.374000       1.00800           0   0.00000       0.00000    
     14093 HOAC     166      HOAC     LPO11    LPD     -0.319000       0.00000          -1   0.00000       0.00000    
     14094 HOAC     166      HOAC     LPO12    LPD     -0.319000       0.00000          -1   0.00000       0.00000    
     14095 HOAC     166      HOAC     LPO21    LPD     -0.285000       0.00000          -1   0.00000       0.00000    
     14096 HOAC     166      HOAC     LPO22    LPD     -0.285000       0.00000          -1   0.00000       0.00000    
     14097 HOAC     167      HOAC     C1       CD2O3A    3.55420       11.6110           0  -1.20700      0.708000    
     14098 HOAC     167      HOAC     DC1      DRUD     -2.69620      0.400000           0   0.00000       0.00000    
     14099 HOAC     167      HOAC     C2       CD33C     3.26820       11.6110           0  -2.11400      0.750000    
     14100 HOAC     167      HOAC     DC2      DRUD     -3.56820      0.400000           0   0.00000       0.00000    
     14101 HOAC     167      HOAC     H1       HDA3A    0.920000E-01   1.00800           0   0.00000       0.00000    
     14102 HOAC     167      HOAC     H2       HDA3A    0.920000E-01   1.00800           0   0.00000       0.00000    
     14103 HOAC     167      HOAC     H3       HDA3A    0.920000E-01   1.00800           0   0.00000       0.00000    
     14104 HOAC     167      HOAC     O1       OD2C3A    2.35650       15.5994           0 -0.922000       1.53900    
     14105 HOAC     167      HOAC     DO1      DRUD     -2.35650      0.400000           0   0.00000       0.00000    
     14106 HOAC     167      HOAC     O2       OD31F     2.77650       15.5990           0  -1.28000       1.12400    
     14107 HOAC     167      HOAC     DO2      DRUD     -2.77650      0.400000           0   0.00000       0.00000    
     14108 HOAC     167      HOAC     H        HDP1A    0.374000       1.00800           0   0.00000       0.00000    
     14109 HOAC     167      HOAC     LPO11    LPD     -0.319000       0.00000          -1   0.00000       0.00000    
     14110 HOAC     167      HOAC     LPO12    LPD     -0.319000       0.00000          -1   0.00000       0.00000    
     14111 HOAC     167      HOAC     LPO21    LPD     -0.285000       0.00000          -1   0.00000       0.00000    
     14112 HOAC     167      HOAC     LPO22    LPD     -0.285000       0.00000          -1   0.00000       0.00000    
     14113 HOAC     168      HOAC     C1       CD2O3A    3.55420       11.6110           0  -1.20700      0.708000    
     14114 HOAC     168      HOAC     DC1      DRUD     -2.69620      0.400000           0   0.00000       0.00000    
     14115 HOAC     168      HOAC     C2       CD33C     3.26820       11.6110           0  -2.11400      0.750000    
     14116 HOAC     168      HOAC     DC2      DRUD     -3.56820      0.400000           0   0.00000       0.00000    
     14117 HOAC     168      HOAC     H1       HDA3A    0.920000E-01   1.00800           0   0.00000       0.00000    
     14118 HOAC     168      HOAC     H2       HDA3A    0.920000E-01   1.00800           0   0.00000       0.00000    
     14119 HOAC     168      HOAC     H3       HDA3A    0.920000E-01   1.00800           0   0.00000       0.00000    
     14120 HOAC     168      HOAC     O1       OD2C3A    2.35650       15.5994           0 -0.922000       1.53900    
     14121 HOAC     168      HOAC     DO1      DRUD     -2.35650      0.400000           0   0.00000       0.00000    
     14122 HOAC     168      HOAC     O2       OD31F     2.77650       15.5990           0  -1.28000       1.12400    
     14123 HOAC     168      HOAC     DO2      DRUD     -2.77650      0.400000           0   0.00000       0.00000    
     14124 HOAC     168      HOAC     H        HDP1A    0.374000       1.00800           0   0.00000       0.00000    
     14125 HOAC     168      HOAC     LPO11    LPD     -0.319000       0.00000          -1   0.00000       0.00000    
     14126 HOAC     168      HOAC     LPO12    LPD     -0.319000       0.00000          -1   0.00000       0.00000    
     14127 HOAC     168      HOAC     LPO21    LPD     -0.285000       0.00000          -1   0.00000       0.00000    
     14128 HOAC     168      HOAC     LPO22    LPD     -0.285000       0.00000          -1   0.00000       0.00000    
     14129 HOAC     169      HOAC     C1       CD2O3A    3.55420       11.6110           0  -1.20700      0.708000    
     14130 HOAC     169      HOAC     DC1      DRUD     -2.69620      0.400000           0   0.00000       0.00000    
     14131 HOAC     169      HOAC     C2       CD33C     3.26820       11.6110           0  -2.11400      0.750000    
     14132 HOAC     169      HOAC     DC2      DRUD     -3.56820      0.400000           0   0.00000       0.00000    
     14133 HOAC     169      HOAC     H1       HDA3A    0.920000E-01   1.00800           0   0.00000       0.00000    
     14134 HOAC     169      HOAC     H2       HDA3A    0.920000E-01   1.00800           0   0.00000       0.00000    
     14135 HOAC     169      HOAC     H3       HDA3A    0.920000E-01   1.00800           0   0.00000       0.00000    
     14136 HOAC     169      HOAC     O1       OD2C3A    2.35650       15.5994           0 -0.922000       1.53900    
     14137 HOAC     169      HOAC     DO1      DRUD     -2.35650      0.400000           0   0.00000       0.00000    
     14138 HOAC     169      HOAC     O2       OD31F     2.77650       15.5990           0  -1.28000       1.12400    
     14139 HOAC     169      HOAC     DO2      DRUD     -2.77650      0.400000           0   0.00000       0.00000    
     14140 HOAC     169      HOAC     H        HDP1A    0.374000       1.00800           0   0.00000       0.00000    
     14141 HOAC     169      HOAC     LPO11    LPD     -0.319000       0.00000          -1   0.00000       0.00000    
     14142 HOAC     169      HOAC     LPO12    LPD     -0.319000       0.00000          -1   0.00000       0.00000    
     14143 HOAC     169      HOAC     LPO21    LPD     -0.285000       0.00000          -1   0.00000       0.00000    
     14144 HOAC     169      HOAC     LPO22    LPD     -0.285000       0.00000          -1   0.00000       0.00000    
     14145 HOAC     170      HOAC     C1       CD2O3A    3.55420       11.6110           0  -1.20700      0.708000    
     14146 HOAC     170      HOAC     DC1      DRUD     -2.69620      0.400000           0   0.00000       0.00000    
     14147 HOAC     170      HOAC     C2       CD33C     3.26820       11.6110           0  -2.11400      0.750000    
     14148 HOAC     170      HOAC     DC2      DRUD     -3.56820      0.400000           0   0.00000       0.00000    
     14149 HOAC     170      HOAC     H1       HDA3A    0.920000E-01   1.00800           0   0.00000       0.00000    
     14150 HOAC     170      HOAC     H2       HDA3A    0.920000E-01   1.00800           0   0.00000       0.00000    
     14151 HOAC     170      HOAC     H3       HDA3A    0.920000E-01   1.00800           0   0.00000       0.00000    
     14152 HOAC     170      HOAC     O1       OD2C3A    2.35650       15.5994           0 -0.922000       1.53900    
     14153 HOAC     170      HOAC     DO1      DRUD     -2.35650      0.400000           0   0.00000       0.00000    
     14154 HOAC     170      HOAC     O2       OD31F     2.77650       15.5990           0  -1.28000       1.12400    
     14155 HOAC     170      HOAC     DO2      DRUD     -2.77650      0.400000           0   0.00000       0.00000    
     14156 HOAC     170      HOAC     H        HDP1A    0.374000       1.00800           0   0.00000       0.00000    
     14157 HOAC     170      HOAC     LPO11    LPD     -0.319000       0.00000          -1   0.00000       0.00000    
     14158 HOAC     170      HOAC     LPO12    LPD     -0.319000       0.00000          -1   0.00000       0.00000    
     14159 HOAC     170      HOAC     LPO21    LPD     -0.285000       0.00000          -1   0.00000       0.00000    
     14160 HOAC     170      HOAC     LPO22    LPD     -0.285000       0.00000          -1   0.00000       0.00000    
     14161 HOAC     171      HOAC     C1       CD2O3A    3.55420       11.6110           0  -1.20700      0.708000    
     14162 HOAC     171      HOAC     DC1      DRUD     -2.69620      0.400000           0   0.00000       0.00000    
     14163 HOAC     171      HOAC     C2       CD33C     3.26820       11.6110           0  -2.11400      0.750000    
     14164 HOAC     171      HOAC     DC2      DRUD     -3.56820      0.400000           0   0.00000       0.00000    
     14165 HOAC     171      HOAC     H1       HDA3A    0.920000E-01   1.00800           0   0.00000       0.00000    
     14166 HOAC     171      HOAC     H2       HDA3A    0.920000E-01   1.00800           0   0.00000       0.00000    
     14167 HOAC     171      HOAC     H3       HDA3A    0.920000E-01   1.00800           0   0.00000       0.00000    
     14168 HOAC     171      HOAC     O1       OD2C3A    2.35650       15.5994           0 -0.922000       1.53900    
     14169 HOAC     171      HOAC     DO1      DRUD     -2.35650      0.400000           0   0.00000       0.00000    
     14170 HOAC     171      HOAC     O2       OD31F     2.77650       15.5990           0  -1.28000       1.12400    
     14171 HOAC     171      HOAC     DO2      DRUD     -2.77650      0.400000           0   0.00000       0.00000    
     14172 HOAC     171      HOAC     H        HDP1A    0.374000       1.00800           0   0.00000       0.00000    
     14173 HOAC     171      HOAC     LPO11    LPD     -0.319000       0.00000          -1   0.00000       0.00000    
     14174 HOAC     171      HOAC     LPO12    LPD     -0.319000       0.00000          -1   0.00000       0.00000    
     14175 HOAC     171      HOAC     LPO21    LPD     -0.285000       0.00000          -1   0.00000       0.00000    
     14176 HOAC     171      HOAC     LPO22    LPD     -0.285000       0.00000          -1   0.00000       0.00000    
     14177 HOAC     172      HOAC     C1       CD2O3A    3.55420       11.6110           0  -1.20700      0.708000    
     14178 HOAC     172      HOAC     DC1      DRUD     -2.69620      0.400000           0   0.00000       0.00000    
     14179 HOAC     172      HOAC     C2       CD33C     3.26820       11.6110           0  -2.11400      0.750000    
     14180 HOAC     172      HOAC     DC2      DRUD     -3.56820      0.400000           0   0.00000       0.00000    
     14181 HOAC     172      HOAC     H1       HDA3A    0.920000E-01   1.00800           0   0.00000       0.00000    
     14182 HOAC     172      HOAC     H2       HDA3A    0.920000E-01   1.00800           0   0.00000       0.00000    
     14183 HOAC     172      HOAC     H3       HDA3A    0.920000E-01   1.00800           0   0.00000       0.00000    
     14184 HOAC     172      HOAC     O1       OD2C3A    2.35650       15.5994           0 -0.922000       1.53900    
     14185 HOAC     172      HOAC     DO1      DRUD     -2.35650      0.400000           0   0.00000       0.00000    
     14186 HOAC     172      HOAC     O2       OD31F     2.77650       15.5990           0  -1.28000       1.12400    
     14187 HOAC     172      HOAC     DO2      DRUD     -2.77650      0.400000           0   0.00000       0.00000    
     14188 HOAC     172      HOAC     H        HDP1A    0.374000       1.00800           0   0.00000       0.00000    
     14189 HOAC     172      HOAC     LPO11    LPD     -0.319000       0.00000          -1   0.00000       0.00000    
     14190 HOAC     172      HOAC     LPO12    LPD     -0.319000       0.00000          -1   0.00000       0.00000    
     14191 HOAC     172      HOAC     LPO21    LPD     -0.285000       0.00000          -1   0.00000       0.00000    
     14192 HOAC     172      HOAC     LPO22    LPD     -0.285000       0.00000          -1   0.00000       0.00000    
     14193 HOAC     173      HOAC     C1       CD2O3A    3.55420       11.6110           0  -1.20700      0.708000    
     14194 HOAC     173      HOAC     DC1      DRUD     -2.69620      0.400000           0   0.00000       0.00000    
     14195 HOAC     173      HOAC     C2       CD33C     3.26820       11.6110           0  -2.11400      0.750000    
     14196 HOAC     173      HOAC     DC2      DRUD     -3.56820      0.400000           0   0.00000       0.00000    
     14197 HOAC     173      HOAC     H1       HDA3A    0.920000E-01   1.00800           0   0.00000       0.00000    
     14198 HOAC     173      HOAC     H2       HDA3A    0.920000E-01   1.00800           0   0.00000       0.00000    
     14199 HOAC     173      HOAC     H3       HDA3A    0.920000E-01   1.00800           0   0.00000       0.00000    
     14200 HOAC     173      HOAC     O1       OD2C3A    2.35650       15.5994           0 -0.922000       1.53900    
     14201 HOAC     173      HOAC     DO1      DRUD     -2.35650      0.400000           0   0.00000       0.00000    
     14202 HOAC     173      HOAC     O2       OD31F     2.77650       15.5990           0  -1.28000       1.12400    
     14203 HOAC     173      HOAC     DO2      DRUD     -2.77650      0.400000           0   0.00000       0.00000    
     14204 HOAC     173      HOAC     H        HDP1A    0.374000       1.00800           0   0.00000       0.00000    
     14205 HOAC     173      HOAC     LPO11    LPD     -0.319000       0.00000          -1   0.00000       0.00000    
     14206 HOAC     173      HOAC     LPO12    LPD     -0.319000       0.00000          -1   0.00000       0.00000    
     14207 HOAC     173      HOAC     LPO21    LPD     -0.285000       0.00000          -1   0.00000       0.00000    
     14208 HOAC     173      HOAC     LPO22    LPD     -0.285000       0.00000          -1   0.00000       0.00000    
     14209 HOAC     174      HOAC     C1       CD2O3A    3.55420       11.6110           0  -1.20700      0.708000    
     14210 HOAC     174      HOAC     DC1      DRUD     -2.69620      0.400000           0   0.00000       0.00000    
     14211 HOAC     174      HOAC     C2       CD33C     3.26820       11.6110           0  -2.11400      0.750000    
     14212 HOAC     174      HOAC     DC2      DRUD     -3.56820      0.400000           0   0.00000       0.00000    
     14213 HOAC     174      HOAC     H1       HDA3A    0.920000E-01   1.00800           0   0.00000       0.00000    
     14214 HOAC     174      HOAC     H2       HDA3A    0.920000E-01   1.00800           0   0.00000       0.00000    
     14215 HOAC     174      HOAC     H3       HDA3A    0.920000E-01   1.00800           0   0.00000       0.00000    
     14216 HOAC     174      HOAC     O1       OD2C3A    2.35650       15.5994           0 -0.922000       1.53900    
     14217 HOAC     174      HOAC     DO1      DRUD     -2.35650      0.400000           0   0.00000       0.00000    
     14218 HOAC     174      HOAC     O2       OD31F     2.77650       15.5990           0  -1.28000       1.12400    
     14219 HOAC     174      HOAC     DO2      DRUD     -2.77650      0.400000           0   0.00000       0.00000    
     14220 HOAC     174      HOAC     H        HDP1A    0.374000       1.00800           0   0.00000       0.00000    
     14221 HOAC     174      HOAC     LPO11    LPD     -0.319000       0.00000          -1   0.00000       0.00000    
     14222 HOAC     174      HOAC     LPO12    LPD     -0.319000       0.00000          -1   0.00000       0.00000    
     14223 HOAC     174      HOAC     LPO21    LPD     -0.285000       0.00000          -1   0.00000       0.00000    
     14224 HOAC     174      HOAC     LPO22    LPD     -0.285000       0.00000          -1   0.00000       0.00000    
     14225 HOAC     175      HOAC     C1       CD2O3A    3.55420       11.6110           0  -1.20700      0.708000    
     14226 HOAC     175      HOAC     DC1      DRUD     -2.69620      0.400000           0   0.00000       0.00000    
     14227 HOAC     175      HOAC     C2       CD33C     3.26820       11.6110           0  -2.11400      0.750000    
     14228 HOAC     175      HOAC     DC2      DRUD     -3.56820      0.400000           0   0.00000       0.00000    
     14229 HOAC     175      HOAC     H1       HDA3A    0.920000E-01   1.00800           0   0.00000       0.00000    
     14230 HOAC     175      HOAC     H2       HDA3A    0.920000E-01   1.00800           0   0.00000       0.00000    
     14231 HOAC     175      HOAC     H3       HDA3A    0.920000E-01   1.00800           0   0.00000       0.00000    
     14232 HOAC     175      HOAC     O1       OD2C3A    2.35650       15.5994           0 -0.922000       1.53900    
     14233 HOAC     175      HOAC     DO1      DRUD     -2.35650      0.400000           0   0.00000       0.00000    
     14234 HOAC     175      HOAC     O2       OD31F     2.77650       15.5990           0  -1.28000       1.12400    
     14235 HOAC     175      HOAC     DO2      DRUD     -2.77650      0.400000           0   0.00000       0.00000    
     14236 HOAC     175      HOAC     H        HDP1A    0.374000       1.00800           0   0.00000       0.00000    
     14237 HOAC     175      HOAC     LPO11    LPD     -0.319000       0.00000          -1   0.00000       0.00000    
     14238 HOAC     175      HOAC     LPO12    LPD     -0.319000       0.00000          -1   0.00000       0.00000    
     14239 HOAC     175      HOAC     LPO21    LPD     -0.285000       0.00000          -1   0.00000       0.00000    
     14240 HOAC     175      HOAC     LPO22    LPD     -0.285000       0.00000          -1   0.00000       0.00000    
     14241 HOAC     176      HOAC     C1       CD2O3A    3.55420       11.6110           0  -1.20700      0.708000    
     14242 HOAC     176      HOAC     DC1      DRUD     -2.69620      0.400000           0   0.00000       0.00000    
     14243 HOAC     176      HOAC     C2       CD33C     3.26820       11.6110           0  -2.11400      0.750000    
     14244 HOAC     176      HOAC     DC2      DRUD     -3.56820      0.400000           0   0.00000       0.00000    
     14245 HOAC     176      HOAC     H1       HDA3A    0.920000E-01   1.00800           0   0.00000       0.00000    
     14246 HOAC     176      HOAC     H2       HDA3A    0.920000E-01   1.00800           0   0.00000       0.00000    
     14247 HOAC     176      HOAC     H3       HDA3A    0.920000E-01   1.00800           0   0.00000       0.00000    
     14248 HOAC     176      HOAC     O1       OD2C3A    2.35650       15.5994           0 -0.922000       1.53900    
     14249 HOAC     176      HOAC     DO1      DRUD     -2.35650      0.400000           0   0.00000       0.00000    
     14250 HOAC     176      HOAC     O2       OD31F     2.77650       15.5990           0  -1.28000       1.12400    
     14251 HOAC     176      HOAC     DO2      DRUD     -2.77650      0.400000           0   0.00000       0.00000    
     14252 HOAC     176      HOAC     H        HDP1A    0.374000       1.00800           0   0.00000       0.00000    
     14253 HOAC     176      HOAC     LPO11    LPD     -0.319000       0.00000          -1   0.00000       0.00000    
     14254 HOAC     176      HOAC     LPO12    LPD     -0.319000       0.00000          -1   0.00000       0.00000    
     14255 HOAC     176      HOAC     LPO21    LPD     -0.285000       0.00000          -1   0.00000       0.00000    
     14256 HOAC     176      HOAC     LPO22    LPD     -0.285000       0.00000          -1   0.00000       0.00000    
     14257 HOAC     177      HOAC     C1       CD2O3A    3.55420       11.6110           0  -1.20700      0.708000    
     14258 HOAC     177      HOAC     DC1      DRUD     -2.69620      0.400000           0   0.00000       0.00000    
     14259 HOAC     177      HOAC     C2       CD33C     3.26820       11.6110           0  -2.11400      0.750000    
     14260 HOAC     177      HOAC     DC2      DRUD     -3.56820      0.400000           0   0.00000       0.00000    
     14261 HOAC     177      HOAC     H1       HDA3A    0.920000E-01   1.00800           0   0.00000       0.00000    
     14262 HOAC     177      HOAC     H2       HDA3A    0.920000E-01   1.00800           0   0.00000       0.00000    
     14263 HOAC     177      HOAC     H3       HDA3A    0.920000E-01   1.00800           0   0.00000       0.00000    
     14264 HOAC     177      HOAC     O1       OD2C3A    2.35650       15.5994           0 -0.922000       1.53900    
     14265 HOAC     177      HOAC     DO1      DRUD     -2.35650      0.400000           0   0.00000       0.00000    
     14266 HOAC     177      HOAC     O2       OD31F     2.77650       15.5990           0  -1.28000       1.12400    
     14267 HOAC     177      HOAC     DO2      DRUD     -2.77650      0.400000           0   0.00000       0.00000    
     14268 HOAC     177      HOAC     H        HDP1A    0.374000       1.00800           0   0.00000       0.00000    
     14269 HOAC     177      HOAC     LPO11    LPD     -0.319000       0.00000          -1   0.00000       0.00000    
     14270 HOAC     177      HOAC     LPO12    LPD     -0.319000       0.00000          -1   0.00000       0.00000    
     14271 HOAC     177      HOAC     LPO21    LPD     -0.285000       0.00000          -1   0.00000       0.00000    
     14272 HOAC     177      HOAC     LPO22    LPD     -0.285000       0.00000          -1   0.00000       0.00000    
     14273 HOAC     178      HOAC     C1       CD2O3A    3.55420       11.6110           0  -1.20700      0.708000    
     14274 HOAC     178      HOAC     DC1      DRUD     -2.69620      0.400000           0   0.00000       0.00000    
     14275 HOAC     178      HOAC     C2       CD33C     3.26820       11.6110           0  -2.11400      0.750000    
     14276 HOAC     178      HOAC     DC2      DRUD     -3.56820      0.400000           0   0.00000       0.00000    
     14277 HOAC     178      HOAC     H1       HDA3A    0.920000E-01   1.00800           0   0.00000       0.00000    
     14278 HOAC     178      HOAC     H2       HDA3A    0.920000E-01   1.00800           0   0.00000       0.00000    
     14279 HOAC     178      HOAC     H3       HDA3A    0.920000E-01   1.00800           0   0.00000       0.00000    
     14280 HOAC     178      HOAC     O1       OD2C3A    2.35650       15.5994           0 -0.922000       1.53900    
     14281 HOAC     178      HOAC     DO1      DRUD     -2.35650      0.400000           0   0.00000       0.00000    
     14282 HOAC     178      HOAC     O2       OD31F     2.77650       15.5990           0  -1.28000       1.12400    
     14283 HOAC     178      HOAC     DO2      DRUD     -2.77650      0.400000           0   0.00000       0.00000    
     14284 HOAC     178      HOAC     H        HDP1A    0.374000       1.00800           0   0.00000       0.00000    
     14285 HOAC     178      HOAC     LPO11    LPD     -0.319000       0.00000          -1   0.00000       0.00000    
     14286 HOAC     178      HOAC     LPO12    LPD     -0.319000       0.00000          -1   0.00000       0.00000    
     14287 HOAC     178      HOAC     LPO21    LPD     -0.285000       0.00000          -1   0.00000       0.00000    
     14288 HOAC     178      HOAC     LPO22    LPD     -0.285000       0.00000          -1   0.00000       0.00000    
     14289 HOAC     179      HOAC     C1       CD2O3A    3.55420       11.6110           0  -1.20700      0.708000    
     14290 HOAC     179      HOAC     DC1      DRUD     -2.69620      0.400000           0   0.00000       0.00000    
     14291 HOAC     179      HOAC     C2       CD33C     3.26820       11.6110           0  -2.11400      0.750000    
     14292 HOAC     179      HOAC     DC2      DRUD     -3.56820      0.400000           0   0.00000       0.00000    
     14293 HOAC     179      HOAC     H1       HDA3A    0.920000E-01   1.00800           0   0.00000       0.00000    
     14294 HOAC     179      HOAC     H2       HDA3A    0.920000E-01   1.00800           0   0.00000       0.00000    
     14295 HOAC     179      HOAC     H3       HDA3A    0.920000E-01   1.00800           0   0.00000       0.00000    
     14296 HOAC     179      HOAC     O1       OD2C3A    2.35650       15.5994           0 -0.922000       1.53900    
     14297 HOAC     179      HOAC     DO1      DRUD     -2.35650      0.400000           0   0.00000       0.00000    
     14298 HOAC     179      HOAC     O2       OD31F     2.77650       15.5990           0  -1.28000       1.12400    
     14299 HOAC     179      HOAC     DO2      DRUD     -2.77650      0.400000           0   0.00000       0.00000    
     14300 HOAC     179      HOAC     H        HDP1A    0.374000       1.00800           0   0.00000       0.00000    
     14301 HOAC     179      HOAC     LPO11    LPD     -0.319000       0.00000          -1   0.00000       0.00000    
     14302 HOAC     179      HOAC     LPO12    LPD     -0.319000       0.00000          -1   0.00000       0.00000    
     14303 HOAC     179      HOAC     LPO21    LPD     -0.285000       0.00000          -1   0.00000       0.00000    
     14304 HOAC     179      HOAC     LPO22    LPD     -0.285000       0.00000          -1   0.00000       0.00000    
     14305 HOAC     180      HOAC     C1       CD2O3A    3.55420       11.6110           0  -1.20700      0.708000    
     14306 HOAC     180      HOAC     DC1      DRUD     -2.69620      0.400000           0   0.00000       0.00000    
     14307 HOAC     180      HOAC     C2       CD33C     3.26820       11.6110           0  -2.11400      0.750000    
     14308 HOAC     180      HOAC     DC2      DRUD     -3.56820      0.400000           0   0.00000       0.00000    
     14309 HOAC     180      HOAC     H1       HDA3A    0.920000E-01   1.00800           0   0.00000       0.00000    
     14310 HOAC     180      HOAC     H2       HDA3A    0.920000E-01   1.00800           0   0.00000       0.00000    
     14311 HOAC     180      HOAC     H3       HDA3A    0.920000E-01   1.00800           0   0.00000       0.00000    
     14312 HOAC     180      HOAC     O1       OD2C3A    2.35650       15.5994           0 -0.922000       1.53900    
     14313 HOAC     180      HOAC     DO1      DRUD     -2.35650      0.400000           0   0.00000       0.00000    
     14314 HOAC     180      HOAC     O2       OD31F     2.77650       15.5990           0  -1.28000       1.12400    
     14315 HOAC     180      HOAC     DO2      DRUD     -2.77650      0.400000           0   0.00000       0.00000    
     14316 HOAC     180      HOAC     H        HDP1A    0.374000       1.00800           0   0.00000       0.00000    
     14317 HOAC     180      HOAC     LPO11    LPD     -0.319000       0.00000          -1   0.00000       0.00000    
     14318 HOAC     180      HOAC     LPO12    LPD     -0.319000       0.00000          -1   0.00000       0.00000    
     14319 HOAC     180      HOAC     LPO21    LPD     -0.285000       0.00000          -1   0.00000       0.00000    
     14320 HOAC     180      HOAC     LPO22    LPD     -0.285000       0.00000          -1   0.00000       0.00000    
     14321 HOAC     181      HOAC     C1       CD2O3A    3.55420       11.6110           0  -1.20700      0.708000    
     14322 HOAC     181      HOAC     DC1      DRUD     -2.69620      0.400000           0   0.00000       0.00000    
     14323 HOAC     181      HOAC     C2       CD33C     3.26820       11.6110           0  -2.11400      0.750000    
     14324 HOAC     181      HOAC     DC2      DRUD     -3.56820      0.400000           0   0.00000       0.00000    
     14325 HOAC     181      HOAC     H1       HDA3A    0.920000E-01   1.00800           0   0.00000       0.00000    
     14326 HOAC     181      HOAC     H2       HDA3A    0.920000E-01   1.00800           0   0.00000       0.00000    
     14327 HOAC     181      HOAC     H3       HDA3A    0.920000E-01   1.00800           0   0.00000       0.00000    
     14328 HOAC     181      HOAC     O1       OD2C3A    2.35650       15.5994           0 -0.922000       1.53900    
     14329 HOAC     181      HOAC     DO1      DRUD     -2.35650      0.400000           0   0.00000       0.00000    
     14330 HOAC     181      HOAC     O2       OD31F     2.77650       15.5990           0  -1.28000       1.12400    
     14331 HOAC     181      HOAC     DO2      DRUD     -2.77650      0.400000           0   0.00000       0.00000    
     14332 HOAC     181      HOAC     H        HDP1A    0.374000       1.00800           0   0.00000       0.00000    
     14333 HOAC     181      HOAC     LPO11    LPD     -0.319000       0.00000          -1   0.00000       0.00000    
     14334 HOAC     181      HOAC     LPO12    LPD     -0.319000       0.00000          -1   0.00000       0.00000    
     14335 HOAC     181      HOAC     LPO21    LPD     -0.285000       0.00000          -1   0.00000       0.00000    
     14336 HOAC     181      HOAC     LPO22    LPD     -0.285000       0.00000          -1   0.00000       0.00000    
     14337 HOAC     182      HOAC     C1       CD2O3A    3.55420       11.6110           0  -1.20700      0.708000    
     14338 HOAC     182      HOAC     DC1      DRUD     -2.69620      0.400000           0   0.00000       0.00000    
     14339 HOAC     182      HOAC     C2       CD33C     3.26820       11.6110           0  -2.11400      0.750000    
     14340 HOAC     182      HOAC     DC2      DRUD     -3.56820      0.400000           0   0.00000       0.00000    
     14341 HOAC     182      HOAC     H1       HDA3A    0.920000E-01   1.00800           0   0.00000       0.00000    
     14342 HOAC     182      HOAC     H2       HDA3A    0.920000E-01   1.00800           0   0.00000       0.00000    
     14343 HOAC     182      HOAC     H3       HDA3A    0.920000E-01   1.00800           0   0.00000       0.00000    
     14344 HOAC     182      HOAC     O1       OD2C3A    2.35650       15.5994           0 -0.922000       1.53900    
     14345 HOAC     182      HOAC     DO1      DRUD     -2.35650      0.400000           0   0.00000       0.00000    
     14346 HOAC     182      HOAC     O2       OD31F     2.77650       15.5990           0  -1.28000       1.12400    
     14347 HOAC     182      HOAC     DO2      DRUD     -2.77650      0.400000           0   0.00000       0.00000    
     14348 HOAC     182      HOAC     H        HDP1A    0.374000       1.00800           0   0.00000       0.00000    
     14349 HOAC     182      HOAC     LPO11    LPD     -0.319000       0.00000          -1   0.00000       0.00000    
     14350 HOAC     182      HOAC     LPO12    LPD     -0.319000       0.00000          -1   0.00000       0.00000    
     14351 HOAC     182      HOAC     LPO21    LPD     -0.285000       0.00000          -1   0.00000       0.00000    
     14352 HOAC     182      HOAC     LPO22    LPD     -0.285000       0.00000          -1   0.00000       0.00000    
     14353 HOAC     183      HOAC     C1       CD2O3A    3.55420       11.6110           0  -1.20700      0.708000    
     14354 HOAC     183      HOAC     DC1      DRUD     -2.69620      0.400000           0   0.00000       0.00000    
     14355 HOAC     183      HOAC     C2       CD33C     3.26820       11.6110           0  -2.11400      0.750000    
     14356 HOAC     183      HOAC     DC2      DRUD     -3.56820      0.400000           0   0.00000       0.00000    
     14357 HOAC     183      HOAC     H1       HDA3A    0.920000E-01   1.00800           0   0.00000       0.00000    
     14358 HOAC     183      HOAC     H2       HDA3A    0.920000E-01   1.00800           0   0.00000       0.00000    
     14359 HOAC     183      HOAC     H3       HDA3A    0.920000E-01   1.00800           0   0.00000       0.00000    
     14360 HOAC     183      HOAC     O1       OD2C3A    2.35650       15.5994           0 -0.922000       1.53900    
     14361 HOAC     183      HOAC     DO1      DRUD     -2.35650      0.400000           0   0.00000       0.00000    
     14362 HOAC     183      HOAC     O2       OD31F     2.77650       15.5990           0  -1.28000       1.12400    
     14363 HOAC     183      HOAC     DO2      DRUD     -2.77650      0.400000           0   0.00000       0.00000    
     14364 HOAC     183      HOAC     H        HDP1A    0.374000       1.00800           0   0.00000       0.00000    
     14365 HOAC     183      HOAC     LPO11    LPD     -0.319000       0.00000          -1   0.00000       0.00000    
     14366 HOAC     183      HOAC     LPO12    LPD     -0.319000       0.00000          -1   0.00000       0.00000    
     14367 HOAC     183      HOAC     LPO21    LPD     -0.285000       0.00000          -1   0.00000       0.00000    
     14368 HOAC     183      HOAC     LPO22    LPD     -0.285000       0.00000          -1   0.00000       0.00000    
     14369 HOAC     184      HOAC     C1       CD2O3A    3.55420       11.6110           0  -1.20700      0.708000    
     14370 HOAC     184      HOAC     DC1      DRUD     -2.69620      0.400000           0   0.00000       0.00000    
     14371 HOAC     184      HOAC     C2       CD33C     3.26820       11.6110           0  -2.11400      0.750000    
     14372 HOAC     184      HOAC     DC2      DRUD     -3.56820      0.400000           0   0.00000       0.00000    
     14373 HOAC     184      HOAC     H1       HDA3A    0.920000E-01   1.00800           0   0.00000       0.00000    
     14374 HOAC     184      HOAC     H2       HDA3A    0.920000E-01   1.00800           0   0.00000       0.00000    
     14375 HOAC     184      HOAC     H3       HDA3A    0.920000E-01   1.00800           0   0.00000       0.00000    
     14376 HOAC     184      HOAC     O1       OD2C3A    2.35650       15.5994           0 -0.922000       1.53900    
     14377 HOAC     184      HOAC     DO1      DRUD     -2.35650      0.400000           0   0.00000       0.00000    
     14378 HOAC     184      HOAC     O2       OD31F     2.77650       15.5990           0  -1.28000       1.12400    
     14379 HOAC     184      HOAC     DO2      DRUD     -2.77650      0.400000           0   0.00000       0.00000    
     14380 HOAC     184      HOAC     H        HDP1A    0.374000       1.00800           0   0.00000       0.00000    
     14381 HOAC     184      HOAC     LPO11    LPD     -0.319000       0.00000          -1   0.00000       0.00000    
     14382 HOAC     184      HOAC     LPO12    LPD     -0.319000       0.00000          -1   0.00000       0.00000    
     14383 HOAC     184      HOAC     LPO21    LPD     -0.285000       0.00000          -1   0.00000       0.00000    
     14384 HOAC     184      HOAC     LPO22    LPD     -0.285000       0.00000          -1   0.00000       0.00000    
     14385 HOAC     185      HOAC     C1       CD2O3A    3.55420       11.6110           0  -1.20700      0.708000    
     14386 HOAC     185      HOAC     DC1      DRUD     -2.69620      0.400000           0   0.00000       0.00000    
     14387 HOAC     185      HOAC     C2       CD33C     3.26820       11.6110           0  -2.11400      0.750000    
     14388 HOAC     185      HOAC     DC2      DRUD     -3.56820      0.400000           0   0.00000       0.00000    
     14389 HOAC     185      HOAC     H1       HDA3A    0.920000E-01   1.00800           0   0.00000       0.00000    
     14390 HOAC     185      HOAC     H2       HDA3A    0.920000E-01   1.00800           0   0.00000       0.00000    
     14391 HOAC     185      HOAC     H3       HDA3A    0.920000E-01   1.00800           0   0.00000       0.00000    
     14392 HOAC     185      HOAC     O1       OD2C3A    2.35650       15.5994           0 -0.922000       1.53900    
     14393 HOAC     185      HOAC     DO1      DRUD     -2.35650      0.400000           0   0.00000       0.00000    
     14394 HOAC     185      HOAC     O2       OD31F     2.77650       15.5990           0  -1.28000       1.12400    
     14395 HOAC     185      HOAC     DO2      DRUD     -2.77650      0.400000           0   0.00000       0.00000    
     14396 HOAC     185      HOAC     H        HDP1A    0.374000       1.00800           0   0.00000       0.00000    
     14397 HOAC     185      HOAC     LPO11    LPD     -0.319000       0.00000          -1   0.00000       0.00000    
     14398 HOAC     185      HOAC     LPO12    LPD     -0.319000       0.00000          -1   0.00000       0.00000    
     14399 HOAC     185      HOAC     LPO21    LPD     -0.285000       0.00000          -1   0.00000       0.00000    
     14400 HOAC     185      HOAC     LPO22    LPD     -0.285000       0.00000          -1   0.00000       0.00000    
     14401 HOAC     186      HOAC     C1       CD2O3A    3.55420       11.6110           0  -1.20700      0.708000    
     14402 HOAC     186      HOAC     DC1      DRUD     -2.69620      0.400000           0   0.00000       0.00000    
     14403 HOAC     186      HOAC     C2       CD33C     3.26820       11.6110           0  -2.11400      0.750000    
     14404 HOAC     186      HOAC     DC2      DRUD     -3.56820      0.400000           0   0.00000       0.00000    
     14405 HOAC     186      HOAC     H1       HDA3A    0.920000E-01   1.00800           0   0.00000       0.00000    
     14406 HOAC     186      HOAC     H2       HDA3A    0.920000E-01   1.00800           0   0.00000       0.00000    
     14407 HOAC     186      HOAC     H3       HDA3A    0.920000E-01   1.00800           0   0.00000       0.00000    
     14408 HOAC     186      HOAC     O1       OD2C3A    2.35650       15.5994           0 -0.922000       1.53900    
     14409 HOAC     186      HOAC     DO1      DRUD     -2.35650      0.400000           0   0.00000       0.00000    
     14410 HOAC     186      HOAC     O2       OD31F     2.77650       15.5990           0  -1.28000       1.12400    
     14411 HOAC     186      HOAC     DO2      DRUD     -2.77650      0.400000           0   0.00000       0.00000    
     14412 HOAC     186      HOAC     H        HDP1A    0.374000       1.00800           0   0.00000       0.00000    
     14413 HOAC     186      HOAC     LPO11    LPD     -0.319000       0.00000          -1   0.00000       0.00000    
     14414 HOAC     186      HOAC     LPO12    LPD     -0.319000       0.00000          -1   0.00000       0.00000    
     14415 HOAC     186      HOAC     LPO21    LPD     -0.285000       0.00000          -1   0.00000       0.00000    
     14416 HOAC     186      HOAC     LPO22    LPD     -0.285000       0.00000          -1   0.00000       0.00000    
     14417 HOAC     187      HOAC     C1       CD2O3A    3.55420       11.6110           0  -1.20700      0.708000    
     14418 HOAC     187      HOAC     DC1      DRUD     -2.69620      0.400000           0   0.00000       0.00000    
     14419 HOAC     187      HOAC     C2       CD33C     3.26820       11.6110           0  -2.11400      0.750000    
     14420 HOAC     187      HOAC     DC2      DRUD     -3.56820      0.400000           0   0.00000       0.00000    
     14421 HOAC     187      HOAC     H1       HDA3A    0.920000E-01   1.00800           0   0.00000       0.00000    
     14422 HOAC     187      HOAC     H2       HDA3A    0.920000E-01   1.00800           0   0.00000       0.00000    
     14423 HOAC     187      HOAC     H3       HDA3A    0.920000E-01   1.00800           0   0.00000       0.00000    
     14424 HOAC     187      HOAC     O1       OD2C3A    2.35650       15.5994           0 -0.922000       1.53900    
     14425 HOAC     187      HOAC     DO1      DRUD     -2.35650      0.400000           0   0.00000       0.00000    
     14426 HOAC     187      HOAC     O2       OD31F     2.77650       15.5990           0  -1.28000       1.12400    
     14427 HOAC     187      HOAC     DO2      DRUD     -2.77650      0.400000           0   0.00000       0.00000    
     14428 HOAC     187      HOAC     H        HDP1A    0.374000       1.00800           0   0.00000       0.00000    
     14429 HOAC     187      HOAC     LPO11    LPD     -0.319000       0.00000          -1   0.00000       0.00000    
     14430 HOAC     187      HOAC     LPO12    LPD     -0.319000       0.00000          -1   0.00000       0.00000    
     14431 HOAC     187      HOAC     LPO21    LPD     -0.285000       0.00000          -1   0.00000       0.00000    
     14432 HOAC     187      HOAC     LPO22    LPD     -0.285000       0.00000          -1   0.00000       0.00000    
     14433 HOAC     188      HOAC     C1       CD2O3A    3.55420       11.6110           0  -1.20700      0.708000    
     14434 HOAC     188      HOAC     DC1      DRUD     -2.69620      0.400000           0   0.00000       0.00000    
     14435 HOAC     188      HOAC     C2       CD33C     3.26820       11.6110           0  -2.11400      0.750000    
     14436 HOAC     188      HOAC     DC2      DRUD     -3.56820      0.400000           0   0.00000       0.00000    
     14437 HOAC     188      HOAC     H1       HDA3A    0.920000E-01   1.00800           0   0.00000       0.00000    
     14438 HOAC     188      HOAC     H2       HDA3A    0.920000E-01   1.00800           0   0.00000       0.00000    
     14439 HOAC     188      HOAC     H3       HDA3A    0.920000E-01   1.00800           0   0.00000       0.00000    
     14440 HOAC     188      HOAC     O1       OD2C3A    2.35650       15.5994           0 -0.922000       1.53900    
     14441 HOAC     188      HOAC     DO1      DRUD     -2.35650      0.400000           0   0.00000       0.00000    
     14442 HOAC     188      HOAC     O2       OD31F     2.77650       15.5990           0  -1.28000       1.12400    
     14443 HOAC     188      HOAC     DO2      DRUD     -2.77650      0.400000           0   0.00000       0.00000    
     14444 HOAC     188      HOAC     H        HDP1A    0.374000       1.00800           0   0.00000       0.00000    
     14445 HOAC     188      HOAC     LPO11    LPD     -0.319000       0.00000          -1   0.00000       0.00000    
     14446 HOAC     188      HOAC     LPO12    LPD     -0.319000       0.00000          -1   0.00000       0.00000    
     14447 HOAC     188      HOAC     LPO21    LPD     -0.285000       0.00000          -1   0.00000       0.00000    
     14448 HOAC     188      HOAC     LPO22    LPD     -0.285000       0.00000          -1   0.00000       0.00000    
     14449 HOAC     189      HOAC     C1       CD2O3A    3.55420       11.6110           0  -1.20700      0.708000    
     14450 HOAC     189      HOAC     DC1      DRUD     -2.69620      0.400000           0   0.00000       0.00000    
     14451 HOAC     189      HOAC     C2       CD33C     3.26820       11.6110           0  -2.11400      0.750000    
     14452 HOAC     189      HOAC     DC2      DRUD     -3.56820      0.400000           0   0.00000       0.00000    
     14453 HOAC     189      HOAC     H1       HDA3A    0.920000E-01   1.00800           0   0.00000       0.00000    
     14454 HOAC     189      HOAC     H2       HDA3A    0.920000E-01   1.00800           0   0.00000       0.00000    
     14455 HOAC     189      HOAC     H3       HDA3A    0.920000E-01   1.00800           0   0.00000       0.00000    
     14456 HOAC     189      HOAC     O1       OD2C3A    2.35650       15.5994           0 -0.922000       1.53900    
     14457 HOAC     189      HOAC     DO1      DRUD     -2.35650      0.400000           0   0.00000       0.00000    
     14458 HOAC     189      HOAC     O2       OD31F     2.77650       15.5990           0  -1.28000       1.12400    
     14459 HOAC     189      HOAC     DO2      DRUD     -2.77650      0.400000           0   0.00000       0.00000    
     14460 HOAC     189      HOAC     H        HDP1A    0.374000       1.00800           0   0.00000       0.00000    
     14461 HOAC     189      HOAC     LPO11    LPD     -0.319000       0.00000          -1   0.00000       0.00000    
     14462 HOAC     189      HOAC     LPO12    LPD     -0.319000       0.00000          -1   0.00000       0.00000    
     14463 HOAC     189      HOAC     LPO21    LPD     -0.285000       0.00000          -1   0.00000       0.00000    
     14464 HOAC     189      HOAC     LPO22    LPD     -0.285000       0.00000          -1   0.00000       0.00000    
     14465 HOAC     190      HOAC     C1       CD2O3A    3.55420       11.6110           0  -1.20700      0.708000    
     14466 HOAC     190      HOAC     DC1      DRUD     -2.69620      0.400000           0   0.00000       0.00000    
     14467 HOAC     190      HOAC     C2       CD33C     3.26820       11.6110           0  -2.11400      0.750000    
     14468 HOAC     190      HOAC     DC2      DRUD     -3.56820      0.400000           0   0.00000       0.00000    
     14469 HOAC     190      HOAC     H1       HDA3A    0.920000E-01   1.00800           0   0.00000       0.00000    
     14470 HOAC     190      HOAC     H2       HDA3A    0.920000E-01   1.00800           0   0.00000       0.00000    
     14471 HOAC     190      HOAC     H3       HDA3A    0.920000E-01   1.00800           0   0.00000       0.00000    
     14472 HOAC     190      HOAC     O1       OD2C3A    2.35650       15.5994           0 -0.922000       1.53900    
     14473 HOAC     190      HOAC     DO1      DRUD     -2.35650      0.400000           0   0.00000       0.00000    
     14474 HOAC     190      HOAC     O2       OD31F     2.77650       15.5990           0  -1.28000       1.12400    
     14475 HOAC     190      HOAC     DO2      DRUD     -2.77650      0.400000           0   0.00000       0.00000    
     14476 HOAC     190      HOAC     H        HDP1A    0.374000       1.00800           0   0.00000       0.00000    
     14477 HOAC     190      HOAC     LPO11    LPD     -0.319000       0.00000          -1   0.00000       0.00000    
     14478 HOAC     190      HOAC     LPO12    LPD     -0.319000       0.00000          -1   0.00000       0.00000    
     14479 HOAC     190      HOAC     LPO21    LPD     -0.285000       0.00000          -1   0.00000       0.00000    
     14480 HOAC     190      HOAC     LPO22    LPD     -0.285000       0.00000          -1   0.00000       0.00000    
     14481 HOAC     191      HOAC     C1       CD2O3A    3.55420       11.6110           0  -1.20700      0.708000    
     14482 HOAC     191      HOAC     DC1      DRUD     -2.69620      0.400000           0   0.00000       0.00000    
     14483 HOAC     191      HOAC     C2       CD33C     3.26820       11.6110           0  -2.11400      0.750000    
     14484 HOAC     191      HOAC     DC2      DRUD     -3.56820      0.400000           0   0.00000       0.00000    
     14485 HOAC     191      HOAC     H1       HDA3A    0.920000E-01   1.00800           0   0.00000       0.00000    
     14486 HOAC     191      HOAC     H2       HDA3A    0.920000E-01   1.00800           0   0.00000       0.00000    
     14487 HOAC     191      HOAC     H3       HDA3A    0.920000E-01   1.00800           0   0.00000       0.00000    
     14488 HOAC     191      HOAC     O1       OD2C3A    2.35650       15.5994           0 -0.922000       1.53900    
     14489 HOAC     191      HOAC     DO1      DRUD     -2.35650      0.400000           0   0.00000       0.00000    
     14490 HOAC     191      HOAC     O2       OD31F     2.77650       15.5990           0  -1.28000       1.12400    
     14491 HOAC     191      HOAC     DO2      DRUD     -2.77650      0.400000           0   0.00000       0.00000    
     14492 HOAC     191      HOAC     H        HDP1A    0.374000       1.00800           0   0.00000       0.00000    
     14493 HOAC     191      HOAC     LPO11    LPD     -0.319000       0.00000          -1   0.00000       0.00000    
     14494 HOAC     191      HOAC     LPO12    LPD     -0.319000       0.00000          -1   0.00000       0.00000    
     14495 HOAC     191      HOAC     LPO21    LPD     -0.285000       0.00000          -1   0.00000       0.00000    
     14496 HOAC     191      HOAC     LPO22    LPD     -0.285000       0.00000          -1   0.00000       0.00000    
     14497 HOAC     192      HOAC     C1       CD2O3A    3.55420       11.6110           0  -1.20700      0.708000    
     14498 HOAC     192      HOAC     DC1      DRUD     -2.69620      0.400000           0   0.00000       0.00000    
     14499 HOAC     192      HOAC     C2       CD33C     3.26820       11.6110           0  -2.11400      0.750000    
     14500 HOAC     192      HOAC     DC2      DRUD     -3.56820      0.400000           0   0.00000       0.00000    
     14501 HOAC     192      HOAC     H1       HDA3A    0.920000E-01   1.00800           0   0.00000       0.00000    
     14502 HOAC     192      HOAC     H2       HDA3A    0.920000E-01   1.00800           0   0.00000       0.00000    
     14503 HOAC     192      HOAC     H3       HDA3A    0.920000E-01   1.00800           0   0.00000       0.00000    
     14504 HOAC     192      HOAC     O1       OD2C3A    2.35650       15.5994           0 -0.922000       1.53900    
     14505 HOAC     192      HOAC     DO1      DRUD     -2.35650      0.400000           0   0.00000       0.00000    
     14506 HOAC     192      HOAC     O2       OD31F     2.77650       15.5990           0  -1.28000       1.12400    
     14507 HOAC     192      HOAC     DO2      DRUD     -2.77650      0.400000           0   0.00000       0.00000    
     14508 HOAC     192      HOAC     H        HDP1A    0.374000       1.00800           0   0.00000       0.00000    
     14509 HOAC     192      HOAC     LPO11    LPD     -0.319000       0.00000          -1   0.00000       0.00000    
     14510 HOAC     192      HOAC     LPO12    LPD     -0.319000       0.00000          -1   0.00000       0.00000    
     14511 HOAC     192      HOAC     LPO21    LPD     -0.285000       0.00000          -1   0.00000       0.00000    
     14512 HOAC     192      HOAC     LPO22    LPD     -0.285000       0.00000          -1   0.00000       0.00000    
     14513 HOAC     193      HOAC     C1       CD2O3A    3.55420       11.6110           0  -1.20700      0.708000    
     14514 HOAC     193      HOAC     DC1      DRUD     -2.69620      0.400000           0   0.00000       0.00000    
     14515 HOAC     193      HOAC     C2       CD33C     3.26820       11.6110           0  -2.11400      0.750000    
     14516 HOAC     193      HOAC     DC2      DRUD     -3.56820      0.400000           0   0.00000       0.00000    
     14517 HOAC     193      HOAC     H1       HDA3A    0.920000E-01   1.00800           0   0.00000       0.00000    
     14518 HOAC     193      HOAC     H2       HDA3A    0.920000E-01   1.00800           0   0.00000       0.00000    
     14519 HOAC     193      HOAC     H3       HDA3A    0.920000E-01   1.00800           0   0.00000       0.00000    
     14520 HOAC     193      HOAC     O1       OD2C3A    2.35650       15.5994           0 -0.922000       1.53900    
     14521 HOAC     193      HOAC     DO1      DRUD     -2.35650      0.400000           0   0.00000       0.00000    
     14522 HOAC     193      HOAC     O2       OD31F     2.77650       15.5990           0  -1.28000       1.12400    
     14523 HOAC     193      HOAC     DO2      DRUD     -2.77650      0.400000           0   0.00000       0.00000    
     14524 HOAC     193      HOAC     H        HDP1A    0.374000       1.00800           0   0.00000       0.00000    
     14525 HOAC     193      HOAC     LPO11    LPD     -0.319000       0.00000          -1   0.00000       0.00000    
     14526 HOAC     193      HOAC     LPO12    LPD     -0.319000       0.00000          -1   0.00000       0.00000    
     14527 HOAC     193      HOAC     LPO21    LPD     -0.285000       0.00000          -1   0.00000       0.00000    
     14528 HOAC     193      HOAC     LPO22    LPD     -0.285000       0.00000          -1   0.00000       0.00000    
     14529 HOAC     194      HOAC     C1       CD2O3A    3.55420       11.6110           0  -1.20700      0.708000    
     14530 HOAC     194      HOAC     DC1      DRUD     -2.69620      0.400000           0   0.00000       0.00000    
     14531 HOAC     194      HOAC     C2       CD33C     3.26820       11.6110           0  -2.11400      0.750000    
     14532 HOAC     194      HOAC     DC2      DRUD     -3.56820      0.400000           0   0.00000       0.00000    
     14533 HOAC     194      HOAC     H1       HDA3A    0.920000E-01   1.00800           0   0.00000       0.00000    
     14534 HOAC     194      HOAC     H2       HDA3A    0.920000E-01   1.00800           0   0.00000       0.00000    
     14535 HOAC     194      HOAC     H3       HDA3A    0.920000E-01   1.00800           0   0.00000       0.00000    
     14536 HOAC     194      HOAC     O1       OD2C3A    2.35650       15.5994           0 -0.922000       1.53900    
     14537 HOAC     194      HOAC     DO1      DRUD     -2.35650      0.400000           0   0.00000       0.00000    
     14538 HOAC     194      HOAC     O2       OD31F     2.77650       15.5990           0  -1.28000       1.12400    
     14539 HOAC     194      HOAC     DO2      DRUD     -2.77650      0.400000           0   0.00000       0.00000    
     14540 HOAC     194      HOAC     H        HDP1A    0.374000       1.00800           0   0.00000       0.00000    
     14541 HOAC     194      HOAC     LPO11    LPD     -0.319000       0.00000          -1   0.00000       0.00000    
     14542 HOAC     194      HOAC     LPO12    LPD     -0.319000       0.00000          -1   0.00000       0.00000    
     14543 HOAC     194      HOAC     LPO21    LPD     -0.285000       0.00000          -1   0.00000       0.00000    
     14544 HOAC     194      HOAC     LPO22    LPD     -0.285000       0.00000          -1   0.00000       0.00000    
     14545 HOAC     195      HOAC     C1       CD2O3A    3.55420       11.6110           0  -1.20700      0.708000    
     14546 HOAC     195      HOAC     DC1      DRUD     -2.69620      0.400000           0   0.00000       0.00000    
     14547 HOAC     195      HOAC     C2       CD33C     3.26820       11.6110           0  -2.11400      0.750000    
     14548 HOAC     195      HOAC     DC2      DRUD     -3.56820      0.400000           0   0.00000       0.00000    
     14549 HOAC     195      HOAC     H1       HDA3A    0.920000E-01   1.00800           0   0.00000       0.00000    
     14550 HOAC     195      HOAC     H2       HDA3A    0.920000E-01   1.00800           0   0.00000       0.00000    
     14551 HOAC     195      HOAC     H3       HDA3A    0.920000E-01   1.00800           0   0.00000       0.00000    
     14552 HOAC     195      HOAC     O1       OD2C3A    2.35650       15.5994           0 -0.922000       1.53900    
     14553 HOAC     195      HOAC     DO1      DRUD     -2.35650      0.400000           0   0.00000       0.00000    
     14554 HOAC     195      HOAC     O2       OD31F     2.77650       15.5990           0  -1.28000       1.12400    
     14555 HOAC     195      HOAC     DO2      DRUD     -2.77650      0.400000           0   0.00000       0.00000    
     14556 HOAC     195      HOAC     H        HDP1A    0.374000       1.00800           0   0.00000       0.00000    
     14557 HOAC     195      HOAC     LPO11    LPD     -0.319000       0.00000          -1   0.00000       0.00000    
     14558 HOAC     195      HOAC     LPO12    LPD     -0.319000       0.00000          -1   0.00000       0.00000    
     14559 HOAC     195      HOAC     LPO21    LPD     -0.285000       0.00000          -1   0.00000       0.00000    
     14560 HOAC     195      HOAC     LPO22    LPD     -0.285000       0.00000          -1   0.00000       0.00000    
     14561 HOAC     196      HOAC     C1       CD2O3A    3.55420       11.6110           0  -1.20700      0.708000    
     14562 HOAC     196      HOAC     DC1      DRUD     -2.69620      0.400000           0   0.00000       0.00000    
     14563 HOAC     196      HOAC     C2       CD33C     3.26820       11.6110           0  -2.11400      0.750000    
     14564 HOAC     196      HOAC     DC2      DRUD     -3.56820      0.400000           0   0.00000       0.00000    
     14565 HOAC     196      HOAC     H1       HDA3A    0.920000E-01   1.00800           0   0.00000       0.00000    
     14566 HOAC     196      HOAC     H2       HDA3A    0.920000E-01   1.00800           0   0.00000       0.00000    
     14567 HOAC     196      HOAC     H3       HDA3A    0.920000E-01   1.00800           0   0.00000       0.00000    
     14568 HOAC     196      HOAC     O1       OD2C3A    2.35650       15.5994           0 -0.922000       1.53900    
     14569 HOAC     196      HOAC     DO1      DRUD     -2.35650      0.400000           0   0.00000       0.00000    
     14570 HOAC     196      HOAC     O2       OD31F     2.77650       15.5990           0  -1.28000       1.12400    
     14571 HOAC     196      HOAC     DO2      DRUD     -2.77650      0.400000           0   0.00000       0.00000    
     14572 HOAC     196      HOAC     H        HDP1A    0.374000       1.00800           0   0.00000       0.00000    
     14573 HOAC     196      HOAC     LPO11    LPD     -0.319000       0.00000          -1   0.00000       0.00000    
     14574 HOAC     196      HOAC     LPO12    LPD     -0.319000       0.00000          -1   0.00000       0.00000    
     14575 HOAC     196      HOAC     LPO21    LPD     -0.285000       0.00000          -1   0.00000       0.00000    
     14576 HOAC     196      HOAC     LPO22    LPD     -0.285000       0.00000          -1   0.00000       0.00000    
     14577 HOAC     197      HOAC     C1       CD2O3A    3.55420       11.6110           0  -1.20700      0.708000    
     14578 HOAC     197      HOAC     DC1      DRUD     -2.69620      0.400000           0   0.00000       0.00000    
     14579 HOAC     197      HOAC     C2       CD33C     3.26820       11.6110           0  -2.11400      0.750000    
     14580 HOAC     197      HOAC     DC2      DRUD     -3.56820      0.400000           0   0.00000       0.00000    
     14581 HOAC     197      HOAC     H1       HDA3A    0.920000E-01   1.00800           0   0.00000       0.00000    
     14582 HOAC     197      HOAC     H2       HDA3A    0.920000E-01   1.00800           0   0.00000       0.00000    
     14583 HOAC     197      HOAC     H3       HDA3A    0.920000E-01   1.00800           0   0.00000       0.00000    
     14584 HOAC     197      HOAC     O1       OD2C3A    2.35650       15.5994           0 -0.922000       1.53900    
     14585 HOAC     197      HOAC     DO1      DRUD     -2.35650      0.400000           0   0.00000       0.00000    
     14586 HOAC     197      HOAC     O2       OD31F     2.77650       15.5990           0  -1.28000       1.12400    
     14587 HOAC     197      HOAC     DO2      DRUD     -2.77650      0.400000           0   0.00000       0.00000    
     14588 HOAC     197      HOAC     H        HDP1A    0.374000       1.00800           0   0.00000       0.00000    
     14589 HOAC     197      HOAC     LPO11    LPD     -0.319000       0.00000          -1   0.00000       0.00000    
     14590 HOAC     197      HOAC     LPO12    LPD     -0.319000       0.00000          -1   0.00000       0.00000    
     14591 HOAC     197      HOAC     LPO21    LPD     -0.285000       0.00000          -1   0.00000       0.00000    
     14592 HOAC     197      HOAC     LPO22    LPD     -0.285000       0.00000          -1   0.00000       0.00000    
     14593 HOAC     198      HOAC     C1       CD2O3A    3.55420       11.6110           0  -1.20700      0.708000    
     14594 HOAC     198      HOAC     DC1      DRUD     -2.69620      0.400000           0   0.00000       0.00000    
     14595 HOAC     198      HOAC     C2       CD33C     3.26820       11.6110           0  -2.11400      0.750000    
     14596 HOAC     198      HOAC     DC2      DRUD     -3.56820      0.400000           0   0.00000       0.00000    
     14597 HOAC     198      HOAC     H1       HDA3A    0.920000E-01   1.00800           0   0.00000       0.00000    
     14598 HOAC     198      HOAC     H2       HDA3A    0.920000E-01   1.00800           0   0.00000       0.00000    
     14599 HOAC     198      HOAC     H3       HDA3A    0.920000E-01   1.00800           0   0.00000       0.00000    
     14600 HOAC     198      HOAC     O1       OD2C3A    2.35650       15.5994           0 -0.922000       1.53900    
     14601 HOAC     198      HOAC     DO1      DRUD     -2.35650      0.400000           0   0.00000       0.00000    
     14602 HOAC     198      HOAC     O2       OD31F     2.77650       15.5990           0  -1.28000       1.12400    
     14603 HOAC     198      HOAC     DO2      DRUD     -2.77650      0.400000           0   0.00000       0.00000    
     14604 HOAC     198      HOAC     H        HDP1A    0.374000       1.00800           0   0.00000       0.00000    
     14605 HOAC     198      HOAC     LPO11    LPD     -0.319000       0.00000          -1   0.00000       0.00000    
     14606 HOAC     198      HOAC     LPO12    LPD     -0.319000       0.00000          -1   0.00000       0.00000    
     14607 HOAC     198      HOAC     LPO21    LPD     -0.285000       0.00000          -1   0.00000       0.00000    
     14608 HOAC     198      HOAC     LPO22    LPD     -0.285000       0.00000          -1   0.00000       0.00000    
     14609 HOAC     199      HOAC     C1       CD2O3A    3.55420       11.6110           0  -1.20700      0.708000    
     14610 HOAC     199      HOAC     DC1      DRUD     -2.69620      0.400000           0   0.00000       0.00000    
     14611 HOAC     199      HOAC     C2       CD33C     3.26820       11.6110           0  -2.11400      0.750000    
     14612 HOAC     199      HOAC     DC2      DRUD     -3.56820      0.400000           0   0.00000       0.00000    
     14613 HOAC     199      HOAC     H1       HDA3A    0.920000E-01   1.00800           0   0.00000       0.00000    
     14614 HOAC     199      HOAC     H2       HDA3A    0.920000E-01   1.00800           0   0.00000       0.00000    
     14615 HOAC     199      HOAC     H3       HDA3A    0.920000E-01   1.00800           0   0.00000       0.00000    
     14616 HOAC     199      HOAC     O1       OD2C3A    2.35650       15.5994           0 -0.922000       1.53900    
     14617 HOAC     199      HOAC     DO1      DRUD     -2.35650      0.400000           0   0.00000       0.00000    
     14618 HOAC     199      HOAC     O2       OD31F     2.77650       15.5990           0  -1.28000       1.12400    
     14619 HOAC     199      HOAC     DO2      DRUD     -2.77650      0.400000           0   0.00000       0.00000    
     14620 HOAC     199      HOAC     H        HDP1A    0.374000       1.00800           0   0.00000       0.00000    
     14621 HOAC     199      HOAC     LPO11    LPD     -0.319000       0.00000          -1   0.00000       0.00000    
     14622 HOAC     199      HOAC     LPO12    LPD     -0.319000       0.00000          -1   0.00000       0.00000    
     14623 HOAC     199      HOAC     LPO21    LPD     -0.285000       0.00000          -1   0.00000       0.00000    
     14624 HOAC     199      HOAC     LPO22    LPD     -0.285000       0.00000          -1   0.00000       0.00000    
     14625 HOAC     200      HOAC     C1       CD2O3A    3.55420       11.6110           0  -1.20700      0.708000    
     14626 HOAC     200      HOAC     DC1      DRUD     -2.69620      0.400000           0   0.00000       0.00000    
     14627 HOAC     200      HOAC     C2       CD33C     3.26820       11.6110           0  -2.11400      0.750000    
     14628 HOAC     200      HOAC     DC2      DRUD     -3.56820      0.400000           0   0.00000       0.00000    
     14629 HOAC     200      HOAC     H1       HDA3A    0.920000E-01   1.00800           0   0.00000       0.00000    
     14630 HOAC     200      HOAC     H2       HDA3A    0.920000E-01   1.00800           0   0.00000       0.00000    
     14631 HOAC     200      HOAC     H3       HDA3A    0.920000E-01   1.00800           0   0.00000       0.00000    
     14632 HOAC     200      HOAC     O1       OD2C3A    2.35650       15.5994           0 -0.922000       1.53900    
     14633 HOAC     200      HOAC     DO1      DRUD     -2.35650      0.400000           0   0.00000       0.00000    
     14634 HOAC     200      HOAC     O2       OD31F     2.77650       15.5990           0  -1.28000       1.12400    
     14635 HOAC     200      HOAC     DO2      DRUD     -2.77650      0.400000           0   0.00000       0.00000    
     14636 HOAC     200      HOAC     H        HDP1A    0.374000       1.00800           0   0.00000       0.00000    
     14637 HOAC     200      HOAC     LPO11    LPD     -0.319000       0.00000          -1   0.00000       0.00000    
     14638 HOAC     200      HOAC     LPO12    LPD     -0.319000       0.00000          -1   0.00000       0.00000    
     14639 HOAC     200      HOAC     LPO21    LPD     -0.285000       0.00000          -1   0.00000       0.00000    
     14640 HOAC     200      HOAC     LPO22    LPD     -0.285000       0.00000          -1   0.00000       0.00000    
     14641 HOAC     201      HOAC     C1       CD2O3A    3.55420       11.6110           0  -1.20700      0.708000    
     14642 HOAC     201      HOAC     DC1      DRUD     -2.69620      0.400000           0   0.00000       0.00000    
     14643 HOAC     201      HOAC     C2       CD33C     3.26820       11.6110           0  -2.11400      0.750000    
     14644 HOAC     201      HOAC     DC2      DRUD     -3.56820      0.400000           0   0.00000       0.00000    
     14645 HOAC     201      HOAC     H1       HDA3A    0.920000E-01   1.00800           0   0.00000       0.00000    
     14646 HOAC     201      HOAC     H2       HDA3A    0.920000E-01   1.00800           0   0.00000       0.00000    
     14647 HOAC     201      HOAC     H3       HDA3A    0.920000E-01   1.00800           0   0.00000       0.00000    
     14648 HOAC     201      HOAC     O1       OD2C3A    2.35650       15.5994           0 -0.922000       1.53900    
     14649 HOAC     201      HOAC     DO1      DRUD     -2.35650      0.400000           0   0.00000       0.00000    
     14650 HOAC     201      HOAC     O2       OD31F     2.77650       15.5990           0  -1.28000       1.12400    
     14651 HOAC     201      HOAC     DO2      DRUD     -2.77650      0.400000           0   0.00000       0.00000    
     14652 HOAC     201      HOAC     H        HDP1A    0.374000       1.00800           0   0.00000       0.00000    
     14653 HOAC     201      HOAC     LPO11    LPD     -0.319000       0.00000          -1   0.00000       0.00000    
     14654 HOAC     201      HOAC     LPO12    LPD     -0.319000       0.00000          -1   0.00000       0.00000    
     14655 HOAC     201      HOAC     LPO21    LPD     -0.285000       0.00000          -1   0.00000       0.00000    
     14656 HOAC     201      HOAC     LPO22    LPD     -0.285000       0.00000          -1   0.00000       0.00000    
     14657 HOAC     202      HOAC     C1       CD2O3A    3.55420       11.6110           0  -1.20700      0.708000    
     14658 HOAC     202      HOAC     DC1      DRUD     -2.69620      0.400000           0   0.00000       0.00000    
     14659 HOAC     202      HOAC     C2       CD33C     3.26820       11.6110           0  -2.11400      0.750000    
     14660 HOAC     202      HOAC     DC2      DRUD     -3.56820      0.400000           0   0.00000       0.00000    
     14661 HOAC     202      HOAC     H1       HDA3A    0.920000E-01   1.00800           0   0.00000       0.00000    
     14662 HOAC     202      HOAC     H2       HDA3A    0.920000E-01   1.00800           0   0.00000       0.00000    
     14663 HOAC     202      HOAC     H3       HDA3A    0.920000E-01   1.00800           0   0.00000       0.00000    
     14664 HOAC     202      HOAC     O1       OD2C3A    2.35650       15.5994           0 -0.922000       1.53900    
     14665 HOAC     202      HOAC     DO1      DRUD     -2.35650      0.400000           0   0.00000       0.00000    
     14666 HOAC     202      HOAC     O2       OD31F     2.77650       15.5990           0  -1.28000       1.12400    
     14667 HOAC     202      HOAC     DO2      DRUD     -2.77650      0.400000           0   0.00000       0.00000    
     14668 HOAC     202      HOAC     H        HDP1A    0.374000       1.00800           0   0.00000       0.00000    
     14669 HOAC     202      HOAC     LPO11    LPD     -0.319000       0.00000          -1   0.00000       0.00000    
     14670 HOAC     202      HOAC     LPO12    LPD     -0.319000       0.00000          -1   0.00000       0.00000    
     14671 HOAC     202      HOAC     LPO21    LPD     -0.285000       0.00000          -1   0.00000       0.00000    
     14672 HOAC     202      HOAC     LPO22    LPD     -0.285000       0.00000          -1   0.00000       0.00000    
     14673 HOAC     203      HOAC     C1       CD2O3A    3.55420       11.6110           0  -1.20700      0.708000    
     14674 HOAC     203      HOAC     DC1      DRUD     -2.69620      0.400000           0   0.00000       0.00000    
     14675 HOAC     203      HOAC     C2       CD33C     3.26820       11.6110           0  -2.11400      0.750000    
     14676 HOAC     203      HOAC     DC2      DRUD     -3.56820      0.400000           0   0.00000       0.00000    
     14677 HOAC     203      HOAC     H1       HDA3A    0.920000E-01   1.00800           0   0.00000       0.00000    
     14678 HOAC     203      HOAC     H2       HDA3A    0.920000E-01   1.00800           0   0.00000       0.00000    
     14679 HOAC     203      HOAC     H3       HDA3A    0.920000E-01   1.00800           0   0.00000       0.00000    
     14680 HOAC     203      HOAC     O1       OD2C3A    2.35650       15.5994           0 -0.922000       1.53900    
     14681 HOAC     203      HOAC     DO1      DRUD     -2.35650      0.400000           0   0.00000       0.00000    
     14682 HOAC     203      HOAC     O2       OD31F     2.77650       15.5990           0  -1.28000       1.12400    
     14683 HOAC     203      HOAC     DO2      DRUD     -2.77650      0.400000           0   0.00000       0.00000    
     14684 HOAC     203      HOAC     H        HDP1A    0.374000       1.00800           0   0.00000       0.00000    
     14685 HOAC     203      HOAC     LPO11    LPD     -0.319000       0.00000          -1   0.00000       0.00000    
     14686 HOAC     203      HOAC     LPO12    LPD     -0.319000       0.00000          -1   0.00000       0.00000    
     14687 HOAC     203      HOAC     LPO21    LPD     -0.285000       0.00000          -1   0.00000       0.00000    
     14688 HOAC     203      HOAC     LPO22    LPD     -0.285000       0.00000          -1   0.00000       0.00000    
     14689 HOAC     204      HOAC     C1       CD2O3A    3.55420       11.6110           0  -1.20700      0.708000    
     14690 HOAC     204      HOAC     DC1      DRUD     -2.69620      0.400000           0   0.00000       0.00000    
     14691 HOAC     204      HOAC     C2       CD33C     3.26820       11.6110           0  -2.11400      0.750000    
     14692 HOAC     204      HOAC     DC2      DRUD     -3.56820      0.400000           0   0.00000       0.00000    
     14693 HOAC     204      HOAC     H1       HDA3A    0.920000E-01   1.00800           0   0.00000       0.00000    
     14694 HOAC     204      HOAC     H2       HDA3A    0.920000E-01   1.00800           0   0.00000       0.00000    
     14695 HOAC     204      HOAC     H3       HDA3A    0.920000E-01   1.00800           0   0.00000       0.00000    
     14696 HOAC     204      HOAC     O1       OD2C3A    2.35650       15.5994           0 -0.922000       1.53900    
     14697 HOAC     204      HOAC     DO1      DRUD     -2.35650      0.400000           0   0.00000       0.00000    
     14698 HOAC     204      HOAC     O2       OD31F     2.77650       15.5990           0  -1.28000       1.12400    
     14699 HOAC     204      HOAC     DO2      DRUD     -2.77650      0.400000           0   0.00000       0.00000    
     14700 HOAC     204      HOAC     H        HDP1A    0.374000       1.00800           0   0.00000       0.00000    
     14701 HOAC     204      HOAC     LPO11    LPD     -0.319000       0.00000          -1   0.00000       0.00000    
     14702 HOAC     204      HOAC     LPO12    LPD     -0.319000       0.00000          -1   0.00000       0.00000    
     14703 HOAC     204      HOAC     LPO21    LPD     -0.285000       0.00000          -1   0.00000       0.00000    
     14704 HOAC     204      HOAC     LPO22    LPD     -0.285000       0.00000          -1   0.00000       0.00000    
     14705 HOAC     205      HOAC     C1       CD2O3A    3.55420       11.6110           0  -1.20700      0.708000    
     14706 HOAC     205      HOAC     DC1      DRUD     -2.69620      0.400000           0   0.00000       0.00000    
     14707 HOAC     205      HOAC     C2       CD33C     3.26820       11.6110           0  -2.11400      0.750000    
     14708 HOAC     205      HOAC     DC2      DRUD     -3.56820      0.400000           0   0.00000       0.00000    
     14709 HOAC     205      HOAC     H1       HDA3A    0.920000E-01   1.00800           0   0.00000       0.00000    
     14710 HOAC     205      HOAC     H2       HDA3A    0.920000E-01   1.00800           0   0.00000       0.00000    
     14711 HOAC     205      HOAC     H3       HDA3A    0.920000E-01   1.00800           0   0.00000       0.00000    
     14712 HOAC     205      HOAC     O1       OD2C3A    2.35650       15.5994           0 -0.922000       1.53900    
     14713 HOAC     205      HOAC     DO1      DRUD     -2.35650      0.400000           0   0.00000       0.00000    
     14714 HOAC     205      HOAC     O2       OD31F     2.77650       15.5990           0  -1.28000       1.12400    
     14715 HOAC     205      HOAC     DO2      DRUD     -2.77650      0.400000           0   0.00000       0.00000    
     14716 HOAC     205      HOAC     H        HDP1A    0.374000       1.00800           0   0.00000       0.00000    
     14717 HOAC     205      HOAC     LPO11    LPD     -0.319000       0.00000          -1   0.00000       0.00000    
     14718 HOAC     205      HOAC     LPO12    LPD     -0.319000       0.00000          -1   0.00000       0.00000    
     14719 HOAC     205      HOAC     LPO21    LPD     -0.285000       0.00000          -1   0.00000       0.00000    
     14720 HOAC     205      HOAC     LPO22    LPD     -0.285000       0.00000          -1   0.00000       0.00000    
     14721 HOAC     206      HOAC     C1       CD2O3A    3.55420       11.6110           0  -1.20700      0.708000    
     14722 HOAC     206      HOAC     DC1      DRUD     -2.69620      0.400000           0   0.00000       0.00000    
     14723 HOAC     206      HOAC     C2       CD33C     3.26820       11.6110           0  -2.11400      0.750000    
     14724 HOAC     206      HOAC     DC2      DRUD     -3.56820      0.400000           0   0.00000       0.00000    
     14725 HOAC     206      HOAC     H1       HDA3A    0.920000E-01   1.00800           0   0.00000       0.00000    
     14726 HOAC     206      HOAC     H2       HDA3A    0.920000E-01   1.00800           0   0.00000       0.00000    
     14727 HOAC     206      HOAC     H3       HDA3A    0.920000E-01   1.00800           0   0.00000       0.00000    
     14728 HOAC     206      HOAC     O1       OD2C3A    2.35650       15.5994           0 -0.922000       1.53900    
     14729 HOAC     206      HOAC     DO1      DRUD     -2.35650      0.400000           0   0.00000       0.00000    
     14730 HOAC     206      HOAC     O2       OD31F     2.77650       15.5990           0  -1.28000       1.12400    
     14731 HOAC     206      HOAC     DO2      DRUD     -2.77650      0.400000           0   0.00000       0.00000    
     14732 HOAC     206      HOAC     H        HDP1A    0.374000       1.00800           0   0.00000       0.00000    
     14733 HOAC     206      HOAC     LPO11    LPD     -0.319000       0.00000          -1   0.00000       0.00000    
     14734 HOAC     206      HOAC     LPO12    LPD     -0.319000       0.00000          -1   0.00000       0.00000    
     14735 HOAC     206      HOAC     LPO21    LPD     -0.285000       0.00000          -1   0.00000       0.00000    
     14736 HOAC     206      HOAC     LPO22    LPD     -0.285000       0.00000          -1   0.00000       0.00000    
     14737 HOAC     207      HOAC     C1       CD2O3A    3.55420       11.6110           0  -1.20700      0.708000    
     14738 HOAC     207      HOAC     DC1      DRUD     -2.69620      0.400000           0   0.00000       0.00000    
     14739 HOAC     207      HOAC     C2       CD33C     3.26820       11.6110           0  -2.11400      0.750000    
     14740 HOAC     207      HOAC     DC2      DRUD     -3.56820      0.400000           0   0.00000       0.00000    
     14741 HOAC     207      HOAC     H1       HDA3A    0.920000E-01   1.00800           0   0.00000       0.00000    
     14742 HOAC     207      HOAC     H2       HDA3A    0.920000E-01   1.00800           0   0.00000       0.00000    
     14743 HOAC     207      HOAC     H3       HDA3A    0.920000E-01   1.00800           0   0.00000       0.00000    
     14744 HOAC     207      HOAC     O1       OD2C3A    2.35650       15.5994           0 -0.922000       1.53900    
     14745 HOAC     207      HOAC     DO1      DRUD     -2.35650      0.400000           0   0.00000       0.00000    
     14746 HOAC     207      HOAC     O2       OD31F     2.77650       15.5990           0  -1.28000       1.12400    
     14747 HOAC     207      HOAC     DO2      DRUD     -2.77650      0.400000           0   0.00000       0.00000    
     14748 HOAC     207      HOAC     H        HDP1A    0.374000       1.00800           0   0.00000       0.00000    
     14749 HOAC     207      HOAC     LPO11    LPD     -0.319000       0.00000          -1   0.00000       0.00000    
     14750 HOAC     207      HOAC     LPO12    LPD     -0.319000       0.00000          -1   0.00000       0.00000    
     14751 HOAC     207      HOAC     LPO21    LPD     -0.285000       0.00000          -1   0.00000       0.00000    
     14752 HOAC     207      HOAC     LPO22    LPD     -0.285000       0.00000          -1   0.00000       0.00000    
     14753 HOAC     208      HOAC     C1       CD2O3A    3.55420       11.6110           0  -1.20700      0.708000    
     14754 HOAC     208      HOAC     DC1      DRUD     -2.69620      0.400000           0   0.00000       0.00000    
     14755 HOAC     208      HOAC     C2       CD33C     3.26820       11.6110           0  -2.11400      0.750000    
     14756 HOAC     208      HOAC     DC2      DRUD     -3.56820      0.400000           0   0.00000       0.00000    
     14757 HOAC     208      HOAC     H1       HDA3A    0.920000E-01   1.00800           0   0.00000       0.00000    
     14758 HOAC     208      HOAC     H2       HDA3A    0.920000E-01   1.00800           0   0.00000       0.00000    
     14759 HOAC     208      HOAC     H3       HDA3A    0.920000E-01   1.00800           0   0.00000       0.00000    
     14760 HOAC     208      HOAC     O1       OD2C3A    2.35650       15.5994           0 -0.922000       1.53900    
     14761 HOAC     208      HOAC     DO1      DRUD     -2.35650      0.400000           0   0.00000       0.00000    
     14762 HOAC     208      HOAC     O2       OD31F     2.77650       15.5990           0  -1.28000       1.12400    
     14763 HOAC     208      HOAC     DO2      DRUD     -2.77650      0.400000           0   0.00000       0.00000    
     14764 HOAC     208      HOAC     H        HDP1A    0.374000       1.00800           0   0.00000       0.00000    
     14765 HOAC     208      HOAC     LPO11    LPD     -0.319000       0.00000          -1   0.00000       0.00000    
     14766 HOAC     208      HOAC     LPO12    LPD     -0.319000       0.00000          -1   0.00000       0.00000    
     14767 HOAC     208      HOAC     LPO21    LPD     -0.285000       0.00000          -1   0.00000       0.00000    
     14768 HOAC     208      HOAC     LPO22    LPD     -0.285000       0.00000          -1   0.00000       0.00000    
     14769 HOAC     209      HOAC     C1       CD2O3A    3.55420       11.6110           0  -1.20700      0.708000    
     14770 HOAC     209      HOAC     DC1      DRUD     -2.69620      0.400000           0   0.00000       0.00000    
     14771 HOAC     209      HOAC     C2       CD33C     3.26820       11.6110           0  -2.11400      0.750000    
     14772 HOAC     209      HOAC     DC2      DRUD     -3.56820      0.400000           0   0.00000       0.00000    
     14773 HOAC     209      HOAC     H1       HDA3A    0.920000E-01   1.00800           0   0.00000       0.00000    
     14774 HOAC     209      HOAC     H2       HDA3A    0.920000E-01   1.00800           0   0.00000       0.00000    
     14775 HOAC     209      HOAC     H3       HDA3A    0.920000E-01   1.00800           0   0.00000       0.00000    
     14776 HOAC     209      HOAC     O1       OD2C3A    2.35650       15.5994           0 -0.922000       1.53900    
     14777 HOAC     209      HOAC     DO1      DRUD     -2.35650      0.400000           0   0.00000       0.00000    
     14778 HOAC     209      HOAC     O2       OD31F     2.77650       15.5990           0  -1.28000       1.12400    
     14779 HOAC     209      HOAC     DO2      DRUD     -2.77650      0.400000           0   0.00000       0.00000    
     14780 HOAC     209      HOAC     H        HDP1A    0.374000       1.00800           0   0.00000       0.00000    
     14781 HOAC     209      HOAC     LPO11    LPD     -0.319000       0.00000          -1   0.00000       0.00000    
     14782 HOAC     209      HOAC     LPO12    LPD     -0.319000       0.00000          -1   0.00000       0.00000    
     14783 HOAC     209      HOAC     LPO21    LPD     -0.285000       0.00000          -1   0.00000       0.00000    
     14784 HOAC     209      HOAC     LPO22    LPD     -0.285000       0.00000          -1   0.00000       0.00000    
     14785 HOAC     210      HOAC     C1       CD2O3A    3.55420       11.6110           0  -1.20700      0.708000    
     14786 HOAC     210      HOAC     DC1      DRUD     -2.69620      0.400000           0   0.00000       0.00000    
     14787 HOAC     210      HOAC     C2       CD33C     3.26820       11.6110           0  -2.11400      0.750000    
     14788 HOAC     210      HOAC     DC2      DRUD     -3.56820      0.400000           0   0.00000       0.00000    
     14789 HOAC     210      HOAC     H1       HDA3A    0.920000E-01   1.00800           0   0.00000       0.00000    
     14790 HOAC     210      HOAC     H2       HDA3A    0.920000E-01   1.00800           0   0.00000       0.00000    
     14791 HOAC     210      HOAC     H3       HDA3A    0.920000E-01   1.00800           0   0.00000       0.00000    
     14792 HOAC     210      HOAC     O1       OD2C3A    2.35650       15.5994           0 -0.922000       1.53900    
     14793 HOAC     210      HOAC     DO1      DRUD     -2.35650      0.400000           0   0.00000       0.00000    
     14794 HOAC     210      HOAC     O2       OD31F     2.77650       15.5990           0  -1.28000       1.12400    
     14795 HOAC     210      HOAC     DO2      DRUD     -2.77650      0.400000           0   0.00000       0.00000    
     14796 HOAC     210      HOAC     H        HDP1A    0.374000       1.00800           0   0.00000       0.00000    
     14797 HOAC     210      HOAC     LPO11    LPD     -0.319000       0.00000          -1   0.00000       0.00000    
     14798 HOAC     210      HOAC     LPO12    LPD     -0.319000       0.00000          -1   0.00000       0.00000    
     14799 HOAC     210      HOAC     LPO21    LPD     -0.285000       0.00000          -1   0.00000       0.00000    
     14800 HOAC     210      HOAC     LPO22    LPD     -0.285000       0.00000          -1   0.00000       0.00000    
     14801 TFA      1        TFA      C1       CD2O2A    2.58500       11.6110           0 -0.800000      0.899000    
     14802 TFA      1        TFA      DC1      DRUD     -2.19500      0.400000           0   0.00000       0.00000    
     14803 TFA      1        TFA      C2       CD30A    0.450000       12.0110           0   0.00000       0.00000    
     14804 TFA      1        TFA      F1       FDA3      1.92530       18.5980           0 -0.750000       1.30000    
     14805 TFA      1        TFA      DF1      DRUD     -2.12530      0.400000           0   0.00000       0.00000    
     14806 TFA      1        TFA      F2       FDA3      1.92530       18.5980           0 -0.750000       1.30000    
     14807 TFA      1        TFA      DF2      DRUD     -2.12530      0.400000           0   0.00000       0.00000    
     14808 TFA      1        TFA      F3       FDA3      1.92530       18.5980           0 -0.750000       1.30000    
     14809 TFA      1        TFA      DF3      DRUD     -2.12530      0.400000           0   0.00000       0.00000    
     14810 TFA      1        TFA      O1       OD2C2A    1.45190       15.5994           0 -0.350000       2.39900    
     14811 TFA      1        TFA      DO1      DRUD     -1.45190      0.400000           0   0.00000       0.00000    
     14812 TFA      1        TFA      O2       OD2C2A    1.45190       15.5994           0 -0.350000       2.39900    
     14813 TFA      1        TFA      DO2      DRUD     -1.45190      0.400000           0   0.00000       0.00000    
     14814 TFA      1        TFA      LPO11    LPD     -0.310000       0.00000          -1   0.00000       0.00000    
     14815 TFA      1        TFA      LPO12    LPD     -0.310000       0.00000          -1   0.00000       0.00000    
     14816 TFA      1        TFA      LPO21    LPD     -0.310000       0.00000          -1   0.00000       0.00000    
     14817 TFA      1        TFA      LPO22    LPD     -0.310000       0.00000          -1   0.00000       0.00000    
     14818 TFA      2        TFA      C1       CD2O2A    2.58500       11.6110           0 -0.800000      0.899000    
     14819 TFA      2        TFA      DC1      DRUD     -2.19500      0.400000           0   0.00000       0.00000    
     14820 TFA      2        TFA      C2       CD30A    0.450000       12.0110           0   0.00000       0.00000    
     14821 TFA      2        TFA      F1       FDA3      1.92530       18.5980           0 -0.750000       1.30000    
     14822 TFA      2        TFA      DF1      DRUD     -2.12530      0.400000           0   0.00000       0.00000    
     14823 TFA      2        TFA      F2       FDA3      1.92530       18.5980           0 -0.750000       1.30000    
     14824 TFA      2        TFA      DF2      DRUD     -2.12530      0.400000           0   0.00000       0.00000    
     14825 TFA      2        TFA      F3       FDA3      1.92530       18.5980           0 -0.750000       1.30000    
     14826 TFA      2        TFA      DF3      DRUD     -2.12530      0.400000           0   0.00000       0.00000    
     14827 TFA      2        TFA      O1       OD2C2A    1.45190       15.5994           0 -0.350000       2.39900    
     14828 TFA      2        TFA      DO1      DRUD     -1.45190      0.400000           0   0.00000       0.00000    
     14829 TFA      2        TFA      O2       OD2C2A    1.45190       15.5994           0 -0.350000       2.39900    
     14830 TFA      2        TFA      DO2      DRUD     -1.45190      0.400000           0   0.00000       0.00000    
     14831 TFA      2        TFA      LPO11    LPD     -0.310000       0.00000          -1   0.00000       0.00000    
     14832 TFA      2        TFA      LPO12    LPD     -0.310000       0.00000          -1   0.00000       0.00000    
     14833 TFA      2        TFA      LPO21    LPD     -0.310000       0.00000          -1   0.00000       0.00000    
     14834 TFA      2        TFA      LPO22    LPD     -0.310000       0.00000          -1   0.00000       0.00000    
     14835 TFA      3        TFA      C1       CD2O2A    2.58500       11.6110           0 -0.800000      0.899000    
     14836 TFA      3        TFA      DC1      DRUD     -2.19500      0.400000           0   0.00000       0.00000    
     14837 TFA      3        TFA      C2       CD30A    0.450000       12.0110           0   0.00000       0.00000    
     14838 TFA      3        TFA      F1       FDA3      1.92530       18.5980           0 -0.750000       1.30000    
     14839 TFA      3        TFA      DF1      DRUD     -2.12530      0.400000           0   0.00000       0.00000    
     14840 TFA      3        TFA      F2       FDA3      1.92530       18.5980           0 -0.750000       1.30000    
     14841 TFA      3        TFA      DF2      DRUD     -2.12530      0.400000           0   0.00000       0.00000    
     14842 TFA      3        TFA      F3       FDA3      1.92530       18.5980           0 -0.750000       1.30000    
     14843 TFA      3        TFA      DF3      DRUD     -2.12530      0.400000           0   0.00000       0.00000    
     14844 TFA      3        TFA      O1       OD2C2A    1.45190       15.5994           0 -0.350000       2.39900    
     14845 TFA      3        TFA      DO1      DRUD     -1.45190      0.400000           0   0.00000       0.00000    
     14846 TFA      3        TFA      O2       OD2C2A    1.45190       15.5994           0 -0.350000       2.39900    
     14847 TFA      3        TFA      DO2      DRUD     -1.45190      0.400000           0   0.00000       0.00000    
     14848 TFA      3        TFA      LPO11    LPD     -0.310000       0.00000          -1   0.00000       0.00000    
     14849 TFA      3        TFA      LPO12    LPD     -0.310000       0.00000          -1   0.00000       0.00000    
     14850 TFA      3        TFA      LPO21    LPD     -0.310000       0.00000          -1   0.00000       0.00000    
     14851 TFA      3        TFA      LPO22    LPD     -0.310000       0.00000          -1   0.00000       0.00000    
     14852 TFA      4        TFA      C1       CD2O2A    2.58500       11.6110           0 -0.800000      0.899000    
     14853 TFA      4        TFA      DC1      DRUD     -2.19500      0.400000           0   0.00000       0.00000    
     14854 TFA      4        TFA      C2       CD30A    0.450000       12.0110           0   0.00000       0.00000    
     14855 TFA      4        TFA      F1       FDA3      1.92530       18.5980           0 -0.750000       1.30000    
     14856 TFA      4        TFA      DF1      DRUD     -2.12530      0.400000           0   0.00000       0.00000    
     14857 TFA      4        TFA      F2       FDA3      1.92530       18.5980           0 -0.750000       1.30000    
     14858 TFA      4        TFA      DF2      DRUD     -2.12530      0.400000           0   0.00000       0.00000    
     14859 TFA      4        TFA      F3       FDA3      1.92530       18.5980           0 -0.750000       1.30000    
     14860 TFA      4        TFA      DF3      DRUD     -2.12530      0.400000           0   0.00000       0.00000    
     14861 TFA      4        TFA      O1       OD2C2A    1.45190       15.5994           0 -0.350000       2.39900    
     14862 TFA      4        TFA      DO1      DRUD     -1.45190      0.400000           0   0.00000       0.00000    
     14863 TFA      4        TFA      O2       OD2C2A    1.45190       15.5994           0 -0.350000       2.39900    
     14864 TFA      4        TFA      DO2      DRUD     -1.45190      0.400000           0   0.00000       0.00000    
     14865 TFA      4        TFA      LPO11    LPD     -0.310000       0.00000          -1   0.00000       0.00000    
     14866 TFA      4        TFA      LPO12    LPD     -0.310000       0.00000          -1   0.00000       0.00000    
     14867 TFA      4        TFA      LPO21    LPD     -0.310000       0.00000          -1   0.00000       0.00000    
     14868 TFA      4        TFA      LPO22    LPD     -0.310000       0.00000          -1   0.00000       0.00000    
     14869 TFA      5        TFA      C1       CD2O2A    2.58500       11.6110           0 -0.800000      0.899000    
     14870 TFA      5        TFA      DC1      DRUD     -2.19500      0.400000           0   0.00000       0.00000    
     14871 TFA      5        TFA      C2       CD30A    0.450000       12.0110           0   0.00000       0.00000    
     14872 TFA      5        TFA      F1       FDA3      1.92530       18.5980           0 -0.750000       1.30000    
     14873 TFA      5        TFA      DF1      DRUD     -2.12530      0.400000           0   0.00000       0.00000    
     14874 TFA      5        TFA      F2       FDA3      1.92530       18.5980           0 -0.750000       1.30000    
     14875 TFA      5        TFA      DF2      DRUD     -2.12530      0.400000           0   0.00000       0.00000    
     14876 TFA      5        TFA      F3       FDA3      1.92530       18.5980           0 -0.750000       1.30000    
     14877 TFA      5        TFA      DF3      DRUD     -2.12530      0.400000           0   0.00000       0.00000    
     14878 TFA      5        TFA      O1       OD2C2A    1.45190       15.5994           0 -0.350000       2.39900    
     14879 TFA      5        TFA      DO1      DRUD     -1.45190      0.400000           0   0.00000       0.00000    
     14880 TFA      5        TFA      O2       OD2C2A    1.45190       15.5994           0 -0.350000       2.39900    
     14881 TFA      5        TFA      DO2      DRUD     -1.45190      0.400000           0   0.00000       0.00000    
     14882 TFA      5        TFA      LPO11    LPD     -0.310000       0.00000          -1   0.00000       0.00000    
     14883 TFA      5        TFA      LPO12    LPD     -0.310000       0.00000          -1   0.00000       0.00000    
     14884 TFA      5        TFA      LPO21    LPD     -0.310000       0.00000          -1   0.00000       0.00000    
     14885 TFA      5        TFA      LPO22    LPD     -0.310000       0.00000          -1   0.00000       0.00000    
     14886 TFA      6        TFA      C1       CD2O2A    2.58500       11.6110           0 -0.800000      0.899000    
     14887 TFA      6        TFA      DC1      DRUD     -2.19500      0.400000           0   0.00000       0.00000    
     14888 TFA      6        TFA      C2       CD30A    0.450000       12.0110           0   0.00000       0.00000    
     14889 TFA      6        TFA      F1       FDA3      1.92530       18.5980           0 -0.750000       1.30000    
     14890 TFA      6        TFA      DF1      DRUD     -2.12530      0.400000           0   0.00000       0.00000    
     14891 TFA      6        TFA      F2       FDA3      1.92530       18.5980           0 -0.750000       1.30000    
     14892 TFA      6        TFA      DF2      DRUD     -2.12530      0.400000           0   0.00000       0.00000    
     14893 TFA      6        TFA      F3       FDA3      1.92530       18.5980           0 -0.750000       1.30000    
     14894 TFA      6        TFA      DF3      DRUD     -2.12530      0.400000           0   0.00000       0.00000    
     14895 TFA      6        TFA      O1       OD2C2A    1.45190       15.5994           0 -0.350000       2.39900    
     14896 TFA      6        TFA      DO1      DRUD     -1.45190      0.400000           0   0.00000       0.00000    
     14897 TFA      6        TFA      O2       OD2C2A    1.45190       15.5994           0 -0.350000       2.39900    
     14898 TFA      6        TFA      DO2      DRUD     -1.45190      0.400000           0   0.00000       0.00000    
     14899 TFA      6        TFA      LPO11    LPD     -0.310000       0.00000          -1   0.00000       0.00000    
     14900 TFA      6        TFA      LPO12    LPD     -0.310000       0.00000          -1   0.00000       0.00000    
     14901 TFA      6        TFA      LPO21    LPD     -0.310000       0.00000          -1   0.00000       0.00000    
     14902 TFA      6        TFA      LPO22    LPD     -0.310000       0.00000          -1   0.00000       0.00000    
     14903 TFA      7        TFA      C1       CD2O2A    2.58500       11.6110           0 -0.800000      0.899000    
     14904 TFA      7        TFA      DC1      DRUD     -2.19500      0.400000           0   0.00000       0.00000    
     14905 TFA      7        TFA      C2       CD30A    0.450000       12.0110           0   0.00000       0.00000    
     14906 TFA      7        TFA      F1       FDA3      1.92530       18.5980           0 -0.750000       1.30000    
     14907 TFA      7        TFA      DF1      DRUD     -2.12530      0.400000           0   0.00000       0.00000    
     14908 TFA      7        TFA      F2       FDA3      1.92530       18.5980           0 -0.750000       1.30000    
     14909 TFA      7        TFA      DF2      DRUD     -2.12530      0.400000           0   0.00000       0.00000    
     14910 TFA      7        TFA      F3       FDA3      1.92530       18.5980           0 -0.750000       1.30000    
     14911 TFA      7        TFA      DF3      DRUD     -2.12530      0.400000           0   0.00000       0.00000    
     14912 TFA      7        TFA      O1       OD2C2A    1.45190       15.5994           0 -0.350000       2.39900    
     14913 TFA      7        TFA      DO1      DRUD     -1.45190      0.400000           0   0.00000       0.00000    
     14914 TFA      7        TFA      O2       OD2C2A    1.45190       15.5994           0 -0.350000       2.39900    
     14915 TFA      7        TFA      DO2      DRUD     -1.45190      0.400000           0   0.00000       0.00000    
     14916 TFA      7        TFA      LPO11    LPD     -0.310000       0.00000          -1   0.00000       0.00000    
     14917 TFA      7        TFA      LPO12    LPD     -0.310000       0.00000          -1   0.00000       0.00000    
     14918 TFA      7        TFA      LPO21    LPD     -0.310000       0.00000          -1   0.00000       0.00000    
     14919 TFA      7        TFA      LPO22    LPD     -0.310000       0.00000          -1   0.00000       0.00000    
     14920 TFA      8        TFA      C1       CD2O2A    2.58500       11.6110           0 -0.800000      0.899000    
     14921 TFA      8        TFA      DC1      DRUD     -2.19500      0.400000           0   0.00000       0.00000    
     14922 TFA      8        TFA      C2       CD30A    0.450000       12.0110           0   0.00000       0.00000    
     14923 TFA      8        TFA      F1       FDA3      1.92530       18.5980           0 -0.750000       1.30000    
     14924 TFA      8        TFA      DF1      DRUD     -2.12530      0.400000           0   0.00000       0.00000    
     14925 TFA      8        TFA      F2       FDA3      1.92530       18.5980           0 -0.750000       1.30000    
     14926 TFA      8        TFA      DF2      DRUD     -2.12530      0.400000           0   0.00000       0.00000    
     14927 TFA      8        TFA      F3       FDA3      1.92530       18.5980           0 -0.750000       1.30000    
     14928 TFA      8        TFA      DF3      DRUD     -2.12530      0.400000           0   0.00000       0.00000    
     14929 TFA      8        TFA      O1       OD2C2A    1.45190       15.5994           0 -0.350000       2.39900    
     14930 TFA      8        TFA      DO1      DRUD     -1.45190      0.400000           0   0.00000       0.00000    
     14931 TFA      8        TFA      O2       OD2C2A    1.45190       15.5994           0 -0.350000       2.39900    
     14932 TFA      8        TFA      DO2      DRUD     -1.45190      0.400000           0   0.00000       0.00000    
     14933 TFA      8        TFA      LPO11    LPD     -0.310000       0.00000          -1   0.00000       0.00000    
     14934 TFA      8        TFA      LPO12    LPD     -0.310000       0.00000          -1   0.00000       0.00000    
     14935 TFA      8        TFA      LPO21    LPD     -0.310000       0.00000          -1   0.00000       0.00000    
     14936 TFA      8        TFA      LPO22    LPD     -0.310000       0.00000          -1   0.00000       0.00000    
     14937 TFA      9        TFA      C1       CD2O2A    2.58500       11.6110           0 -0.800000      0.899000    
     14938 TFA      9        TFA      DC1      DRUD     -2.19500      0.400000           0   0.00000       0.00000    
     14939 TFA      9        TFA      C2       CD30A    0.450000       12.0110           0   0.00000       0.00000    
     14940 TFA      9        TFA      F1       FDA3      1.92530       18.5980           0 -0.750000       1.30000    
     14941 TFA      9        TFA      DF1      DRUD     -2.12530      0.400000           0   0.00000       0.00000    
     14942 TFA      9        TFA      F2       FDA3      1.92530       18.5980           0 -0.750000       1.30000    
     14943 TFA      9        TFA      DF2      DRUD     -2.12530      0.400000           0   0.00000       0.00000    
     14944 TFA      9        TFA      F3       FDA3      1.92530       18.5980           0 -0.750000       1.30000    
     14945 TFA      9        TFA      DF3      DRUD     -2.12530      0.400000           0   0.00000       0.00000    
     14946 TFA      9        TFA      O1       OD2C2A    1.45190       15.5994           0 -0.350000       2.39900    
     14947 TFA      9        TFA      DO1      DRUD     -1.45190      0.400000           0   0.00000       0.00000    
     14948 TFA      9        TFA      O2       OD2C2A    1.45190       15.5994           0 -0.350000       2.39900    
     14949 TFA      9        TFA      DO2      DRUD     -1.45190      0.400000           0   0.00000       0.00000    
     14950 TFA      9        TFA      LPO11    LPD     -0.310000       0.00000          -1   0.00000       0.00000    
     14951 TFA      9        TFA      LPO12    LPD     -0.310000       0.00000          -1   0.00000       0.00000    
     14952 TFA      9        TFA      LPO21    LPD     -0.310000       0.00000          -1   0.00000       0.00000    
     14953 TFA      9        TFA      LPO22    LPD     -0.310000       0.00000          -1   0.00000       0.00000    
     14954 TFA      10       TFA      C1       CD2O2A    2.58500       11.6110           0 -0.800000      0.899000    
     14955 TFA      10       TFA      DC1      DRUD     -2.19500      0.400000           0   0.00000       0.00000    
     14956 TFA      10       TFA      C2       CD30A    0.450000       12.0110           0   0.00000       0.00000    
     14957 TFA      10       TFA      F1       FDA3      1.92530       18.5980           0 -0.750000       1.30000    
     14958 TFA      10       TFA      DF1      DRUD     -2.12530      0.400000           0   0.00000       0.00000    
     14959 TFA      10       TFA      F2       FDA3      1.92530       18.5980           0 -0.750000       1.30000    
     14960 TFA      10       TFA      DF2      DRUD     -2.12530      0.400000           0   0.00000       0.00000    
     14961 TFA      10       TFA      F3       FDA3      1.92530       18.5980           0 -0.750000       1.30000    
     14962 TFA      10       TFA      DF3      DRUD     -2.12530      0.400000           0   0.00000       0.00000    
     14963 TFA      10       TFA      O1       OD2C2A    1.45190       15.5994           0 -0.350000       2.39900    
     14964 TFA      10       TFA      DO1      DRUD     -1.45190      0.400000           0   0.00000       0.00000    
     14965 TFA      10       TFA      O2       OD2C2A    1.45190       15.5994           0 -0.350000       2.39900    
     14966 TFA      10       TFA      DO2      DRUD     -1.45190      0.400000           0   0.00000       0.00000    
     14967 TFA      10       TFA      LPO11    LPD     -0.310000       0.00000          -1   0.00000       0.00000    
     14968 TFA      10       TFA      LPO12    LPD     -0.310000       0.00000          -1   0.00000       0.00000    
     14969 TFA      10       TFA      LPO21    LPD     -0.310000       0.00000          -1   0.00000       0.00000    
     14970 TFA      10       TFA      LPO22    LPD     -0.310000       0.00000          -1   0.00000       0.00000    
     14971 TFA      11       TFA      C1       CD2O2A    2.58500       11.6110           0 -0.800000      0.899000    
     14972 TFA      11       TFA      DC1      DRUD     -2.19500      0.400000           0   0.00000       0.00000    
     14973 TFA      11       TFA      C2       CD30A    0.450000       12.0110           0   0.00000       0.00000    
     14974 TFA      11       TFA      F1       FDA3      1.92530       18.5980           0 -0.750000       1.30000    
     14975 TFA      11       TFA      DF1      DRUD     -2.12530      0.400000           0   0.00000       0.00000    
     14976 TFA      11       TFA      F2       FDA3      1.92530       18.5980           0 -0.750000       1.30000    
     14977 TFA      11       TFA      DF2      DRUD     -2.12530      0.400000           0   0.00000       0.00000    
     14978 TFA      11       TFA      F3       FDA3      1.92530       18.5980           0 -0.750000       1.30000    
     14979 TFA      11       TFA      DF3      DRUD     -2.12530      0.400000           0   0.00000       0.00000    
     14980 TFA      11       TFA      O1       OD2C2A    1.45190       15.5994           0 -0.350000       2.39900    
     14981 TFA      11       TFA      DO1      DRUD     -1.45190      0.400000           0   0.00000       0.00000    
     14982 TFA      11       TFA      O2       OD2C2A    1.45190       15.5994           0 -0.350000       2.39900    
     14983 TFA      11       TFA      DO2      DRUD     -1.45190      0.400000           0   0.00000       0.00000    
     14984 TFA      11       TFA      LPO11    LPD     -0.310000       0.00000          -1   0.00000       0.00000    
     14985 TFA      11       TFA      LPO12    LPD     -0.310000       0.00000          -1   0.00000       0.00000    
     14986 TFA      11       TFA      LPO21    LPD     -0.310000       0.00000          -1   0.00000       0.00000    
     14987 TFA      11       TFA      LPO22    LPD     -0.310000       0.00000          -1   0.00000       0.00000    
     14988 TFA      12       TFA      C1       CD2O2A    2.58500       11.6110           0 -0.800000      0.899000    
     14989 TFA      12       TFA      DC1      DRUD     -2.19500      0.400000           0   0.00000       0.00000    
     14990 TFA      12       TFA      C2       CD30A    0.450000       12.0110           0   0.00000       0.00000    
     14991 TFA      12       TFA      F1       FDA3      1.92530       18.5980           0 -0.750000       1.30000    
     14992 TFA      12       TFA      DF1      DRUD     -2.12530      0.400000           0   0.00000       0.00000    
     14993 TFA      12       TFA      F2       FDA3      1.92530       18.5980           0 -0.750000       1.30000    
     14994 TFA      12       TFA      DF2      DRUD     -2.12530      0.400000           0   0.00000       0.00000    
     14995 TFA      12       TFA      F3       FDA3      1.92530       18.5980           0 -0.750000       1.30000    
     14996 TFA      12       TFA      DF3      DRUD     -2.12530      0.400000           0   0.00000       0.00000    
     14997 TFA      12       TFA      O1       OD2C2A    1.45190       15.5994           0 -0.350000       2.39900    
     14998 TFA      12       TFA      DO1      DRUD     -1.45190      0.400000           0   0.00000       0.00000    
     14999 TFA      12       TFA      O2       OD2C2A    1.45190       15.5994           0 -0.350000       2.39900    
     15000 TFA      12       TFA      DO2      DRUD     -1.45190      0.400000           0   0.00000       0.00000    
     15001 TFA      12       TFA      LPO11    LPD     -0.310000       0.00000          -1   0.00000       0.00000    
     15002 TFA      12       TFA      LPO12    LPD     -0.310000       0.00000          -1   0.00000       0.00000    
     15003 TFA      12       TFA      LPO21    LPD     -0.310000       0.00000          -1   0.00000       0.00000    
     15004 TFA      12       TFA      LPO22    LPD     -0.310000       0.00000          -1   0.00000       0.00000    
     15005 TFA      13       TFA      C1       CD2O2A    2.58500       11.6110           0 -0.800000      0.899000    
     15006 TFA      13       TFA      DC1      DRUD     -2.19500      0.400000           0   0.00000       0.00000    
     15007 TFA      13       TFA      C2       CD30A    0.450000       12.0110           0   0.00000       0.00000    
     15008 TFA      13       TFA      F1       FDA3      1.92530       18.5980           0 -0.750000       1.30000    
     15009 TFA      13       TFA      DF1      DRUD     -2.12530      0.400000           0   0.00000       0.00000    
     15010 TFA      13       TFA      F2       FDA3      1.92530       18.5980           0 -0.750000       1.30000    
     15011 TFA      13       TFA      DF2      DRUD     -2.12530      0.400000           0   0.00000       0.00000    
     15012 TFA      13       TFA      F3       FDA3      1.92530       18.5980           0 -0.750000       1.30000    
     15013 TFA      13       TFA      DF3      DRUD     -2.12530      0.400000           0   0.00000       0.00000    
     15014 TFA      13       TFA      O1       OD2C2A    1.45190       15.5994           0 -0.350000       2.39900    
     15015 TFA      13       TFA      DO1      DRUD     -1.45190      0.400000           0   0.00000       0.00000    
     15016 TFA      13       TFA      O2       OD2C2A    1.45190       15.5994           0 -0.350000       2.39900    
     15017 TFA      13       TFA      DO2      DRUD     -1.45190      0.400000           0   0.00000       0.00000    
     15018 TFA      13       TFA      LPO11    LPD     -0.310000       0.00000          -1   0.00000       0.00000    
     15019 TFA      13       TFA      LPO12    LPD     -0.310000       0.00000          -1   0.00000       0.00000    
     15020 TFA      13       TFA      LPO21    LPD     -0.310000       0.00000          -1   0.00000       0.00000    
     15021 TFA      13       TFA      LPO22    LPD     -0.310000       0.00000          -1   0.00000       0.00000    
     15022 TFA      14       TFA      C1       CD2O2A    2.58500       11.6110           0 -0.800000      0.899000    
     15023 TFA      14       TFA      DC1      DRUD     -2.19500      0.400000           0   0.00000       0.00000    
     15024 TFA      14       TFA      C2       CD30A    0.450000       12.0110           0   0.00000       0.00000    
     15025 TFA      14       TFA      F1       FDA3      1.92530       18.5980           0 -0.750000       1.30000    
     15026 TFA      14       TFA      DF1      DRUD     -2.12530      0.400000           0   0.00000       0.00000    
     15027 TFA      14       TFA      F2       FDA3      1.92530       18.5980           0 -0.750000       1.30000    
     15028 TFA      14       TFA      DF2      DRUD     -2.12530      0.400000           0   0.00000       0.00000    
     15029 TFA      14       TFA      F3       FDA3      1.92530       18.5980           0 -0.750000       1.30000    
     15030 TFA      14       TFA      DF3      DRUD     -2.12530      0.400000           0   0.00000       0.00000    
     15031 TFA      14       TFA      O1       OD2C2A    1.45190       15.5994           0 -0.350000       2.39900    
     15032 TFA      14       TFA      DO1      DRUD     -1.45190      0.400000           0   0.00000       0.00000    
     15033 TFA      14       TFA      O2       OD2C2A    1.45190       15.5994           0 -0.350000       2.39900    
     15034 TFA      14       TFA      DO2      DRUD     -1.45190      0.400000           0   0.00000       0.00000    
     15035 TFA      14       TFA      LPO11    LPD     -0.310000       0.00000          -1   0.00000       0.00000    
     15036 TFA      14       TFA      LPO12    LPD     -0.310000       0.00000          -1   0.00000       0.00000    
     15037 TFA      14       TFA      LPO21    LPD     -0.310000       0.00000          -1   0.00000       0.00000    
     15038 TFA      14       TFA      LPO22    LPD     -0.310000       0.00000          -1   0.00000       0.00000    
     15039 TFA      15       TFA      C1       CD2O2A    2.58500       11.6110           0 -0.800000      0.899000    
     15040 TFA      15       TFA      DC1      DRUD     -2.19500      0.400000           0   0.00000       0.00000    
     15041 TFA      15       TFA      C2       CD30A    0.450000       12.0110           0   0.00000       0.00000    
     15042 TFA      15       TFA      F1       FDA3      1.92530       18.5980           0 -0.750000       1.30000    
     15043 TFA      15       TFA      DF1      DRUD     -2.12530      0.400000           0   0.00000       0.00000    
     15044 TFA      15       TFA      F2       FDA3      1.92530       18.5980           0 -0.750000       1.30000    
     15045 TFA      15       TFA      DF2      DRUD     -2.12530      0.400000           0   0.00000       0.00000    
     15046 TFA      15       TFA      F3       FDA3      1.92530       18.5980           0 -0.750000       1.30000    
     15047 TFA      15       TFA      DF3      DRUD     -2.12530      0.400000           0   0.00000       0.00000    
     15048 TFA      15       TFA      O1       OD2C2A    1.45190       15.5994           0 -0.350000       2.39900    
     15049 TFA      15       TFA      DO1      DRUD     -1.45190      0.400000           0   0.00000       0.00000    
     15050 TFA      15       TFA      O2       OD2C2A    1.45190       15.5994           0 -0.350000       2.39900    
     15051 TFA      15       TFA      DO2      DRUD     -1.45190      0.400000           0   0.00000       0.00000    
     15052 TFA      15       TFA      LPO11    LPD     -0.310000       0.00000          -1   0.00000       0.00000    
     15053 TFA      15       TFA      LPO12    LPD     -0.310000       0.00000          -1   0.00000       0.00000    
     15054 TFA      15       TFA      LPO21    LPD     -0.310000       0.00000          -1   0.00000       0.00000    
     15055 TFA      15       TFA      LPO22    LPD     -0.310000       0.00000          -1   0.00000       0.00000    
     15056 TFA      16       TFA      C1       CD2O2A    2.58500       11.6110           0 -0.800000      0.899000    
     15057 TFA      16       TFA      DC1      DRUD     -2.19500      0.400000           0   0.00000       0.00000    
     15058 TFA      16       TFA      C2       CD30A    0.450000       12.0110           0   0.00000       0.00000    
     15059 TFA      16       TFA      F1       FDA3      1.92530       18.5980           0 -0.750000       1.30000    
     15060 TFA      16       TFA      DF1      DRUD     -2.12530      0.400000           0   0.00000       0.00000    
     15061 TFA      16       TFA      F2       FDA3      1.92530       18.5980           0 -0.750000       1.30000    
     15062 TFA      16       TFA      DF2      DRUD     -2.12530      0.400000           0   0.00000       0.00000    
     15063 TFA      16       TFA      F3       FDA3      1.92530       18.5980           0 -0.750000       1.30000    
     15064 TFA      16       TFA      DF3      DRUD     -2.12530      0.400000           0   0.00000       0.00000    
     15065 TFA      16       TFA      O1       OD2C2A    1.45190       15.5994           0 -0.350000       2.39900    
     15066 TFA      16       TFA      DO1      DRUD     -1.45190      0.400000           0   0.00000       0.00000    
     15067 TFA      16       TFA      O2       OD2C2A    1.45190       15.5994           0 -0.350000       2.39900    
     15068 TFA      16       TFA      DO2      DRUD     -1.45190      0.400000           0   0.00000       0.00000    
     15069 TFA      16       TFA      LPO11    LPD     -0.310000       0.00000          -1   0.00000       0.00000    
     15070 TFA      16       TFA      LPO12    LPD     -0.310000       0.00000          -1   0.00000       0.00000    
     15071 TFA      16       TFA      LPO21    LPD     -0.310000       0.00000          -1   0.00000       0.00000    
     15072 TFA      16       TFA      LPO22    LPD     -0.310000       0.00000          -1   0.00000       0.00000    
     15073 TFA      17       TFA      C1       CD2O2A    2.58500       11.6110           0 -0.800000      0.899000    
     15074 TFA      17       TFA      DC1      DRUD     -2.19500      0.400000           0   0.00000       0.00000    
     15075 TFA      17       TFA      C2       CD30A    0.450000       12.0110           0   0.00000       0.00000    
     15076 TFA      17       TFA      F1       FDA3      1.92530       18.5980           0 -0.750000       1.30000    
     15077 TFA      17       TFA      DF1      DRUD     -2.12530      0.400000           0   0.00000       0.00000    
     15078 TFA      17       TFA      F2       FDA3      1.92530       18.5980           0 -0.750000       1.30000    
     15079 TFA      17       TFA      DF2      DRUD     -2.12530      0.400000           0   0.00000       0.00000    
     15080 TFA      17       TFA      F3       FDA3      1.92530       18.5980           0 -0.750000       1.30000    
     15081 TFA      17       TFA      DF3      DRUD     -2.12530      0.400000           0   0.00000       0.00000    
     15082 TFA      17       TFA      O1       OD2C2A    1.45190       15.5994           0 -0.350000       2.39900    
     15083 TFA      17       TFA      DO1      DRUD     -1.45190      0.400000           0   0.00000       0.00000    
     15084 TFA      17       TFA      O2       OD2C2A    1.45190       15.5994           0 -0.350000       2.39900    
     15085 TFA      17       TFA      DO2      DRUD     -1.45190      0.400000           0   0.00000       0.00000    
     15086 TFA      17       TFA      LPO11    LPD     -0.310000       0.00000          -1   0.00000       0.00000    
     15087 TFA      17       TFA      LPO12    LPD     -0.310000       0.00000          -1   0.00000       0.00000    
     15088 TFA      17       TFA      LPO21    LPD     -0.310000       0.00000          -1   0.00000       0.00000    
     15089 TFA      17       TFA      LPO22    LPD     -0.310000       0.00000          -1   0.00000       0.00000    
     15090 TFA      18       TFA      C1       CD2O2A    2.58500       11.6110           0 -0.800000      0.899000    
     15091 TFA      18       TFA      DC1      DRUD     -2.19500      0.400000           0   0.00000       0.00000    
     15092 TFA      18       TFA      C2       CD30A    0.450000       12.0110           0   0.00000       0.00000    
     15093 TFA      18       TFA      F1       FDA3      1.92530       18.5980           0 -0.750000       1.30000    
     15094 TFA      18       TFA      DF1      DRUD     -2.12530      0.400000           0   0.00000       0.00000    
     15095 TFA      18       TFA      F2       FDA3      1.92530       18.5980           0 -0.750000       1.30000    
     15096 TFA      18       TFA      DF2      DRUD     -2.12530      0.400000           0   0.00000       0.00000    
     15097 TFA      18       TFA      F3       FDA3      1.92530       18.5980           0 -0.750000       1.30000    
     15098 TFA      18       TFA      DF3      DRUD     -2.12530      0.400000           0   0.00000       0.00000    
     15099 TFA      18       TFA      O1       OD2C2A    1.45190       15.5994           0 -0.350000       2.39900    
     15100 TFA      18       TFA      DO1      DRUD     -1.45190      0.400000           0   0.00000       0.00000    
     15101 TFA      18       TFA      O2       OD2C2A    1.45190       15.5994           0 -0.350000       2.39900    
     15102 TFA      18       TFA      DO2      DRUD     -1.45190      0.400000           0   0.00000       0.00000    
     15103 TFA      18       TFA      LPO11    LPD     -0.310000       0.00000          -1   0.00000       0.00000    
     15104 TFA      18       TFA      LPO12    LPD     -0.310000       0.00000          -1   0.00000       0.00000    
     15105 TFA      18       TFA      LPO21    LPD     -0.310000       0.00000          -1   0.00000       0.00000    
     15106 TFA      18       TFA      LPO22    LPD     -0.310000       0.00000          -1   0.00000       0.00000    
     15107 TFA      19       TFA      C1       CD2O2A    2.58500       11.6110           0 -0.800000      0.899000    
     15108 TFA      19       TFA      DC1      DRUD     -2.19500      0.400000           0   0.00000       0.00000    
     15109 TFA      19       TFA      C2       CD30A    0.450000       12.0110           0   0.00000       0.00000    
     15110 TFA      19       TFA      F1       FDA3      1.92530       18.5980           0 -0.750000       1.30000    
     15111 TFA      19       TFA      DF1      DRUD     -2.12530      0.400000           0   0.00000       0.00000    
     15112 TFA      19       TFA      F2       FDA3      1.92530       18.5980           0 -0.750000       1.30000    
     15113 TFA      19       TFA      DF2      DRUD     -2.12530      0.400000           0   0.00000       0.00000    
     15114 TFA      19       TFA      F3       FDA3      1.92530       18.5980           0 -0.750000       1.30000    
     15115 TFA      19       TFA      DF3      DRUD     -2.12530      0.400000           0   0.00000       0.00000    
     15116 TFA      19       TFA      O1       OD2C2A    1.45190       15.5994           0 -0.350000       2.39900    
     15117 TFA      19       TFA      DO1      DRUD     -1.45190      0.400000           0   0.00000       0.00000    
     15118 TFA      19       TFA      O2       OD2C2A    1.45190       15.5994           0 -0.350000       2.39900    
     15119 TFA      19       TFA      DO2      DRUD     -1.45190      0.400000           0   0.00000       0.00000    
     15120 TFA      19       TFA      LPO11    LPD     -0.310000       0.00000          -1   0.00000       0.00000    
     15121 TFA      19       TFA      LPO12    LPD     -0.310000       0.00000          -1   0.00000       0.00000    
     15122 TFA      19       TFA      LPO21    LPD     -0.310000       0.00000          -1   0.00000       0.00000    
     15123 TFA      19       TFA      LPO22    LPD     -0.310000       0.00000          -1   0.00000       0.00000    
     15124 TFA      20       TFA      C1       CD2O2A    2.58500       11.6110           0 -0.800000      0.899000    
     15125 TFA      20       TFA      DC1      DRUD     -2.19500      0.400000           0   0.00000       0.00000    
     15126 TFA      20       TFA      C2       CD30A    0.450000       12.0110           0   0.00000       0.00000    
     15127 TFA      20       TFA      F1       FDA3      1.92530       18.5980           0 -0.750000       1.30000    
     15128 TFA      20       TFA      DF1      DRUD     -2.12530      0.400000           0   0.00000       0.00000    
     15129 TFA      20       TFA      F2       FDA3      1.92530       18.5980           0 -0.750000       1.30000    
     15130 TFA      20       TFA      DF2      DRUD     -2.12530      0.400000           0   0.00000       0.00000    
     15131 TFA      20       TFA      F3       FDA3      1.92530       18.5980           0 -0.750000       1.30000    
     15132 TFA      20       TFA      DF3      DRUD     -2.12530      0.400000           0   0.00000       0.00000    
     15133 TFA      20       TFA      O1       OD2C2A    1.45190       15.5994           0 -0.350000       2.39900    
     15134 TFA      20       TFA      DO1      DRUD     -1.45190      0.400000           0   0.00000       0.00000    
     15135 TFA      20       TFA      O2       OD2C2A    1.45190       15.5994           0 -0.350000       2.39900    
     15136 TFA      20       TFA      DO2      DRUD     -1.45190      0.400000           0   0.00000       0.00000    
     15137 TFA      20       TFA      LPO11    LPD     -0.310000       0.00000          -1   0.00000       0.00000    
     15138 TFA      20       TFA      LPO12    LPD     -0.310000       0.00000          -1   0.00000       0.00000    
     15139 TFA      20       TFA      LPO21    LPD     -0.310000       0.00000          -1   0.00000       0.00000    
     15140 TFA      20       TFA      LPO22    LPD     -0.310000       0.00000          -1   0.00000       0.00000    
     15141 TFA      21       TFA      C1       CD2O2A    2.58500       11.6110           0 -0.800000      0.899000    
     15142 TFA      21       TFA      DC1      DRUD     -2.19500      0.400000           0   0.00000       0.00000    
     15143 TFA      21       TFA      C2       CD30A    0.450000       12.0110           0   0.00000       0.00000    
     15144 TFA      21       TFA      F1       FDA3      1.92530       18.5980           0 -0.750000       1.30000    
     15145 TFA      21       TFA      DF1      DRUD     -2.12530      0.400000           0   0.00000       0.00000    
     15146 TFA      21       TFA      F2       FDA3      1.92530       18.5980           0 -0.750000       1.30000    
     15147 TFA      21       TFA      DF2      DRUD     -2.12530      0.400000           0   0.00000       0.00000    
     15148 TFA      21       TFA      F3       FDA3      1.92530       18.5980           0 -0.750000       1.30000    
     15149 TFA      21       TFA      DF3      DRUD     -2.12530      0.400000           0   0.00000       0.00000    
     15150 TFA      21       TFA      O1       OD2C2A    1.45190       15.5994           0 -0.350000       2.39900    
     15151 TFA      21       TFA      DO1      DRUD     -1.45190      0.400000           0   0.00000       0.00000    
     15152 TFA      21       TFA      O2       OD2C2A    1.45190       15.5994           0 -0.350000       2.39900    
     15153 TFA      21       TFA      DO2      DRUD     -1.45190      0.400000           0   0.00000       0.00000    
     15154 TFA      21       TFA      LPO11    LPD     -0.310000       0.00000          -1   0.00000       0.00000    
     15155 TFA      21       TFA      LPO12    LPD     -0.310000       0.00000          -1   0.00000       0.00000    
     15156 TFA      21       TFA      LPO21    LPD     -0.310000       0.00000          -1   0.00000       0.00000    
     15157 TFA      21       TFA      LPO22    LPD     -0.310000       0.00000          -1   0.00000       0.00000    
     15158 TFA      22       TFA      C1       CD2O2A    2.58500       11.6110           0 -0.800000      0.899000    
     15159 TFA      22       TFA      DC1      DRUD     -2.19500      0.400000           0   0.00000       0.00000    
     15160 TFA      22       TFA      C2       CD30A    0.450000       12.0110           0   0.00000       0.00000    
     15161 TFA      22       TFA      F1       FDA3      1.92530       18.5980           0 -0.750000       1.30000    
     15162 TFA      22       TFA      DF1      DRUD     -2.12530      0.400000           0   0.00000       0.00000    
     15163 TFA      22       TFA      F2       FDA3      1.92530       18.5980           0 -0.750000       1.30000    
     15164 TFA      22       TFA      DF2      DRUD     -2.12530      0.400000           0   0.00000       0.00000    
     15165 TFA      22       TFA      F3       FDA3      1.92530       18.5980           0 -0.750000       1.30000    
     15166 TFA      22       TFA      DF3      DRUD     -2.12530      0.400000           0   0.00000       0.00000    
     15167 TFA      22       TFA      O1       OD2C2A    1.45190       15.5994           0 -0.350000       2.39900    
     15168 TFA      22       TFA      DO1      DRUD     -1.45190      0.400000           0   0.00000       0.00000    
     15169 TFA      22       TFA      O2       OD2C2A    1.45190       15.5994           0 -0.350000       2.39900    
     15170 TFA      22       TFA      DO2      DRUD     -1.45190      0.400000           0   0.00000       0.00000    
     15171 TFA      22       TFA      LPO11    LPD     -0.310000       0.00000          -1   0.00000       0.00000    
     15172 TFA      22       TFA      LPO12    LPD     -0.310000       0.00000          -1   0.00000       0.00000    
     15173 TFA      22       TFA      LPO21    LPD     -0.310000       0.00000          -1   0.00000       0.00000    
     15174 TFA      22       TFA      LPO22    LPD     -0.310000       0.00000          -1   0.00000       0.00000    
     15175 TFA      23       TFA      C1       CD2O2A    2.58500       11.6110           0 -0.800000      0.899000    
     15176 TFA      23       TFA      DC1      DRUD     -2.19500      0.400000           0   0.00000       0.00000    
     15177 TFA      23       TFA      C2       CD30A    0.450000       12.0110           0   0.00000       0.00000    
     15178 TFA      23       TFA      F1       FDA3      1.92530       18.5980           0 -0.750000       1.30000    
     15179 TFA      23       TFA      DF1      DRUD     -2.12530      0.400000           0   0.00000       0.00000    
     15180 TFA      23       TFA      F2       FDA3      1.92530       18.5980           0 -0.750000       1.30000    
     15181 TFA      23       TFA      DF2      DRUD     -2.12530      0.400000           0   0.00000       0.00000    
     15182 TFA      23       TFA      F3       FDA3      1.92530       18.5980           0 -0.750000       1.30000    
     15183 TFA      23       TFA      DF3      DRUD     -2.12530      0.400000           0   0.00000       0.00000    
     15184 TFA      23       TFA      O1       OD2C2A    1.45190       15.5994           0 -0.350000       2.39900    
     15185 TFA      23       TFA      DO1      DRUD     -1.45190      0.400000           0   0.00000       0.00000    
     15186 TFA      23       TFA      O2       OD2C2A    1.45190       15.5994           0 -0.350000       2.39900    
     15187 TFA      23       TFA      DO2      DRUD     -1.45190      0.400000           0   0.00000       0.00000    
     15188 TFA      23       TFA      LPO11    LPD     -0.310000       0.00000          -1   0.00000       0.00000    
     15189 TFA      23       TFA      LPO12    LPD     -0.310000       0.00000          -1   0.00000       0.00000    
     15190 TFA      23       TFA      LPO21    LPD     -0.310000       0.00000          -1   0.00000       0.00000    
     15191 TFA      23       TFA      LPO22    LPD     -0.310000       0.00000          -1   0.00000       0.00000    
     15192 TFA      24       TFA      C1       CD2O2A    2.58500       11.6110           0 -0.800000      0.899000    
     15193 TFA      24       TFA      DC1      DRUD     -2.19500      0.400000           0   0.00000       0.00000    
     15194 TFA      24       TFA      C2       CD30A    0.450000       12.0110           0   0.00000       0.00000    
     15195 TFA      24       TFA      F1       FDA3      1.92530       18.5980           0 -0.750000       1.30000    
     15196 TFA      24       TFA      DF1      DRUD     -2.12530      0.400000           0   0.00000       0.00000    
     15197 TFA      24       TFA      F2       FDA3      1.92530       18.5980           0 -0.750000       1.30000    
     15198 TFA      24       TFA      DF2      DRUD     -2.12530      0.400000           0   0.00000       0.00000    
     15199 TFA      24       TFA      F3       FDA3      1.92530       18.5980           0 -0.750000       1.30000    
     15200 TFA      24       TFA      DF3      DRUD     -2.12530      0.400000           0   0.00000       0.00000    
     15201 TFA      24       TFA      O1       OD2C2A    1.45190       15.5994           0 -0.350000       2.39900    
     15202 TFA      24       TFA      DO1      DRUD     -1.45190      0.400000           0   0.00000       0.00000    
     15203 TFA      24       TFA      O2       OD2C2A    1.45190       15.5994           0 -0.350000       2.39900    
     15204 TFA      24       TFA      DO2      DRUD     -1.45190      0.400000           0   0.00000       0.00000    
     15205 TFA      24       TFA      LPO11    LPD     -0.310000       0.00000          -1   0.00000       0.00000    
     15206 TFA      24       TFA      LPO12    LPD     -0.310000       0.00000          -1   0.00000       0.00000    
     15207 TFA      24       TFA      LPO21    LPD     -0.310000       0.00000          -1   0.00000       0.00000    
     15208 TFA      24       TFA      LPO22    LPD     -0.310000       0.00000          -1   0.00000       0.00000    
     15209 TFA      25       TFA      C1       CD2O2A    2.58500       11.6110           0 -0.800000      0.899000    
     15210 TFA      25       TFA      DC1      DRUD     -2.19500      0.400000           0   0.00000       0.00000    
     15211 TFA      25       TFA      C2       CD30A    0.450000       12.0110           0   0.00000       0.00000    
     15212 TFA      25       TFA      F1       FDA3      1.92530       18.5980           0 -0.750000       1.30000    
     15213 TFA      25       TFA      DF1      DRUD     -2.12530      0.400000           0   0.00000       0.00000    
     15214 TFA      25       TFA      F2       FDA3      1.92530       18.5980           0 -0.750000       1.30000    
     15215 TFA      25       TFA      DF2      DRUD     -2.12530      0.400000           0   0.00000       0.00000    
     15216 TFA      25       TFA      F3       FDA3      1.92530       18.5980           0 -0.750000       1.30000    
     15217 TFA      25       TFA      DF3      DRUD     -2.12530      0.400000           0   0.00000       0.00000    
     15218 TFA      25       TFA      O1       OD2C2A    1.45190       15.5994           0 -0.350000       2.39900    
     15219 TFA      25       TFA      DO1      DRUD     -1.45190      0.400000           0   0.00000       0.00000    
     15220 TFA      25       TFA      O2       OD2C2A    1.45190       15.5994           0 -0.350000       2.39900    
     15221 TFA      25       TFA      DO2      DRUD     -1.45190      0.400000           0   0.00000       0.00000    
     15222 TFA      25       TFA      LPO11    LPD     -0.310000       0.00000          -1   0.00000       0.00000    
     15223 TFA      25       TFA      LPO12    LPD     -0.310000       0.00000          -1   0.00000       0.00000    
     15224 TFA      25       TFA      LPO21    LPD     -0.310000       0.00000          -1   0.00000       0.00000    
     15225 TFA      25       TFA      LPO22    LPD     -0.310000       0.00000          -1   0.00000       0.00000    
     15226 TFA      26       TFA      C1       CD2O2A    2.58500       11.6110           0 -0.800000      0.899000    
     15227 TFA      26       TFA      DC1      DRUD     -2.19500      0.400000           0   0.00000       0.00000    
     15228 TFA      26       TFA      C2       CD30A    0.450000       12.0110           0   0.00000       0.00000    
     15229 TFA      26       TFA      F1       FDA3      1.92530       18.5980           0 -0.750000       1.30000    
     15230 TFA      26       TFA      DF1      DRUD     -2.12530      0.400000           0   0.00000       0.00000    
     15231 TFA      26       TFA      F2       FDA3      1.92530       18.5980           0 -0.750000       1.30000    
     15232 TFA      26       TFA      DF2      DRUD     -2.12530      0.400000           0   0.00000       0.00000    
     15233 TFA      26       TFA      F3       FDA3      1.92530       18.5980           0 -0.750000       1.30000    
     15234 TFA      26       TFA      DF3      DRUD     -2.12530      0.400000           0   0.00000       0.00000    
     15235 TFA      26       TFA      O1       OD2C2A    1.45190       15.5994           0 -0.350000       2.39900    
     15236 TFA      26       TFA      DO1      DRUD     -1.45190      0.400000           0   0.00000       0.00000    
     15237 TFA      26       TFA      O2       OD2C2A    1.45190       15.5994           0 -0.350000       2.39900    
     15238 TFA      26       TFA      DO2      DRUD     -1.45190      0.400000           0   0.00000       0.00000    
     15239 TFA      26       TFA      LPO11    LPD     -0.310000       0.00000          -1   0.00000       0.00000    
     15240 TFA      26       TFA      LPO12    LPD     -0.310000       0.00000          -1   0.00000       0.00000    
     15241 TFA      26       TFA      LPO21    LPD     -0.310000       0.00000          -1   0.00000       0.00000    
     15242 TFA      26       TFA      LPO22    LPD     -0.310000       0.00000          -1   0.00000       0.00000    
     15243 TFA      27       TFA      C1       CD2O2A    2.58500       11.6110           0 -0.800000      0.899000    
     15244 TFA      27       TFA      DC1      DRUD     -2.19500      0.400000           0   0.00000       0.00000    
     15245 TFA      27       TFA      C2       CD30A    0.450000       12.0110           0   0.00000       0.00000    
     15246 TFA      27       TFA      F1       FDA3      1.92530       18.5980           0 -0.750000       1.30000    
     15247 TFA      27       TFA      DF1      DRUD     -2.12530      0.400000           0   0.00000       0.00000    
     15248 TFA      27       TFA      F2       FDA3      1.92530       18.5980           0 -0.750000       1.30000    
     15249 TFA      27       TFA      DF2      DRUD     -2.12530      0.400000           0   0.00000       0.00000    
     15250 TFA      27       TFA      F3       FDA3      1.92530       18.5980           0 -0.750000       1.30000    
     15251 TFA      27       TFA      DF3      DRUD     -2.12530      0.400000           0   0.00000       0.00000    
     15252 TFA      27       TFA      O1       OD2C2A    1.45190       15.5994           0 -0.350000       2.39900    
     15253 TFA      27       TFA      DO1      DRUD     -1.45190      0.400000           0   0.00000       0.00000    
     15254 TFA      27       TFA      O2       OD2C2A    1.45190       15.5994           0 -0.350000       2.39900    
     15255 TFA      27       TFA      DO2      DRUD     -1.45190      0.400000           0   0.00000       0.00000    
     15256 TFA      27       TFA      LPO11    LPD     -0.310000       0.00000          -1   0.00000       0.00000    
     15257 TFA      27       TFA      LPO12    LPD     -0.310000       0.00000          -1   0.00000       0.00000    
     15258 TFA      27       TFA      LPO21    LPD     -0.310000       0.00000          -1   0.00000       0.00000    
     15259 TFA      27       TFA      LPO22    LPD     -0.310000       0.00000          -1   0.00000       0.00000    
     15260 TFA      28       TFA      C1       CD2O2A    2.58500       11.6110           0 -0.800000      0.899000    
     15261 TFA      28       TFA      DC1      DRUD     -2.19500      0.400000           0   0.00000       0.00000    
     15262 TFA      28       TFA      C2       CD30A    0.450000       12.0110           0   0.00000       0.00000    
     15263 TFA      28       TFA      F1       FDA3      1.92530       18.5980           0 -0.750000       1.30000    
     15264 TFA      28       TFA      DF1      DRUD     -2.12530      0.400000           0   0.00000       0.00000    
     15265 TFA      28       TFA      F2       FDA3      1.92530       18.5980           0 -0.750000       1.30000    
     15266 TFA      28       TFA      DF2      DRUD     -2.12530      0.400000           0   0.00000       0.00000    
     15267 TFA      28       TFA      F3       FDA3      1.92530       18.5980           0 -0.750000       1.30000    
     15268 TFA      28       TFA      DF3      DRUD     -2.12530      0.400000           0   0.00000       0.00000    
     15269 TFA      28       TFA      O1       OD2C2A    1.45190       15.5994           0 -0.350000       2.39900    
     15270 TFA      28       TFA      DO1      DRUD     -1.45190      0.400000           0   0.00000       0.00000    
     15271 TFA      28       TFA      O2       OD2C2A    1.45190       15.5994           0 -0.350000       2.39900    
     15272 TFA      28       TFA      DO2      DRUD     -1.45190      0.400000           0   0.00000       0.00000    
     15273 TFA      28       TFA      LPO11    LPD     -0.310000       0.00000          -1   0.00000       0.00000    
     15274 TFA      28       TFA      LPO12    LPD     -0.310000       0.00000          -1   0.00000       0.00000    
     15275 TFA      28       TFA      LPO21    LPD     -0.310000       0.00000          -1   0.00000       0.00000    
     15276 TFA      28       TFA      LPO22    LPD     -0.310000       0.00000          -1   0.00000       0.00000    
     15277 TFA      29       TFA      C1       CD2O2A    2.58500       11.6110           0 -0.800000      0.899000    
     15278 TFA      29       TFA      DC1      DRUD     -2.19500      0.400000           0   0.00000       0.00000    
     15279 TFA      29       TFA      C2       CD30A    0.450000       12.0110           0   0.00000       0.00000    
     15280 TFA      29       TFA      F1       FDA3      1.92530       18.5980           0 -0.750000       1.30000    
     15281 TFA      29       TFA      DF1      DRUD     -2.12530      0.400000           0   0.00000       0.00000    
     15282 TFA      29       TFA      F2       FDA3      1.92530       18.5980           0 -0.750000       1.30000    
     15283 TFA      29       TFA      DF2      DRUD     -2.12530      0.400000           0   0.00000       0.00000    
     15284 TFA      29       TFA      F3       FDA3      1.92530       18.5980           0 -0.750000       1.30000    
     15285 TFA      29       TFA      DF3      DRUD     -2.12530      0.400000           0   0.00000       0.00000    
     15286 TFA      29       TFA      O1       OD2C2A    1.45190       15.5994           0 -0.350000       2.39900    
     15287 TFA      29       TFA      DO1      DRUD     -1.45190      0.400000           0   0.00000       0.00000    
     15288 TFA      29       TFA      O2       OD2C2A    1.45190       15.5994           0 -0.350000       2.39900    
     15289 TFA      29       TFA      DO2      DRUD     -1.45190      0.400000           0   0.00000       0.00000    
     15290 TFA      29       TFA      LPO11    LPD     -0.310000       0.00000          -1   0.00000       0.00000    
     15291 TFA      29       TFA      LPO12    LPD     -0.310000       0.00000          -1   0.00000       0.00000    
     15292 TFA      29       TFA      LPO21    LPD     -0.310000       0.00000          -1   0.00000       0.00000    
     15293 TFA      29       TFA      LPO22    LPD     -0.310000       0.00000          -1   0.00000       0.00000    
     15294 TFA      30       TFA      C1       CD2O2A    2.58500       11.6110           0 -0.800000      0.899000    
     15295 TFA      30       TFA      DC1      DRUD     -2.19500      0.400000           0   0.00000       0.00000    
     15296 TFA      30       TFA      C2       CD30A    0.450000       12.0110           0   0.00000       0.00000    
     15297 TFA      30       TFA      F1       FDA3      1.92530       18.5980           0 -0.750000       1.30000    
     15298 TFA      30       TFA      DF1      DRUD     -2.12530      0.400000           0   0.00000       0.00000    
     15299 TFA      30       TFA      F2       FDA3      1.92530       18.5980           0 -0.750000       1.30000    
     15300 TFA      30       TFA      DF2      DRUD     -2.12530      0.400000           0   0.00000       0.00000    
     15301 TFA      30       TFA      F3       FDA3      1.92530       18.5980           0 -0.750000       1.30000    
     15302 TFA      30       TFA      DF3      DRUD     -2.12530      0.400000           0   0.00000       0.00000    
     15303 TFA      30       TFA      O1       OD2C2A    1.45190       15.5994           0 -0.350000       2.39900    
     15304 TFA      30       TFA      DO1      DRUD     -1.45190      0.400000           0   0.00000       0.00000    
     15305 TFA      30       TFA      O2       OD2C2A    1.45190       15.5994           0 -0.350000       2.39900    
     15306 TFA      30       TFA      DO2      DRUD     -1.45190      0.400000           0   0.00000       0.00000    
     15307 TFA      30       TFA      LPO11    LPD     -0.310000       0.00000          -1   0.00000       0.00000    
     15308 TFA      30       TFA      LPO12    LPD     -0.310000       0.00000          -1   0.00000       0.00000    
     15309 TFA      30       TFA      LPO21    LPD     -0.310000       0.00000          -1   0.00000       0.00000    
     15310 TFA      30       TFA      LPO22    LPD     -0.310000       0.00000          -1   0.00000       0.00000    
     15311 TFA      31       TFA      C1       CD2O2A    2.58500       11.6110           0 -0.800000      0.899000    
     15312 TFA      31       TFA      DC1      DRUD     -2.19500      0.400000           0   0.00000       0.00000    
     15313 TFA      31       TFA      C2       CD30A    0.450000       12.0110           0   0.00000       0.00000    
     15314 TFA      31       TFA      F1       FDA3      1.92530       18.5980           0 -0.750000       1.30000    
     15315 TFA      31       TFA      DF1      DRUD     -2.12530      0.400000           0   0.00000       0.00000    
     15316 TFA      31       TFA      F2       FDA3      1.92530       18.5980           0 -0.750000       1.30000    
     15317 TFA      31       TFA      DF2      DRUD     -2.12530      0.400000           0   0.00000       0.00000    
     15318 TFA      31       TFA      F3       FDA3      1.92530       18.5980           0 -0.750000       1.30000    
     15319 TFA      31       TFA      DF3      DRUD     -2.12530      0.400000           0   0.00000       0.00000    
     15320 TFA      31       TFA      O1       OD2C2A    1.45190       15.5994           0 -0.350000       2.39900    
     15321 TFA      31       TFA      DO1      DRUD     -1.45190      0.400000           0   0.00000       0.00000    
     15322 TFA      31       TFA      O2       OD2C2A    1.45190       15.5994           0 -0.350000       2.39900    
     15323 TFA      31       TFA      DO2      DRUD     -1.45190      0.400000           0   0.00000       0.00000    
     15324 TFA      31       TFA      LPO11    LPD     -0.310000       0.00000          -1   0.00000       0.00000    
     15325 TFA      31       TFA      LPO12    LPD     -0.310000       0.00000          -1   0.00000       0.00000    
     15326 TFA      31       TFA      LPO21    LPD     -0.310000       0.00000          -1   0.00000       0.00000    
     15327 TFA      31       TFA      LPO22    LPD     -0.310000       0.00000          -1   0.00000       0.00000    
     15328 TFA      32       TFA      C1       CD2O2A    2.58500       11.6110           0 -0.800000      0.899000    
     15329 TFA      32       TFA      DC1      DRUD     -2.19500      0.400000           0   0.00000       0.00000    
     15330 TFA      32       TFA      C2       CD30A    0.450000       12.0110           0   0.00000       0.00000    
     15331 TFA      32       TFA      F1       FDA3      1.92530       18.5980           0 -0.750000       1.30000    
     15332 TFA      32       TFA      DF1      DRUD     -2.12530      0.400000           0   0.00000       0.00000    
     15333 TFA      32       TFA      F2       FDA3      1.92530       18.5980           0 -0.750000       1.30000    
     15334 TFA      32       TFA      DF2      DRUD     -2.12530      0.400000           0   0.00000       0.00000    
     15335 TFA      32       TFA      F3       FDA3      1.92530       18.5980           0 -0.750000       1.30000    
     15336 TFA      32       TFA      DF3      DRUD     -2.12530      0.400000           0   0.00000       0.00000    
     15337 TFA      32       TFA      O1       OD2C2A    1.45190       15.5994           0 -0.350000       2.39900    
     15338 TFA      32       TFA      DO1      DRUD     -1.45190      0.400000           0   0.00000       0.00000    
     15339 TFA      32       TFA      O2       OD2C2A    1.45190       15.5994           0 -0.350000       2.39900    
     15340 TFA      32       TFA      DO2      DRUD     -1.45190      0.400000           0   0.00000       0.00000    
     15341 TFA      32       TFA      LPO11    LPD     -0.310000       0.00000          -1   0.00000       0.00000    
     15342 TFA      32       TFA      LPO12    LPD     -0.310000       0.00000          -1   0.00000       0.00000    
     15343 TFA      32       TFA      LPO21    LPD     -0.310000       0.00000          -1   0.00000       0.00000    
     15344 TFA      32       TFA      LPO22    LPD     -0.310000       0.00000          -1   0.00000       0.00000    
     15345 TFA      33       TFA      C1       CD2O2A    2.58500       11.6110           0 -0.800000      0.899000    
     15346 TFA      33       TFA      DC1      DRUD     -2.19500      0.400000           0   0.00000       0.00000    
     15347 TFA      33       TFA      C2       CD30A    0.450000       12.0110           0   0.00000       0.00000    
     15348 TFA      33       TFA      F1       FDA3      1.92530       18.5980           0 -0.750000       1.30000    
     15349 TFA      33       TFA      DF1      DRUD     -2.12530      0.400000           0   0.00000       0.00000    
     15350 TFA      33       TFA      F2       FDA3      1.92530       18.5980           0 -0.750000       1.30000    
     15351 TFA      33       TFA      DF2      DRUD     -2.12530      0.400000           0   0.00000       0.00000    
     15352 TFA      33       TFA      F3       FDA3      1.92530       18.5980           0 -0.750000       1.30000    
     15353 TFA      33       TFA      DF3      DRUD     -2.12530      0.400000           0   0.00000       0.00000    
     15354 TFA      33       TFA      O1       OD2C2A    1.45190       15.5994           0 -0.350000       2.39900    
     15355 TFA      33       TFA      DO1      DRUD     -1.45190      0.400000           0   0.00000       0.00000    
     15356 TFA      33       TFA      O2       OD2C2A    1.45190       15.5994           0 -0.350000       2.39900    
     15357 TFA      33       TFA      DO2      DRUD     -1.45190      0.400000           0   0.00000       0.00000    
     15358 TFA      33       TFA      LPO11    LPD     -0.310000       0.00000          -1   0.00000       0.00000    
     15359 TFA      33       TFA      LPO12    LPD     -0.310000       0.00000          -1   0.00000       0.00000    
     15360 TFA      33       TFA      LPO21    LPD     -0.310000       0.00000          -1   0.00000       0.00000    
     15361 TFA      33       TFA      LPO22    LPD     -0.310000       0.00000          -1   0.00000       0.00000    
     15362 TFA      34       TFA      C1       CD2O2A    2.58500       11.6110           0 -0.800000      0.899000    
     15363 TFA      34       TFA      DC1      DRUD     -2.19500      0.400000           0   0.00000       0.00000    
     15364 TFA      34       TFA      C2       CD30A    0.450000       12.0110           0   0.00000       0.00000    
     15365 TFA      34       TFA      F1       FDA3      1.92530       18.5980           0 -0.750000       1.30000    
     15366 TFA      34       TFA      DF1      DRUD     -2.12530      0.400000           0   0.00000       0.00000    
     15367 TFA      34       TFA      F2       FDA3      1.92530       18.5980           0 -0.750000       1.30000    
     15368 TFA      34       TFA      DF2      DRUD     -2.12530      0.400000           0   0.00000       0.00000    
     15369 TFA      34       TFA      F3       FDA3      1.92530       18.5980           0 -0.750000       1.30000    
     15370 TFA      34       TFA      DF3      DRUD     -2.12530      0.400000           0   0.00000       0.00000    
     15371 TFA      34       TFA      O1       OD2C2A    1.45190       15.5994           0 -0.350000       2.39900    
     15372 TFA      34       TFA      DO1      DRUD     -1.45190      0.400000           0   0.00000       0.00000    
     15373 TFA      34       TFA      O2       OD2C2A    1.45190       15.5994           0 -0.350000       2.39900    
     15374 TFA      34       TFA      DO2      DRUD     -1.45190      0.400000           0   0.00000       0.00000    
     15375 TFA      34       TFA      LPO11    LPD     -0.310000       0.00000          -1   0.00000       0.00000    
     15376 TFA      34       TFA      LPO12    LPD     -0.310000       0.00000          -1   0.00000       0.00000    
     15377 TFA      34       TFA      LPO21    LPD     -0.310000       0.00000          -1   0.00000       0.00000    
     15378 TFA      34       TFA      LPO22    LPD     -0.310000       0.00000          -1   0.00000       0.00000    
     15379 TFA      35       TFA      C1       CD2O2A    2.58500       11.6110           0 -0.800000      0.899000    
     15380 TFA      35       TFA      DC1      DRUD     -2.19500      0.400000           0   0.00000       0.00000    
     15381 TFA      35       TFA      C2       CD30A    0.450000       12.0110           0   0.00000       0.00000    
     15382 TFA      35       TFA      F1       FDA3      1.92530       18.5980           0 -0.750000       1.30000    
     15383 TFA      35       TFA      DF1      DRUD     -2.12530      0.400000           0   0.00000       0.00000    
     15384 TFA      35       TFA      F2       FDA3      1.92530       18.5980           0 -0.750000       1.30000    
     15385 TFA      35       TFA      DF2      DRUD     -2.12530      0.400000           0   0.00000       0.00000    
     15386 TFA      35       TFA      F3       FDA3      1.92530       18.5980           0 -0.750000       1.30000    
     15387 TFA      35       TFA      DF3      DRUD     -2.12530      0.400000           0   0.00000       0.00000    
     15388 TFA      35       TFA      O1       OD2C2A    1.45190       15.5994           0 -0.350000       2.39900    
     15389 TFA      35       TFA      DO1      DRUD     -1.45190      0.400000           0   0.00000       0.00000    
     15390 TFA      35       TFA      O2       OD2C2A    1.45190       15.5994           0 -0.350000       2.39900    
     15391 TFA      35       TFA      DO2      DRUD     -1.45190      0.400000           0   0.00000       0.00000    
     15392 TFA      35       TFA      LPO11    LPD     -0.310000       0.00000          -1   0.00000       0.00000    
     15393 TFA      35       TFA      LPO12    LPD     -0.310000       0.00000          -1   0.00000       0.00000    
     15394 TFA      35       TFA      LPO21    LPD     -0.310000       0.00000          -1   0.00000       0.00000    
     15395 TFA      35       TFA      LPO22    LPD     -0.310000       0.00000          -1   0.00000       0.00000    
     15396 TFA      36       TFA      C1       CD2O2A    2.58500       11.6110           0 -0.800000      0.899000    
     15397 TFA      36       TFA      DC1      DRUD     -2.19500      0.400000           0   0.00000       0.00000    
     15398 TFA      36       TFA      C2       CD30A    0.450000       12.0110           0   0.00000       0.00000    
     15399 TFA      36       TFA      F1       FDA3      1.92530       18.5980           0 -0.750000       1.30000    
     15400 TFA      36       TFA      DF1      DRUD     -2.12530      0.400000           0   0.00000       0.00000    
     15401 TFA      36       TFA      F2       FDA3      1.92530       18.5980           0 -0.750000       1.30000    
     15402 TFA      36       TFA      DF2      DRUD     -2.12530      0.400000           0   0.00000       0.00000    
     15403 TFA      36       TFA      F3       FDA3      1.92530       18.5980           0 -0.750000       1.30000    
     15404 TFA      36       TFA      DF3      DRUD     -2.12530      0.400000           0   0.00000       0.00000    
     15405 TFA      36       TFA      O1       OD2C2A    1.45190       15.5994           0 -0.350000       2.39900    
     15406 TFA      36       TFA      DO1      DRUD     -1.45190      0.400000           0   0.00000       0.00000    
     15407 TFA      36       TFA      O2       OD2C2A    1.45190       15.5994           0 -0.350000       2.39900    
     15408 TFA      36       TFA      DO2      DRUD     -1.45190      0.400000           0   0.00000       0.00000    
     15409 TFA      36       TFA      LPO11    LPD     -0.310000       0.00000          -1   0.00000       0.00000    
     15410 TFA      36       TFA      LPO12    LPD     -0.310000       0.00000          -1   0.00000       0.00000    
     15411 TFA      36       TFA      LPO21    LPD     -0.310000       0.00000          -1   0.00000       0.00000    
     15412 TFA      36       TFA      LPO22    LPD     -0.310000       0.00000          -1   0.00000       0.00000    
     15413 TFA      37       TFA      C1       CD2O2A    2.58500       11.6110           0 -0.800000      0.899000    
     15414 TFA      37       TFA      DC1      DRUD     -2.19500      0.400000           0   0.00000       0.00000    
     15415 TFA      37       TFA      C2       CD30A    0.450000       12.0110           0   0.00000       0.00000    
     15416 TFA      37       TFA      F1       FDA3      1.92530       18.5980           0 -0.750000       1.30000    
     15417 TFA      37       TFA      DF1      DRUD     -2.12530      0.400000           0   0.00000       0.00000    
     15418 TFA      37       TFA      F2       FDA3      1.92530       18.5980           0 -0.750000       1.30000    
     15419 TFA      37       TFA      DF2      DRUD     -2.12530      0.400000           0   0.00000       0.00000    
     15420 TFA      37       TFA      F3       FDA3      1.92530       18.5980           0 -0.750000       1.30000    
     15421 TFA      37       TFA      DF3      DRUD     -2.12530      0.400000           0   0.00000       0.00000    
     15422 TFA      37       TFA      O1       OD2C2A    1.45190       15.5994           0 -0.350000       2.39900    
     15423 TFA      37       TFA      DO1      DRUD     -1.45190      0.400000           0   0.00000       0.00000    
     15424 TFA      37       TFA      O2       OD2C2A    1.45190       15.5994           0 -0.350000       2.39900    
     15425 TFA      37       TFA      DO2      DRUD     -1.45190      0.400000           0   0.00000       0.00000    
     15426 TFA      37       TFA      LPO11    LPD     -0.310000       0.00000          -1   0.00000       0.00000    
     15427 TFA      37       TFA      LPO12    LPD     -0.310000       0.00000          -1   0.00000       0.00000    
     15428 TFA      37       TFA      LPO21    LPD     -0.310000       0.00000          -1   0.00000       0.00000    
     15429 TFA      37       TFA      LPO22    LPD     -0.310000       0.00000          -1   0.00000       0.00000    
     15430 TFA      38       TFA      C1       CD2O2A    2.58500       11.6110           0 -0.800000      0.899000    
     15431 TFA      38       TFA      DC1      DRUD     -2.19500      0.400000           0   0.00000       0.00000    
     15432 TFA      38       TFA      C2       CD30A    0.450000       12.0110           0   0.00000       0.00000    
     15433 TFA      38       TFA      F1       FDA3      1.92530       18.5980           0 -0.750000       1.30000    
     15434 TFA      38       TFA      DF1      DRUD     -2.12530      0.400000           0   0.00000       0.00000    
     15435 TFA      38       TFA      F2       FDA3      1.92530       18.5980           0 -0.750000       1.30000    
     15436 TFA      38       TFA      DF2      DRUD     -2.12530      0.400000           0   0.00000       0.00000    
     15437 TFA      38       TFA      F3       FDA3      1.92530       18.5980           0 -0.750000       1.30000    
     15438 TFA      38       TFA      DF3      DRUD     -2.12530      0.400000           0   0.00000       0.00000    
     15439 TFA      38       TFA      O1       OD2C2A    1.45190       15.5994           0 -0.350000       2.39900    
     15440 TFA      38       TFA      DO1      DRUD     -1.45190      0.400000           0   0.00000       0.00000    
     15441 TFA      38       TFA      O2       OD2C2A    1.45190       15.5994           0 -0.350000       2.39900    
     15442 TFA      38       TFA      DO2      DRUD     -1.45190      0.400000           0   0.00000       0.00000    
     15443 TFA      38       TFA      LPO11    LPD     -0.310000       0.00000          -1   0.00000       0.00000    
     15444 TFA      38       TFA      LPO12    LPD     -0.310000       0.00000          -1   0.00000       0.00000    
     15445 TFA      38       TFA      LPO21    LPD     -0.310000       0.00000          -1   0.00000       0.00000    
     15446 TFA      38       TFA      LPO22    LPD     -0.310000       0.00000          -1   0.00000       0.00000    
     15447 TFA      39       TFA      C1       CD2O2A    2.58500       11.6110           0 -0.800000      0.899000    
     15448 TFA      39       TFA      DC1      DRUD     -2.19500      0.400000           0   0.00000       0.00000    
     15449 TFA      39       TFA      C2       CD30A    0.450000       12.0110           0   0.00000       0.00000    
     15450 TFA      39       TFA      F1       FDA3      1.92530       18.5980           0 -0.750000       1.30000    
     15451 TFA      39       TFA      DF1      DRUD     -2.12530      0.400000           0   0.00000       0.00000    
     15452 TFA      39       TFA      F2       FDA3      1.92530       18.5980           0 -0.750000       1.30000    
     15453 TFA      39       TFA      DF2      DRUD     -2.12530      0.400000           0   0.00000       0.00000    
     15454 TFA      39       TFA      F3       FDA3      1.92530       18.5980           0 -0.750000       1.30000    
     15455 TFA      39       TFA      DF3      DRUD     -2.12530      0.400000           0   0.00000       0.00000    
     15456 TFA      39       TFA      O1       OD2C2A    1.45190       15.5994           0 -0.350000       2.39900    
     15457 TFA      39       TFA      DO1      DRUD     -1.45190      0.400000           0   0.00000       0.00000    
     15458 TFA      39       TFA      O2       OD2C2A    1.45190       15.5994           0 -0.350000       2.39900    
     15459 TFA      39       TFA      DO2      DRUD     -1.45190      0.400000           0   0.00000       0.00000    
     15460 TFA      39       TFA      LPO11    LPD     -0.310000       0.00000          -1   0.00000       0.00000    
     15461 TFA      39       TFA      LPO12    LPD     -0.310000       0.00000          -1   0.00000       0.00000    
     15462 TFA      39       TFA      LPO21    LPD     -0.310000       0.00000          -1   0.00000       0.00000    
     15463 TFA      39       TFA      LPO22    LPD     -0.310000       0.00000          -1   0.00000       0.00000    
     15464 TFA      40       TFA      C1       CD2O2A    2.58500       11.6110           0 -0.800000      0.899000    
     15465 TFA      40       TFA      DC1      DRUD     -2.19500      0.400000           0   0.00000       0.00000    
     15466 TFA      40       TFA      C2       CD30A    0.450000       12.0110           0   0.00000       0.00000    
     15467 TFA      40       TFA      F1       FDA3      1.92530       18.5980           0 -0.750000       1.30000    
     15468 TFA      40       TFA      DF1      DRUD     -2.12530      0.400000           0   0.00000       0.00000    
     15469 TFA      40       TFA      F2       FDA3      1.92530       18.5980           0 -0.750000       1.30000    
     15470 TFA      40       TFA      DF2      DRUD     -2.12530      0.400000           0   0.00000       0.00000    
     15471 TFA      40       TFA      F3       FDA3      1.92530       18.5980           0 -0.750000       1.30000    
     15472 TFA      40       TFA      DF3      DRUD     -2.12530      0.400000           0   0.00000       0.00000    
     15473 TFA      40       TFA      O1       OD2C2A    1.45190       15.5994           0 -0.350000       2.39900    
     15474 TFA      40       TFA      DO1      DRUD     -1.45190      0.400000           0   0.00000       0.00000    
     15475 TFA      40       TFA      O2       OD2C2A    1.45190       15.5994           0 -0.350000       2.39900    
     15476 TFA      40       TFA      DO2      DRUD     -1.45190      0.400000           0   0.00000       0.00000    
     15477 TFA      40       TFA      LPO11    LPD     -0.310000       0.00000          -1   0.00000       0.00000    
     15478 TFA      40       TFA      LPO12    LPD     -0.310000       0.00000          -1   0.00000       0.00000    
     15479 TFA      40       TFA      LPO21    LPD     -0.310000       0.00000          -1   0.00000       0.00000    
     15480 TFA      40       TFA      LPO22    LPD     -0.310000       0.00000          -1   0.00000       0.00000    
     15481 TFA      41       TFA      C1       CD2O2A    2.58500       11.6110           0 -0.800000      0.899000    
     15482 TFA      41       TFA      DC1      DRUD     -2.19500      0.400000           0   0.00000       0.00000    
     15483 TFA      41       TFA      C2       CD30A    0.450000       12.0110           0   0.00000       0.00000    
     15484 TFA      41       TFA      F1       FDA3      1.92530       18.5980           0 -0.750000       1.30000    
     15485 TFA      41       TFA      DF1      DRUD     -2.12530      0.400000           0   0.00000       0.00000    
     15486 TFA      41       TFA      F2       FDA3      1.92530       18.5980           0 -0.750000       1.30000    
     15487 TFA      41       TFA      DF2      DRUD     -2.12530      0.400000           0   0.00000       0.00000    
     15488 TFA      41       TFA      F3       FDA3      1.92530       18.5980           0 -0.750000       1.30000    
     15489 TFA      41       TFA      DF3      DRUD     -2.12530      0.400000           0   0.00000       0.00000    
     15490 TFA      41       TFA      O1       OD2C2A    1.45190       15.5994           0 -0.350000       2.39900    
     15491 TFA      41       TFA      DO1      DRUD     -1.45190      0.400000           0   0.00000       0.00000    
     15492 TFA      41       TFA      O2       OD2C2A    1.45190       15.5994           0 -0.350000       2.39900    
     15493 TFA      41       TFA      DO2      DRUD     -1.45190      0.400000           0   0.00000       0.00000    
     15494 TFA      41       TFA      LPO11    LPD     -0.310000       0.00000          -1   0.00000       0.00000    
     15495 TFA      41       TFA      LPO12    LPD     -0.310000       0.00000          -1   0.00000       0.00000    
     15496 TFA      41       TFA      LPO21    LPD     -0.310000       0.00000          -1   0.00000       0.00000    
     15497 TFA      41       TFA      LPO22    LPD     -0.310000       0.00000          -1   0.00000       0.00000    
     15498 TFA      42       TFA      C1       CD2O2A    2.58500       11.6110           0 -0.800000      0.899000    
     15499 TFA      42       TFA      DC1      DRUD     -2.19500      0.400000           0   0.00000       0.00000    
     15500 TFA      42       TFA      C2       CD30A    0.450000       12.0110           0   0.00000       0.00000    
     15501 TFA      42       TFA      F1       FDA3      1.92530       18.5980           0 -0.750000       1.30000    
     15502 TFA      42       TFA      DF1      DRUD     -2.12530      0.400000           0   0.00000       0.00000    
     15503 TFA      42       TFA      F2       FDA3      1.92530       18.5980           0 -0.750000       1.30000    
     15504 TFA      42       TFA      DF2      DRUD     -2.12530      0.400000           0   0.00000       0.00000    
     15505 TFA      42       TFA      F3       FDA3      1.92530       18.5980           0 -0.750000       1.30000    
     15506 TFA      42       TFA      DF3      DRUD     -2.12530      0.400000           0   0.00000       0.00000    
     15507 TFA      42       TFA      O1       OD2C2A    1.45190       15.5994           0 -0.350000       2.39900    
     15508 TFA      42       TFA      DO1      DRUD     -1.45190      0.400000           0   0.00000       0.00000    
     15509 TFA      42       TFA      O2       OD2C2A    1.45190       15.5994           0 -0.350000       2.39900    
     15510 TFA      42       TFA      DO2      DRUD     -1.45190      0.400000           0   0.00000       0.00000    
     15511 TFA      42       TFA      LPO11    LPD     -0.310000       0.00000          -1   0.00000       0.00000    
     15512 TFA      42       TFA      LPO12    LPD     -0.310000       0.00000          -1   0.00000       0.00000    
     15513 TFA      42       TFA      LPO21    LPD     -0.310000       0.00000          -1   0.00000       0.00000    
     15514 TFA      42       TFA      LPO22    LPD     -0.310000       0.00000          -1   0.00000       0.00000    
     15515 TFA      43       TFA      C1       CD2O2A    2.58500       11.6110           0 -0.800000      0.899000    
     15516 TFA      43       TFA      DC1      DRUD     -2.19500      0.400000           0   0.00000       0.00000    
     15517 TFA      43       TFA      C2       CD30A    0.450000       12.0110           0   0.00000       0.00000    
     15518 TFA      43       TFA      F1       FDA3      1.92530       18.5980           0 -0.750000       1.30000    
     15519 TFA      43       TFA      DF1      DRUD     -2.12530      0.400000           0   0.00000       0.00000    
     15520 TFA      43       TFA      F2       FDA3      1.92530       18.5980           0 -0.750000       1.30000    
     15521 TFA      43       TFA      DF2      DRUD     -2.12530      0.400000           0   0.00000       0.00000    
     15522 TFA      43       TFA      F3       FDA3      1.92530       18.5980           0 -0.750000       1.30000    
     15523 TFA      43       TFA      DF3      DRUD     -2.12530      0.400000           0   0.00000       0.00000    
     15524 TFA      43       TFA      O1       OD2C2A    1.45190       15.5994           0 -0.350000       2.39900    
     15525 TFA      43       TFA      DO1      DRUD     -1.45190      0.400000           0   0.00000       0.00000    
     15526 TFA      43       TFA      O2       OD2C2A    1.45190       15.5994           0 -0.350000       2.39900    
     15527 TFA      43       TFA      DO2      DRUD     -1.45190      0.400000           0   0.00000       0.00000    
     15528 TFA      43       TFA      LPO11    LPD     -0.310000       0.00000          -1   0.00000       0.00000    
     15529 TFA      43       TFA      LPO12    LPD     -0.310000       0.00000          -1   0.00000       0.00000    
     15530 TFA      43       TFA      LPO21    LPD     -0.310000       0.00000          -1   0.00000       0.00000    
     15531 TFA      43       TFA      LPO22    LPD     -0.310000       0.00000          -1   0.00000       0.00000    
     15532 TFA      44       TFA      C1       CD2O2A    2.58500       11.6110           0 -0.800000      0.899000    
     15533 TFA      44       TFA      DC1      DRUD     -2.19500      0.400000           0   0.00000       0.00000    
     15534 TFA      44       TFA      C2       CD30A    0.450000       12.0110           0   0.00000       0.00000    
     15535 TFA      44       TFA      F1       FDA3      1.92530       18.5980           0 -0.750000       1.30000    
     15536 TFA      44       TFA      DF1      DRUD     -2.12530      0.400000           0   0.00000       0.00000    
     15537 TFA      44       TFA      F2       FDA3      1.92530       18.5980           0 -0.750000       1.30000    
     15538 TFA      44       TFA      DF2      DRUD     -2.12530      0.400000           0   0.00000       0.00000    
     15539 TFA      44       TFA      F3       FDA3      1.92530       18.5980           0 -0.750000       1.30000    
     15540 TFA      44       TFA      DF3      DRUD     -2.12530      0.400000           0   0.00000       0.00000    
     15541 TFA      44       TFA      O1       OD2C2A    1.45190       15.5994           0 -0.350000       2.39900    
     15542 TFA      44       TFA      DO1      DRUD     -1.45190      0.400000           0   0.00000       0.00000    
     15543 TFA      44       TFA      O2       OD2C2A    1.45190       15.5994           0 -0.350000       2.39900    
     15544 TFA      44       TFA      DO2      DRUD     -1.45190      0.400000           0   0.00000       0.00000    
     15545 TFA      44       TFA      LPO11    LPD     -0.310000       0.00000          -1   0.00000       0.00000    
     15546 TFA      44       TFA      LPO12    LPD     -0.310000       0.00000          -1   0.00000       0.00000    
     15547 TFA      44       TFA      LPO21    LPD     -0.310000       0.00000          -1   0.00000       0.00000    
     15548 TFA      44       TFA      LPO22    LPD     -0.310000       0.00000          -1   0.00000       0.00000    
     15549 TFA      45       TFA      C1       CD2O2A    2.58500       11.6110           0 -0.800000      0.899000    
     15550 TFA      45       TFA      DC1      DRUD     -2.19500      0.400000           0   0.00000       0.00000    
     15551 TFA      45       TFA      C2       CD30A    0.450000       12.0110           0   0.00000       0.00000    
     15552 TFA      45       TFA      F1       FDA3      1.92530       18.5980           0 -0.750000       1.30000    
     15553 TFA      45       TFA      DF1      DRUD     -2.12530      0.400000           0   0.00000       0.00000    
     15554 TFA      45       TFA      F2       FDA3      1.92530       18.5980           0 -0.750000       1.30000    
     15555 TFA      45       TFA      DF2      DRUD     -2.12530      0.400000           0   0.00000       0.00000    
     15556 TFA      45       TFA      F3       FDA3      1.92530       18.5980           0 -0.750000       1.30000    
     15557 TFA      45       TFA      DF3      DRUD     -2.12530      0.400000           0   0.00000       0.00000    
     15558 TFA      45       TFA      O1       OD2C2A    1.45190       15.5994           0 -0.350000       2.39900    
     15559 TFA      45       TFA      DO1      DRUD     -1.45190      0.400000           0   0.00000       0.00000    
     15560 TFA      45       TFA      O2       OD2C2A    1.45190       15.5994           0 -0.350000       2.39900    
     15561 TFA      45       TFA      DO2      DRUD     -1.45190      0.400000           0   0.00000       0.00000    
     15562 TFA      45       TFA      LPO11    LPD     -0.310000       0.00000          -1   0.00000       0.00000    
     15563 TFA      45       TFA      LPO12    LPD     -0.310000       0.00000          -1   0.00000       0.00000    
     15564 TFA      45       TFA      LPO21    LPD     -0.310000       0.00000          -1   0.00000       0.00000    
     15565 TFA      45       TFA      LPO22    LPD     -0.310000       0.00000          -1   0.00000       0.00000    
     15566 TFA      46       TFA      C1       CD2O2A    2.58500       11.6110           0 -0.800000      0.899000    
     15567 TFA      46       TFA      DC1      DRUD     -2.19500      0.400000           0   0.00000       0.00000    
     15568 TFA      46       TFA      C2       CD30A    0.450000       12.0110           0   0.00000       0.00000    
     15569 TFA      46       TFA      F1       FDA3      1.92530       18.5980           0 -0.750000       1.30000    
     15570 TFA      46       TFA      DF1      DRUD     -2.12530      0.400000           0   0.00000       0.00000    
     15571 TFA      46       TFA      F2       FDA3      1.92530       18.5980           0 -0.750000       1.30000    
     15572 TFA      46       TFA      DF2      DRUD     -2.12530      0.400000           0   0.00000       0.00000    
     15573 TFA      46       TFA      F3       FDA3      1.92530       18.5980           0 -0.750000       1.30000    
     15574 TFA      46       TFA      DF3      DRUD     -2.12530      0.400000           0   0.00000       0.00000    
     15575 TFA      46       TFA      O1       OD2C2A    1.45190       15.5994           0 -0.350000       2.39900    
     15576 TFA      46       TFA      DO1      DRUD     -1.45190      0.400000           0   0.00000       0.00000    
     15577 TFA      46       TFA      O2       OD2C2A    1.45190       15.5994           0 -0.350000       2.39900    
     15578 TFA      46       TFA      DO2      DRUD     -1.45190      0.400000           0   0.00000       0.00000    
     15579 TFA      46       TFA      LPO11    LPD     -0.310000       0.00000          -1   0.00000       0.00000    
     15580 TFA      46       TFA      LPO12    LPD     -0.310000       0.00000          -1   0.00000       0.00000    
     15581 TFA      46       TFA      LPO21    LPD     -0.310000       0.00000          -1   0.00000       0.00000    
     15582 TFA      46       TFA      LPO22    LPD     -0.310000       0.00000          -1   0.00000       0.00000    
     15583 TFA      47       TFA      C1       CD2O2A    2.58500       11.6110           0 -0.800000      0.899000    
     15584 TFA      47       TFA      DC1      DRUD     -2.19500      0.400000           0   0.00000       0.00000    
     15585 TFA      47       TFA      C2       CD30A    0.450000       12.0110           0   0.00000       0.00000    
     15586 TFA      47       TFA      F1       FDA3      1.92530       18.5980           0 -0.750000       1.30000    
     15587 TFA      47       TFA      DF1      DRUD     -2.12530      0.400000           0   0.00000       0.00000    
     15588 TFA      47       TFA      F2       FDA3      1.92530       18.5980           0 -0.750000       1.30000    
     15589 TFA      47       TFA      DF2      DRUD     -2.12530      0.400000           0   0.00000       0.00000    
     15590 TFA      47       TFA      F3       FDA3      1.92530       18.5980           0 -0.750000       1.30000    
     15591 TFA      47       TFA      DF3      DRUD     -2.12530      0.400000           0   0.00000       0.00000    
     15592 TFA      47       TFA      O1       OD2C2A    1.45190       15.5994           0 -0.350000       2.39900    
     15593 TFA      47       TFA      DO1      DRUD     -1.45190      0.400000           0   0.00000       0.00000    
     15594 TFA      47       TFA      O2       OD2C2A    1.45190       15.5994           0 -0.350000       2.39900    
     15595 TFA      47       TFA      DO2      DRUD     -1.45190      0.400000           0   0.00000       0.00000    
     15596 TFA      47       TFA      LPO11    LPD     -0.310000       0.00000          -1   0.00000       0.00000    
     15597 TFA      47       TFA      LPO12    LPD     -0.310000       0.00000          -1   0.00000       0.00000    
     15598 TFA      47       TFA      LPO21    LPD     -0.310000       0.00000          -1   0.00000       0.00000    
     15599 TFA      47       TFA      LPO22    LPD     -0.310000       0.00000          -1   0.00000       0.00000    
     15600 TFA      48       TFA      C1       CD2O2A    2.58500       11.6110           0 -0.800000      0.899000    
     15601 TFA      48       TFA      DC1      DRUD     -2.19500      0.400000           0   0.00000       0.00000    
     15602 TFA      48       TFA      C2       CD30A    0.450000       12.0110           0   0.00000       0.00000    
     15603 TFA      48       TFA      F1       FDA3      1.92530       18.5980           0 -0.750000       1.30000    
     15604 TFA      48       TFA      DF1      DRUD     -2.12530      0.400000           0   0.00000       0.00000    
     15605 TFA      48       TFA      F2       FDA3      1.92530       18.5980           0 -0.750000       1.30000    
     15606 TFA      48       TFA      DF2      DRUD     -2.12530      0.400000           0   0.00000       0.00000    
     15607 TFA      48       TFA      F3       FDA3      1.92530       18.5980           0 -0.750000       1.30000    
     15608 TFA      48       TFA      DF3      DRUD     -2.12530      0.400000           0   0.00000       0.00000    
     15609 TFA      48       TFA      O1       OD2C2A    1.45190       15.5994           0 -0.350000       2.39900    
     15610 TFA      48       TFA      DO1      DRUD     -1.45190      0.400000           0   0.00000       0.00000    
     15611 TFA      48       TFA      O2       OD2C2A    1.45190       15.5994           0 -0.350000       2.39900    
     15612 TFA      48       TFA      DO2      DRUD     -1.45190      0.400000           0   0.00000       0.00000    
     15613 TFA      48       TFA      LPO11    LPD     -0.310000       0.00000          -1   0.00000       0.00000    
     15614 TFA      48       TFA      LPO12    LPD     -0.310000       0.00000          -1   0.00000       0.00000    
     15615 TFA      48       TFA      LPO21    LPD     -0.310000       0.00000          -1   0.00000       0.00000    
     15616 TFA      48       TFA      LPO22    LPD     -0.310000       0.00000          -1   0.00000       0.00000    
     15617 TFA      49       TFA      C1       CD2O2A    2.58500       11.6110           0 -0.800000      0.899000    
     15618 TFA      49       TFA      DC1      DRUD     -2.19500      0.400000           0   0.00000       0.00000    
     15619 TFA      49       TFA      C2       CD30A    0.450000       12.0110           0   0.00000       0.00000    
     15620 TFA      49       TFA      F1       FDA3      1.92530       18.5980           0 -0.750000       1.30000    
     15621 TFA      49       TFA      DF1      DRUD     -2.12530      0.400000           0   0.00000       0.00000    
     15622 TFA      49       TFA      F2       FDA3      1.92530       18.5980           0 -0.750000       1.30000    
     15623 TFA      49       TFA      DF2      DRUD     -2.12530      0.400000           0   0.00000       0.00000    
     15624 TFA      49       TFA      F3       FDA3      1.92530       18.5980           0 -0.750000       1.30000    
     15625 TFA      49       TFA      DF3      DRUD     -2.12530      0.400000           0   0.00000       0.00000    
     15626 TFA      49       TFA      O1       OD2C2A    1.45190       15.5994           0 -0.350000       2.39900    
     15627 TFA      49       TFA      DO1      DRUD     -1.45190      0.400000           0   0.00000       0.00000    
     15628 TFA      49       TFA      O2       OD2C2A    1.45190       15.5994           0 -0.350000       2.39900    
     15629 TFA      49       TFA      DO2      DRUD     -1.45190      0.400000           0   0.00000       0.00000    
     15630 TFA      49       TFA      LPO11    LPD     -0.310000       0.00000          -1   0.00000       0.00000    
     15631 TFA      49       TFA      LPO12    LPD     -0.310000       0.00000          -1   0.00000       0.00000    
     15632 TFA      49       TFA      LPO21    LPD     -0.310000       0.00000          -1   0.00000       0.00000    
     15633 TFA      49       TFA      LPO22    LPD     -0.310000       0.00000          -1   0.00000       0.00000    
     15634 TFA      50       TFA      C1       CD2O2A    2.58500       11.6110           0 -0.800000      0.899000    
     15635 TFA      50       TFA      DC1      DRUD     -2.19500      0.400000           0   0.00000       0.00000    
     15636 TFA      50       TFA      C2       CD30A    0.450000       12.0110           0   0.00000       0.00000    
     15637 TFA      50       TFA      F1       FDA3      1.92530       18.5980           0 -0.750000       1.30000    
     15638 TFA      50       TFA      DF1      DRUD     -2.12530      0.400000           0   0.00000       0.00000    
     15639 TFA      50       TFA      F2       FDA3      1.92530       18.5980           0 -0.750000       1.30000    
     15640 TFA      50       TFA      DF2      DRUD     -2.12530      0.400000           0   0.00000       0.00000    
     15641 TFA      50       TFA      F3       FDA3      1.92530       18.5980           0 -0.750000       1.30000    
     15642 TFA      50       TFA      DF3      DRUD     -2.12530      0.400000           0   0.00000       0.00000    
     15643 TFA      50       TFA      O1       OD2C2A    1.45190       15.5994           0 -0.350000       2.39900    
     15644 TFA      50       TFA      DO1      DRUD     -1.45190      0.400000           0   0.00000       0.00000    
     15645 TFA      50       TFA      O2       OD2C2A    1.45190       15.5994           0 -0.350000       2.39900    
     15646 TFA      50       TFA      DO2      DRUD     -1.45190      0.400000           0   0.00000       0.00000    
     15647 TFA      50       TFA      LPO11    LPD     -0.310000       0.00000          -1   0.00000       0.00000    
     15648 TFA      50       TFA      LPO12    LPD     -0.310000       0.00000          -1   0.00000       0.00000    
     15649 TFA      50       TFA      LPO21    LPD     -0.310000       0.00000          -1   0.00000       0.00000    
     15650 TFA      50       TFA      LPO22    LPD     -0.310000       0.00000          -1   0.00000       0.00000    
     15651 TFA      51       TFA      C1       CD2O2A    2.58500       11.6110           0 -0.800000      0.899000    
     15652 TFA      51       TFA      DC1      DRUD     -2.19500      0.400000           0   0.00000       0.00000    
     15653 TFA      51       TFA      C2       CD30A    0.450000       12.0110           0   0.00000       0.00000    
     15654 TFA      51       TFA      F1       FDA3      1.92530       18.5980           0 -0.750000       1.30000    
     15655 TFA      51       TFA      DF1      DRUD     -2.12530      0.400000           0   0.00000       0.00000    
     15656 TFA      51       TFA      F2       FDA3      1.92530       18.5980           0 -0.750000       1.30000    
     15657 TFA      51       TFA      DF2      DRUD     -2.12530      0.400000           0   0.00000       0.00000    
     15658 TFA      51       TFA      F3       FDA3      1.92530       18.5980           0 -0.750000       1.30000    
     15659 TFA      51       TFA      DF3      DRUD     -2.12530      0.400000           0   0.00000       0.00000    
     15660 TFA      51       TFA      O1       OD2C2A    1.45190       15.5994           0 -0.350000       2.39900    
     15661 TFA      51       TFA      DO1      DRUD     -1.45190      0.400000           0   0.00000       0.00000    
     15662 TFA      51       TFA      O2       OD2C2A    1.45190       15.5994           0 -0.350000       2.39900    
     15663 TFA      51       TFA      DO2      DRUD     -1.45190      0.400000           0   0.00000       0.00000    
     15664 TFA      51       TFA      LPO11    LPD     -0.310000       0.00000          -1   0.00000       0.00000    
     15665 TFA      51       TFA      LPO12    LPD     -0.310000       0.00000          -1   0.00000       0.00000    
     15666 TFA      51       TFA      LPO21    LPD     -0.310000       0.00000          -1   0.00000       0.00000    
     15667 TFA      51       TFA      LPO22    LPD     -0.310000       0.00000          -1   0.00000       0.00000    
     15668 TFA      52       TFA      C1       CD2O2A    2.58500       11.6110           0 -0.800000      0.899000    
     15669 TFA      52       TFA      DC1      DRUD     -2.19500      0.400000           0   0.00000       0.00000    
     15670 TFA      52       TFA      C2       CD30A    0.450000       12.0110           0   0.00000       0.00000    
     15671 TFA      52       TFA      F1       FDA3      1.92530       18.5980           0 -0.750000       1.30000    
     15672 TFA      52       TFA      DF1      DRUD     -2.12530      0.400000           0   0.00000       0.00000    
     15673 TFA      52       TFA      F2       FDA3      1.92530       18.5980           0 -0.750000       1.30000    
     15674 TFA      52       TFA      DF2      DRUD     -2.12530      0.400000           0   0.00000       0.00000    
     15675 TFA      52       TFA      F3       FDA3      1.92530       18.5980           0 -0.750000       1.30000    
     15676 TFA      52       TFA      DF3      DRUD     -2.12530      0.400000           0   0.00000       0.00000    
     15677 TFA      52       TFA      O1       OD2C2A    1.45190       15.5994           0 -0.350000       2.39900    
     15678 TFA      52       TFA      DO1      DRUD     -1.45190      0.400000           0   0.00000       0.00000    
     15679 TFA      52       TFA      O2       OD2C2A    1.45190       15.5994           0 -0.350000       2.39900    
     15680 TFA      52       TFA      DO2      DRUD     -1.45190      0.400000           0   0.00000       0.00000    
     15681 TFA      52       TFA      LPO11    LPD     -0.310000       0.00000          -1   0.00000       0.00000    
     15682 TFA      52       TFA      LPO12    LPD     -0.310000       0.00000          -1   0.00000       0.00000    
     15683 TFA      52       TFA      LPO21    LPD     -0.310000       0.00000          -1   0.00000       0.00000    
     15684 TFA      52       TFA      LPO22    LPD     -0.310000       0.00000          -1   0.00000       0.00000    
     15685 TFA      53       TFA      C1       CD2O2A    2.58500       11.6110           0 -0.800000      0.899000    
     15686 TFA      53       TFA      DC1      DRUD     -2.19500      0.400000           0   0.00000       0.00000    
     15687 TFA      53       TFA      C2       CD30A    0.450000       12.0110           0   0.00000       0.00000    
     15688 TFA      53       TFA      F1       FDA3      1.92530       18.5980           0 -0.750000       1.30000    
     15689 TFA      53       TFA      DF1      DRUD     -2.12530      0.400000           0   0.00000       0.00000    
     15690 TFA      53       TFA      F2       FDA3      1.92530       18.5980           0 -0.750000       1.30000    
     15691 TFA      53       TFA      DF2      DRUD     -2.12530      0.400000           0   0.00000       0.00000    
     15692 TFA      53       TFA      F3       FDA3      1.92530       18.5980           0 -0.750000       1.30000    
     15693 TFA      53       TFA      DF3      DRUD     -2.12530      0.400000           0   0.00000       0.00000    
     15694 TFA      53       TFA      O1       OD2C2A    1.45190       15.5994           0 -0.350000       2.39900    
     15695 TFA      53       TFA      DO1      DRUD     -1.45190      0.400000           0   0.00000       0.00000    
     15696 TFA      53       TFA      O2       OD2C2A    1.45190       15.5994           0 -0.350000       2.39900    
     15697 TFA      53       TFA      DO2      DRUD     -1.45190      0.400000           0   0.00000       0.00000    
     15698 TFA      53       TFA      LPO11    LPD     -0.310000       0.00000          -1   0.00000       0.00000    
     15699 TFA      53       TFA      LPO12    LPD     -0.310000       0.00000          -1   0.00000       0.00000    
     15700 TFA      53       TFA      LPO21    LPD     -0.310000       0.00000          -1   0.00000       0.00000    
     15701 TFA      53       TFA      LPO22    LPD     -0.310000       0.00000          -1   0.00000       0.00000    
     15702 TFA      54       TFA      C1       CD2O2A    2.58500       11.6110           0 -0.800000      0.899000    
     15703 TFA      54       TFA      DC1      DRUD     -2.19500      0.400000           0   0.00000       0.00000    
     15704 TFA      54       TFA      C2       CD30A    0.450000       12.0110           0   0.00000       0.00000    
     15705 TFA      54       TFA      F1       FDA3      1.92530       18.5980           0 -0.750000       1.30000    
     15706 TFA      54       TFA      DF1      DRUD     -2.12530      0.400000           0   0.00000       0.00000    
     15707 TFA      54       TFA      F2       FDA3      1.92530       18.5980           0 -0.750000       1.30000    
     15708 TFA      54       TFA      DF2      DRUD     -2.12530      0.400000           0   0.00000       0.00000    
     15709 TFA      54       TFA      F3       FDA3      1.92530       18.5980           0 -0.750000       1.30000    
     15710 TFA      54       TFA      DF3      DRUD     -2.12530      0.400000           0   0.00000       0.00000    
     15711 TFA      54       TFA      O1       OD2C2A    1.45190       15.5994           0 -0.350000       2.39900    
     15712 TFA      54       TFA      DO1      DRUD     -1.45190      0.400000           0   0.00000       0.00000    
     15713 TFA      54       TFA      O2       OD2C2A    1.45190       15.5994           0 -0.350000       2.39900    
     15714 TFA      54       TFA      DO2      DRUD     -1.45190      0.400000           0   0.00000       0.00000    
     15715 TFA      54       TFA      LPO11    LPD     -0.310000       0.00000          -1   0.00000       0.00000    
     15716 TFA      54       TFA      LPO12    LPD     -0.310000       0.00000          -1   0.00000       0.00000    
     15717 TFA      54       TFA      LPO21    LPD     -0.310000       0.00000          -1   0.00000       0.00000    
     15718 TFA      54       TFA      LPO22    LPD     -0.310000       0.00000          -1   0.00000       0.00000    
     15719 TFA      55       TFA      C1       CD2O2A    2.58500       11.6110           0 -0.800000      0.899000    
     15720 TFA      55       TFA      DC1      DRUD     -2.19500      0.400000           0   0.00000       0.00000    
     15721 TFA      55       TFA      C2       CD30A    0.450000       12.0110           0   0.00000       0.00000    
     15722 TFA      55       TFA      F1       FDA3      1.92530       18.5980           0 -0.750000       1.30000    
     15723 TFA      55       TFA      DF1      DRUD     -2.12530      0.400000           0   0.00000       0.00000    
     15724 TFA      55       TFA      F2       FDA3      1.92530       18.5980           0 -0.750000       1.30000    
     15725 TFA      55       TFA      DF2      DRUD     -2.12530      0.400000           0   0.00000       0.00000    
     15726 TFA      55       TFA      F3       FDA3      1.92530       18.5980           0 -0.750000       1.30000    
     15727 TFA      55       TFA      DF3      DRUD     -2.12530      0.400000           0   0.00000       0.00000    
     15728 TFA      55       TFA      O1       OD2C2A    1.45190       15.5994           0 -0.350000       2.39900    
     15729 TFA      55       TFA      DO1      DRUD     -1.45190      0.400000           0   0.00000       0.00000    
     15730 TFA      55       TFA      O2       OD2C2A    1.45190       15.5994           0 -0.350000       2.39900    
     15731 TFA      55       TFA      DO2      DRUD     -1.45190      0.400000           0   0.00000       0.00000    
     15732 TFA      55       TFA      LPO11    LPD     -0.310000       0.00000          -1   0.00000       0.00000    
     15733 TFA      55       TFA      LPO12    LPD     -0.310000       0.00000          -1   0.00000       0.00000    
     15734 TFA      55       TFA      LPO21    LPD     -0.310000       0.00000          -1   0.00000       0.00000    
     15735 TFA      55       TFA      LPO22    LPD     -0.310000       0.00000          -1   0.00000       0.00000    
     15736 TFA      56       TFA      C1       CD2O2A    2.58500       11.6110           0 -0.800000      0.899000    
     15737 TFA      56       TFA      DC1      DRUD     -2.19500      0.400000           0   0.00000       0.00000    
     15738 TFA      56       TFA      C2       CD30A    0.450000       12.0110           0   0.00000       0.00000    
     15739 TFA      56       TFA      F1       FDA3      1.92530       18.5980           0 -0.750000       1.30000    
     15740 TFA      56       TFA      DF1      DRUD     -2.12530      0.400000           0   0.00000       0.00000    
     15741 TFA      56       TFA      F2       FDA3      1.92530       18.5980           0 -0.750000       1.30000    
     15742 TFA      56       TFA      DF2      DRUD     -2.12530      0.400000           0   0.00000       0.00000    
     15743 TFA      56       TFA      F3       FDA3      1.92530       18.5980           0 -0.750000       1.30000    
     15744 TFA      56       TFA      DF3      DRUD     -2.12530      0.400000           0   0.00000       0.00000    
     15745 TFA      56       TFA      O1       OD2C2A    1.45190       15.5994           0 -0.350000       2.39900    
     15746 TFA      56       TFA      DO1      DRUD     -1.45190      0.400000           0   0.00000       0.00000    
     15747 TFA      56       TFA      O2       OD2C2A    1.45190       15.5994           0 -0.350000       2.39900    
     15748 TFA      56       TFA      DO2      DRUD     -1.45190      0.400000           0   0.00000       0.00000    
     15749 TFA      56       TFA      LPO11    LPD     -0.310000       0.00000          -1   0.00000       0.00000    
     15750 TFA      56       TFA      LPO12    LPD     -0.310000       0.00000          -1   0.00000       0.00000    
     15751 TFA      56       TFA      LPO21    LPD     -0.310000       0.00000          -1   0.00000       0.00000    
     15752 TFA      56       TFA      LPO22    LPD     -0.310000       0.00000          -1   0.00000       0.00000    
     15753 TFA      57       TFA      C1       CD2O2A    2.58500       11.6110           0 -0.800000      0.899000    
     15754 TFA      57       TFA      DC1      DRUD     -2.19500      0.400000           0   0.00000       0.00000    
     15755 TFA      57       TFA      C2       CD30A    0.450000       12.0110           0   0.00000       0.00000    
     15756 TFA      57       TFA      F1       FDA3      1.92530       18.5980           0 -0.750000       1.30000    
     15757 TFA      57       TFA      DF1      DRUD     -2.12530      0.400000           0   0.00000       0.00000    
     15758 TFA      57       TFA      F2       FDA3      1.92530       18.5980           0 -0.750000       1.30000    
     15759 TFA      57       TFA      DF2      DRUD     -2.12530      0.400000           0   0.00000       0.00000    
     15760 TFA      57       TFA      F3       FDA3      1.92530       18.5980           0 -0.750000       1.30000    
     15761 TFA      57       TFA      DF3      DRUD     -2.12530      0.400000           0   0.00000       0.00000    
     15762 TFA      57       TFA      O1       OD2C2A    1.45190       15.5994           0 -0.350000       2.39900    
     15763 TFA      57       TFA      DO1      DRUD     -1.45190      0.400000           0   0.00000       0.00000    
     15764 TFA      57       TFA      O2       OD2C2A    1.45190       15.5994           0 -0.350000       2.39900    
     15765 TFA      57       TFA      DO2      DRUD     -1.45190      0.400000           0   0.00000       0.00000    
     15766 TFA      57       TFA      LPO11    LPD     -0.310000       0.00000          -1   0.00000       0.00000    
     15767 TFA      57       TFA      LPO12    LPD     -0.310000       0.00000          -1   0.00000       0.00000    
     15768 TFA      57       TFA      LPO21    LPD     -0.310000       0.00000          -1   0.00000       0.00000    
     15769 TFA      57       TFA      LPO22    LPD     -0.310000       0.00000          -1   0.00000       0.00000    
     15770 TFA      58       TFA      C1       CD2O2A    2.58500       11.6110           0 -0.800000      0.899000    
     15771 TFA      58       TFA      DC1      DRUD     -2.19500      0.400000           0   0.00000       0.00000    
     15772 TFA      58       TFA      C2       CD30A    0.450000       12.0110           0   0.00000       0.00000    
     15773 TFA      58       TFA      F1       FDA3      1.92530       18.5980           0 -0.750000       1.30000    
     15774 TFA      58       TFA      DF1      DRUD     -2.12530      0.400000           0   0.00000       0.00000    
     15775 TFA      58       TFA      F2       FDA3      1.92530       18.5980           0 -0.750000       1.30000    
     15776 TFA      58       TFA      DF2      DRUD     -2.12530      0.400000           0   0.00000       0.00000    
     15777 TFA      58       TFA      F3       FDA3      1.92530       18.5980           0 -0.750000       1.30000    
     15778 TFA      58       TFA      DF3      DRUD     -2.12530      0.400000           0   0.00000       0.00000    
     15779 TFA      58       TFA      O1       OD2C2A    1.45190       15.5994           0 -0.350000       2.39900    
     15780 TFA      58       TFA      DO1      DRUD     -1.45190      0.400000           0   0.00000       0.00000    
     15781 TFA      58       TFA      O2       OD2C2A    1.45190       15.5994           0 -0.350000       2.39900    
     15782 TFA      58       TFA      DO2      DRUD     -1.45190      0.400000           0   0.00000       0.00000    
     15783 TFA      58       TFA      LPO11    LPD     -0.310000       0.00000          -1   0.00000       0.00000    
     15784 TFA      58       TFA      LPO12    LPD     -0.310000       0.00000          -1   0.00000       0.00000    
     15785 TFA      58       TFA      LPO21    LPD     -0.310000       0.00000          -1   0.00000       0.00000    
     15786 TFA      58       TFA      LPO22    LPD     -0.310000       0.00000          -1   0.00000       0.00000    
     15787 TFA      59       TFA      C1       CD2O2A    2.58500       11.6110           0 -0.800000      0.899000    
     15788 TFA      59       TFA      DC1      DRUD     -2.19500      0.400000           0   0.00000       0.00000    
     15789 TFA      59       TFA      C2       CD30A    0.450000       12.0110           0   0.00000       0.00000    
     15790 TFA      59       TFA      F1       FDA3      1.92530       18.5980           0 -0.750000       1.30000    
     15791 TFA      59       TFA      DF1      DRUD     -2.12530      0.400000           0   0.00000       0.00000    
     15792 TFA      59       TFA      F2       FDA3      1.92530       18.5980           0 -0.750000       1.30000    
     15793 TFA      59       TFA      DF2      DRUD     -2.12530      0.400000           0   0.00000       0.00000    
     15794 TFA      59       TFA      F3       FDA3      1.92530       18.5980           0 -0.750000       1.30000    
     15795 TFA      59       TFA      DF3      DRUD     -2.12530      0.400000           0   0.00000       0.00000    
     15796 TFA      59       TFA      O1       OD2C2A    1.45190       15.5994           0 -0.350000       2.39900    
     15797 TFA      59       TFA      DO1      DRUD     -1.45190      0.400000           0   0.00000       0.00000    
     15798 TFA      59       TFA      O2       OD2C2A    1.45190       15.5994           0 -0.350000       2.39900    
     15799 TFA      59       TFA      DO2      DRUD     -1.45190      0.400000           0   0.00000       0.00000    
     15800 TFA      59       TFA      LPO11    LPD     -0.310000       0.00000          -1   0.00000       0.00000    
     15801 TFA      59       TFA      LPO12    LPD     -0.310000       0.00000          -1   0.00000       0.00000    
     15802 TFA      59       TFA      LPO21    LPD     -0.310000       0.00000          -1   0.00000       0.00000    
     15803 TFA      59       TFA      LPO22    LPD     -0.310000       0.00000          -1   0.00000       0.00000    
     15804 TFA      60       TFA      C1       CD2O2A    2.58500       11.6110           0 -0.800000      0.899000    
     15805 TFA      60       TFA      DC1      DRUD     -2.19500      0.400000           0   0.00000       0.00000    
     15806 TFA      60       TFA      C2       CD30A    0.450000       12.0110           0   0.00000       0.00000    
     15807 TFA      60       TFA      F1       FDA3      1.92530       18.5980           0 -0.750000       1.30000    
     15808 TFA      60       TFA      DF1      DRUD     -2.12530      0.400000           0   0.00000       0.00000    
     15809 TFA      60       TFA      F2       FDA3      1.92530       18.5980           0 -0.750000       1.30000    
     15810 TFA      60       TFA      DF2      DRUD     -2.12530      0.400000           0   0.00000       0.00000    
     15811 TFA      60       TFA      F3       FDA3      1.92530       18.5980           0 -0.750000       1.30000    
     15812 TFA      60       TFA      DF3      DRUD     -2.12530      0.400000           0   0.00000       0.00000    
     15813 TFA      60       TFA      O1       OD2C2A    1.45190       15.5994           0 -0.350000       2.39900    
     15814 TFA      60       TFA      DO1      DRUD     -1.45190      0.400000           0   0.00000       0.00000    
     15815 TFA      60       TFA      O2       OD2C2A    1.45190       15.5994           0 -0.350000       2.39900    
     15816 TFA      60       TFA      DO2      DRUD     -1.45190      0.400000           0   0.00000       0.00000    
     15817 TFA      60       TFA      LPO11    LPD     -0.310000       0.00000          -1   0.00000       0.00000    
     15818 TFA      60       TFA      LPO12    LPD     -0.310000       0.00000          -1   0.00000       0.00000    
     15819 TFA      60       TFA      LPO21    LPD     -0.310000       0.00000          -1   0.00000       0.00000    
     15820 TFA      60       TFA      LPO22    LPD     -0.310000       0.00000          -1   0.00000       0.00000    
     15821 TFA      61       TFA      C1       CD2O2A    2.58500       11.6110           0 -0.800000      0.899000    
     15822 TFA      61       TFA      DC1      DRUD     -2.19500      0.400000           0   0.00000       0.00000    
     15823 TFA      61       TFA      C2       CD30A    0.450000       12.0110           0   0.00000       0.00000    
     15824 TFA      61       TFA      F1       FDA3      1.92530       18.5980           0 -0.750000       1.30000    
     15825 TFA      61       TFA      DF1      DRUD     -2.12530      0.400000           0   0.00000       0.00000    
     15826 TFA      61       TFA      F2       FDA3      1.92530       18.5980           0 -0.750000       1.30000    
     15827 TFA      61       TFA      DF2      DRUD     -2.12530      0.400000           0   0.00000       0.00000    
     15828 TFA      61       TFA      F3       FDA3      1.92530       18.5980           0 -0.750000       1.30000    
     15829 TFA      61       TFA      DF3      DRUD     -2.12530      0.400000           0   0.00000       0.00000    
     15830 TFA      61       TFA      O1       OD2C2A    1.45190       15.5994           0 -0.350000       2.39900    
     15831 TFA      61       TFA      DO1      DRUD     -1.45190      0.400000           0   0.00000       0.00000    
     15832 TFA      61       TFA      O2       OD2C2A    1.45190       15.5994           0 -0.350000       2.39900    
     15833 TFA      61       TFA      DO2      DRUD     -1.45190      0.400000           0   0.00000       0.00000    
     15834 TFA      61       TFA      LPO11    LPD     -0.310000       0.00000          -1   0.00000       0.00000    
     15835 TFA      61       TFA      LPO12    LPD     -0.310000       0.00000          -1   0.00000       0.00000    
     15836 TFA      61       TFA      LPO21    LPD     -0.310000       0.00000          -1   0.00000       0.00000    
     15837 TFA      61       TFA      LPO22    LPD     -0.310000       0.00000          -1   0.00000       0.00000    
     15838 TFA      62       TFA      C1       CD2O2A    2.58500       11.6110           0 -0.800000      0.899000    
     15839 TFA      62       TFA      DC1      DRUD     -2.19500      0.400000           0   0.00000       0.00000    
     15840 TFA      62       TFA      C2       CD30A    0.450000       12.0110           0   0.00000       0.00000    
     15841 TFA      62       TFA      F1       FDA3      1.92530       18.5980           0 -0.750000       1.30000    
     15842 TFA      62       TFA      DF1      DRUD     -2.12530      0.400000           0   0.00000       0.00000    
     15843 TFA      62       TFA      F2       FDA3      1.92530       18.5980           0 -0.750000       1.30000    
     15844 TFA      62       TFA      DF2      DRUD     -2.12530      0.400000           0   0.00000       0.00000    
     15845 TFA      62       TFA      F3       FDA3      1.92530       18.5980           0 -0.750000       1.30000    
     15846 TFA      62       TFA      DF3      DRUD     -2.12530      0.400000           0   0.00000       0.00000    
     15847 TFA      62       TFA      O1       OD2C2A    1.45190       15.5994           0 -0.350000       2.39900    
     15848 TFA      62       TFA      DO1      DRUD     -1.45190      0.400000           0   0.00000       0.00000    
     15849 TFA      62       TFA      O2       OD2C2A    1.45190       15.5994           0 -0.350000       2.39900    
     15850 TFA      62       TFA      DO2      DRUD     -1.45190      0.400000           0   0.00000       0.00000    
     15851 TFA      62       TFA      LPO11    LPD     -0.310000       0.00000          -1   0.00000       0.00000    
     15852 TFA      62       TFA      LPO12    LPD     -0.310000       0.00000          -1   0.00000       0.00000    
     15853 TFA      62       TFA      LPO21    LPD     -0.310000       0.00000          -1   0.00000       0.00000    
     15854 TFA      62       TFA      LPO22    LPD     -0.310000       0.00000          -1   0.00000       0.00000    
     15855 TFA      63       TFA      C1       CD2O2A    2.58500       11.6110           0 -0.800000      0.899000    
     15856 TFA      63       TFA      DC1      DRUD     -2.19500      0.400000           0   0.00000       0.00000    
     15857 TFA      63       TFA      C2       CD30A    0.450000       12.0110           0   0.00000       0.00000    
     15858 TFA      63       TFA      F1       FDA3      1.92530       18.5980           0 -0.750000       1.30000    
     15859 TFA      63       TFA      DF1      DRUD     -2.12530      0.400000           0   0.00000       0.00000    
     15860 TFA      63       TFA      F2       FDA3      1.92530       18.5980           0 -0.750000       1.30000    
     15861 TFA      63       TFA      DF2      DRUD     -2.12530      0.400000           0   0.00000       0.00000    
     15862 TFA      63       TFA      F3       FDA3      1.92530       18.5980           0 -0.750000       1.30000    
     15863 TFA      63       TFA      DF3      DRUD     -2.12530      0.400000           0   0.00000       0.00000    
     15864 TFA      63       TFA      O1       OD2C2A    1.45190       15.5994           0 -0.350000       2.39900    
     15865 TFA      63       TFA      DO1      DRUD     -1.45190      0.400000           0   0.00000       0.00000    
     15866 TFA      63       TFA      O2       OD2C2A    1.45190       15.5994           0 -0.350000       2.39900    
     15867 TFA      63       TFA      DO2      DRUD     -1.45190      0.400000           0   0.00000       0.00000    
     15868 TFA      63       TFA      LPO11    LPD     -0.310000       0.00000          -1   0.00000       0.00000    
     15869 TFA      63       TFA      LPO12    LPD     -0.310000       0.00000          -1   0.00000       0.00000    
     15870 TFA      63       TFA      LPO21    LPD     -0.310000       0.00000          -1   0.00000       0.00000    
     15871 TFA      63       TFA      LPO22    LPD     -0.310000       0.00000          -1   0.00000       0.00000    
     15872 TFA      64       TFA      C1       CD2O2A    2.58500       11.6110           0 -0.800000      0.899000    
     15873 TFA      64       TFA      DC1      DRUD     -2.19500      0.400000           0   0.00000       0.00000    
     15874 TFA      64       TFA      C2       CD30A    0.450000       12.0110           0   0.00000       0.00000    
     15875 TFA      64       TFA      F1       FDA3      1.92530       18.5980           0 -0.750000       1.30000    
     15876 TFA      64       TFA      DF1      DRUD     -2.12530      0.400000           0   0.00000       0.00000    
     15877 TFA      64       TFA      F2       FDA3      1.92530       18.5980           0 -0.750000       1.30000    
     15878 TFA      64       TFA      DF2      DRUD     -2.12530      0.400000           0   0.00000       0.00000    
     15879 TFA      64       TFA      F3       FDA3      1.92530       18.5980           0 -0.750000       1.30000    
     15880 TFA      64       TFA      DF3      DRUD     -2.12530      0.400000           0   0.00000       0.00000    
     15881 TFA      64       TFA      O1       OD2C2A    1.45190       15.5994           0 -0.350000       2.39900    
     15882 TFA      64       TFA      DO1      DRUD     -1.45190      0.400000           0   0.00000       0.00000    
     15883 TFA      64       TFA      O2       OD2C2A    1.45190       15.5994           0 -0.350000       2.39900    
     15884 TFA      64       TFA      DO2      DRUD     -1.45190      0.400000           0   0.00000       0.00000    
     15885 TFA      64       TFA      LPO11    LPD     -0.310000       0.00000          -1   0.00000       0.00000    
     15886 TFA      64       TFA      LPO12    LPD     -0.310000       0.00000          -1   0.00000       0.00000    
     15887 TFA      64       TFA      LPO21    LPD     -0.310000       0.00000          -1   0.00000       0.00000    
     15888 TFA      64       TFA      LPO22    LPD     -0.310000       0.00000          -1   0.00000       0.00000    
     15889 TFA      65       TFA      C1       CD2O2A    2.58500       11.6110           0 -0.800000      0.899000    
     15890 TFA      65       TFA      DC1      DRUD     -2.19500      0.400000           0   0.00000       0.00000    
     15891 TFA      65       TFA      C2       CD30A    0.450000       12.0110           0   0.00000       0.00000    
     15892 TFA      65       TFA      F1       FDA3      1.92530       18.5980           0 -0.750000       1.30000    
     15893 TFA      65       TFA      DF1      DRUD     -2.12530      0.400000           0   0.00000       0.00000    
     15894 TFA      65       TFA      F2       FDA3      1.92530       18.5980           0 -0.750000       1.30000    
     15895 TFA      65       TFA      DF2      DRUD     -2.12530      0.400000           0   0.00000       0.00000    
     15896 TFA      65       TFA      F3       FDA3      1.92530       18.5980           0 -0.750000       1.30000    
     15897 TFA      65       TFA      DF3      DRUD     -2.12530      0.400000           0   0.00000       0.00000    
     15898 TFA      65       TFA      O1       OD2C2A    1.45190       15.5994           0 -0.350000       2.39900    
     15899 TFA      65       TFA      DO1      DRUD     -1.45190      0.400000           0   0.00000       0.00000    
     15900 TFA      65       TFA      O2       OD2C2A    1.45190       15.5994           0 -0.350000       2.39900    
     15901 TFA      65       TFA      DO2      DRUD     -1.45190      0.400000           0   0.00000       0.00000    
     15902 TFA      65       TFA      LPO11    LPD     -0.310000       0.00000          -1   0.00000       0.00000    
     15903 TFA      65       TFA      LPO12    LPD     -0.310000       0.00000          -1   0.00000       0.00000    
     15904 TFA      65       TFA      LPO21    LPD     -0.310000       0.00000          -1   0.00000       0.00000    
     15905 TFA      65       TFA      LPO22    LPD     -0.310000       0.00000          -1   0.00000       0.00000    
     15906 TFA      66       TFA      C1       CD2O2A    2.58500       11.6110           0 -0.800000      0.899000    
     15907 TFA      66       TFA      DC1      DRUD     -2.19500      0.400000           0   0.00000       0.00000    
     15908 TFA      66       TFA      C2       CD30A    0.450000       12.0110           0   0.00000       0.00000    
     15909 TFA      66       TFA      F1       FDA3      1.92530       18.5980           0 -0.750000       1.30000    
     15910 TFA      66       TFA      DF1      DRUD     -2.12530      0.400000           0   0.00000       0.00000    
     15911 TFA      66       TFA      F2       FDA3      1.92530       18.5980           0 -0.750000       1.30000    
     15912 TFA      66       TFA      DF2      DRUD     -2.12530      0.400000           0   0.00000       0.00000    
     15913 TFA      66       TFA      F3       FDA3      1.92530       18.5980           0 -0.750000       1.30000    
     15914 TFA      66       TFA      DF3      DRUD     -2.12530      0.400000           0   0.00000       0.00000    
     15915 TFA      66       TFA      O1       OD2C2A    1.45190       15.5994           0 -0.350000       2.39900    
     15916 TFA      66       TFA      DO1      DRUD     -1.45190      0.400000           0   0.00000       0.00000    
     15917 TFA      66       TFA      O2       OD2C2A    1.45190       15.5994           0 -0.350000       2.39900    
     15918 TFA      66       TFA      DO2      DRUD     -1.45190      0.400000           0   0.00000       0.00000    
     15919 TFA      66       TFA      LPO11    LPD     -0.310000       0.00000          -1   0.00000       0.00000    
     15920 TFA      66       TFA      LPO12    LPD     -0.310000       0.00000          -1   0.00000       0.00000    
     15921 TFA      66       TFA      LPO21    LPD     -0.310000       0.00000          -1   0.00000       0.00000    
     15922 TFA      66       TFA      LPO22    LPD     -0.310000       0.00000          -1   0.00000       0.00000    
     15923 TFA      67       TFA      C1       CD2O2A    2.58500       11.6110           0 -0.800000      0.899000    
     15924 TFA      67       TFA      DC1      DRUD     -2.19500      0.400000           0   0.00000       0.00000    
     15925 TFA      67       TFA      C2       CD30A    0.450000       12.0110           0   0.00000       0.00000    
     15926 TFA      67       TFA      F1       FDA3      1.92530       18.5980           0 -0.750000       1.30000    
     15927 TFA      67       TFA      DF1      DRUD     -2.12530      0.400000           0   0.00000       0.00000    
     15928 TFA      67       TFA      F2       FDA3      1.92530       18.5980           0 -0.750000       1.30000    
     15929 TFA      67       TFA      DF2      DRUD     -2.12530      0.400000           0   0.00000       0.00000    
     15930 TFA      67       TFA      F3       FDA3      1.92530       18.5980           0 -0.750000       1.30000    
     15931 TFA      67       TFA      DF3      DRUD     -2.12530      0.400000           0   0.00000       0.00000    
     15932 TFA      67       TFA      O1       OD2C2A    1.45190       15.5994           0 -0.350000       2.39900    
     15933 TFA      67       TFA      DO1      DRUD     -1.45190      0.400000           0   0.00000       0.00000    
     15934 TFA      67       TFA      O2       OD2C2A    1.45190       15.5994           0 -0.350000       2.39900    
     15935 TFA      67       TFA      DO2      DRUD     -1.45190      0.400000           0   0.00000       0.00000    
     15936 TFA      67       TFA      LPO11    LPD     -0.310000       0.00000          -1   0.00000       0.00000    
     15937 TFA      67       TFA      LPO12    LPD     -0.310000       0.00000          -1   0.00000       0.00000    
     15938 TFA      67       TFA      LPO21    LPD     -0.310000       0.00000          -1   0.00000       0.00000    
     15939 TFA      67       TFA      LPO22    LPD     -0.310000       0.00000          -1   0.00000       0.00000    
     15940 TFA      68       TFA      C1       CD2O2A    2.58500       11.6110           0 -0.800000      0.899000    
     15941 TFA      68       TFA      DC1      DRUD     -2.19500      0.400000           0   0.00000       0.00000    
     15942 TFA      68       TFA      C2       CD30A    0.450000       12.0110           0   0.00000       0.00000    
     15943 TFA      68       TFA      F1       FDA3      1.92530       18.5980           0 -0.750000       1.30000    
     15944 TFA      68       TFA      DF1      DRUD     -2.12530      0.400000           0   0.00000       0.00000    
     15945 TFA      68       TFA      F2       FDA3      1.92530       18.5980           0 -0.750000       1.30000    
     15946 TFA      68       TFA      DF2      DRUD     -2.12530      0.400000           0   0.00000       0.00000    
     15947 TFA      68       TFA      F3       FDA3      1.92530       18.5980           0 -0.750000       1.30000    
     15948 TFA      68       TFA      DF3      DRUD     -2.12530      0.400000           0   0.00000       0.00000    
     15949 TFA      68       TFA      O1       OD2C2A    1.45190       15.5994           0 -0.350000       2.39900    
     15950 TFA      68       TFA      DO1      DRUD     -1.45190      0.400000           0   0.00000       0.00000    
     15951 TFA      68       TFA      O2       OD2C2A    1.45190       15.5994           0 -0.350000       2.39900    
     15952 TFA      68       TFA      DO2      DRUD     -1.45190      0.400000           0   0.00000       0.00000    
     15953 TFA      68       TFA      LPO11    LPD     -0.310000       0.00000          -1   0.00000       0.00000    
     15954 TFA      68       TFA      LPO12    LPD     -0.310000       0.00000          -1   0.00000       0.00000    
     15955 TFA      68       TFA      LPO21    LPD     -0.310000       0.00000          -1   0.00000       0.00000    
     15956 TFA      68       TFA      LPO22    LPD     -0.310000       0.00000          -1   0.00000       0.00000    
     15957 TFA      69       TFA      C1       CD2O2A    2.58500       11.6110           0 -0.800000      0.899000    
     15958 TFA      69       TFA      DC1      DRUD     -2.19500      0.400000           0   0.00000       0.00000    
     15959 TFA      69       TFA      C2       CD30A    0.450000       12.0110           0   0.00000       0.00000    
     15960 TFA      69       TFA      F1       FDA3      1.92530       18.5980           0 -0.750000       1.30000    
     15961 TFA      69       TFA      DF1      DRUD     -2.12530      0.400000           0   0.00000       0.00000    
     15962 TFA      69       TFA      F2       FDA3      1.92530       18.5980           0 -0.750000       1.30000    
     15963 TFA      69       TFA      DF2      DRUD     -2.12530      0.400000           0   0.00000       0.00000    
     15964 TFA      69       TFA      F3       FDA3      1.92530       18.5980           0 -0.750000       1.30000    
     15965 TFA      69       TFA      DF3      DRUD     -2.12530      0.400000           0   0.00000       0.00000    
     15966 TFA      69       TFA      O1       OD2C2A    1.45190       15.5994           0 -0.350000       2.39900    
     15967 TFA      69       TFA      DO1      DRUD     -1.45190      0.400000           0   0.00000       0.00000    
     15968 TFA      69       TFA      O2       OD2C2A    1.45190       15.5994           0 -0.350000       2.39900    
     15969 TFA      69       TFA      DO2      DRUD     -1.45190      0.400000           0   0.00000       0.00000    
     15970 TFA      69       TFA      LPO11    LPD     -0.310000       0.00000          -1   0.00000       0.00000    
     15971 TFA      69       TFA      LPO12    LPD     -0.310000       0.00000          -1   0.00000       0.00000    
     15972 TFA      69       TFA      LPO21    LPD     -0.310000       0.00000          -1   0.00000       0.00000    
     15973 TFA      69       TFA      LPO22    LPD     -0.310000       0.00000          -1   0.00000       0.00000    
     15974 TFA      70       TFA      C1       CD2O2A    2.58500       11.6110           0 -0.800000      0.899000    
     15975 TFA      70       TFA      DC1      DRUD     -2.19500      0.400000           0   0.00000       0.00000    
     15976 TFA      70       TFA      C2       CD30A    0.450000       12.0110           0   0.00000       0.00000    
     15977 TFA      70       TFA      F1       FDA3      1.92530       18.5980           0 -0.750000       1.30000    
     15978 TFA      70       TFA      DF1      DRUD     -2.12530      0.400000           0   0.00000       0.00000    
     15979 TFA      70       TFA      F2       FDA3      1.92530       18.5980           0 -0.750000       1.30000    
     15980 TFA      70       TFA      DF2      DRUD     -2.12530      0.400000           0   0.00000       0.00000    
     15981 TFA      70       TFA      F3       FDA3      1.92530       18.5980           0 -0.750000       1.30000    
     15982 TFA      70       TFA      DF3      DRUD     -2.12530      0.400000           0   0.00000       0.00000    
     15983 TFA      70       TFA      O1       OD2C2A    1.45190       15.5994           0 -0.350000       2.39900    
     15984 TFA      70       TFA      DO1      DRUD     -1.45190      0.400000           0   0.00000       0.00000    
     15985 TFA      70       TFA      O2       OD2C2A    1.45190       15.5994           0 -0.350000       2.39900    
     15986 TFA      70       TFA      DO2      DRUD     -1.45190      0.400000           0   0.00000       0.00000    
     15987 TFA      70       TFA      LPO11    LPD     -0.310000       0.00000          -1   0.00000       0.00000    
     15988 TFA      70       TFA      LPO12    LPD     -0.310000       0.00000          -1   0.00000       0.00000    
     15989 TFA      70       TFA      LPO21    LPD     -0.310000       0.00000          -1   0.00000       0.00000    
     15990 TFA      70       TFA      LPO22    LPD     -0.310000       0.00000          -1   0.00000       0.00000    
     15991 TFA      71       TFA      C1       CD2O2A    2.58500       11.6110           0 -0.800000      0.899000    
     15992 TFA      71       TFA      DC1      DRUD     -2.19500      0.400000           0   0.00000       0.00000    
     15993 TFA      71       TFA      C2       CD30A    0.450000       12.0110           0   0.00000       0.00000    
     15994 TFA      71       TFA      F1       FDA3      1.92530       18.5980           0 -0.750000       1.30000    
     15995 TFA      71       TFA      DF1      DRUD     -2.12530      0.400000           0   0.00000       0.00000    
     15996 TFA      71       TFA      F2       FDA3      1.92530       18.5980           0 -0.750000       1.30000    
     15997 TFA      71       TFA      DF2      DRUD     -2.12530      0.400000           0   0.00000       0.00000    
     15998 TFA      71       TFA      F3       FDA3      1.92530       18.5980           0 -0.750000       1.30000    
     15999 TFA      71       TFA      DF3      DRUD     -2.12530      0.400000           0   0.00000       0.00000    
     16000 TFA      71       TFA      O1       OD2C2A    1.45190       15.5994           0 -0.350000       2.39900    
     16001 TFA      71       TFA      DO1      DRUD     -1.45190      0.400000           0   0.00000       0.00000    
     16002 TFA      71       TFA      O2       OD2C2A    1.45190       15.5994           0 -0.350000       2.39900    
     16003 TFA      71       TFA      DO2      DRUD     -1.45190      0.400000           0   0.00000       0.00000    
     16004 TFA      71       TFA      LPO11    LPD     -0.310000       0.00000          -1   0.00000       0.00000    
     16005 TFA      71       TFA      LPO12    LPD     -0.310000       0.00000          -1   0.00000       0.00000    
     16006 TFA      71       TFA      LPO21    LPD     -0.310000       0.00000          -1   0.00000       0.00000    
     16007 TFA      71       TFA      LPO22    LPD     -0.310000       0.00000          -1   0.00000       0.00000    
     16008 TFA      72       TFA      C1       CD2O2A    2.58500       11.6110           0 -0.800000      0.899000    
     16009 TFA      72       TFA      DC1      DRUD     -2.19500      0.400000           0   0.00000       0.00000    
     16010 TFA      72       TFA      C2       CD30A    0.450000       12.0110           0   0.00000       0.00000    
     16011 TFA      72       TFA      F1       FDA3      1.92530       18.5980           0 -0.750000       1.30000    
     16012 TFA      72       TFA      DF1      DRUD     -2.12530      0.400000           0   0.00000       0.00000    
     16013 TFA      72       TFA      F2       FDA3      1.92530       18.5980           0 -0.750000       1.30000    
     16014 TFA      72       TFA      DF2      DRUD     -2.12530      0.400000           0   0.00000       0.00000    
     16015 TFA      72       TFA      F3       FDA3      1.92530       18.5980           0 -0.750000       1.30000    
     16016 TFA      72       TFA      DF3      DRUD     -2.12530      0.400000           0   0.00000       0.00000    
     16017 TFA      72       TFA      O1       OD2C2A    1.45190       15.5994           0 -0.350000       2.39900    
     16018 TFA      72       TFA      DO1      DRUD     -1.45190      0.400000           0   0.00000       0.00000    
     16019 TFA      72       TFA      O2       OD2C2A    1.45190       15.5994           0 -0.350000       2.39900    
     16020 TFA      72       TFA      DO2      DRUD     -1.45190      0.400000           0   0.00000       0.00000    
     16021 TFA      72       TFA      LPO11    LPD     -0.310000       0.00000          -1   0.00000       0.00000    
     16022 TFA      72       TFA      LPO12    LPD     -0.310000       0.00000          -1   0.00000       0.00000    
     16023 TFA      72       TFA      LPO21    LPD     -0.310000       0.00000          -1   0.00000       0.00000    
     16024 TFA      72       TFA      LPO22    LPD     -0.310000       0.00000          -1   0.00000       0.00000    
     16025 TFA      73       TFA      C1       CD2O2A    2.58500       11.6110           0 -0.800000      0.899000    
     16026 TFA      73       TFA      DC1      DRUD     -2.19500      0.400000           0   0.00000       0.00000    
     16027 TFA      73       TFA      C2       CD30A    0.450000       12.0110           0   0.00000       0.00000    
     16028 TFA      73       TFA      F1       FDA3      1.92530       18.5980           0 -0.750000       1.30000    
     16029 TFA      73       TFA      DF1      DRUD     -2.12530      0.400000           0   0.00000       0.00000    
     16030 TFA      73       TFA      F2       FDA3      1.92530       18.5980           0 -0.750000       1.30000    
     16031 TFA      73       TFA      DF2      DRUD     -2.12530      0.400000           0   0.00000       0.00000    
     16032 TFA      73       TFA      F3       FDA3      1.92530       18.5980           0 -0.750000       1.30000    
     16033 TFA      73       TFA      DF3      DRUD     -2.12530      0.400000           0   0.00000       0.00000    
     16034 TFA      73       TFA      O1       OD2C2A    1.45190       15.5994           0 -0.350000       2.39900    
     16035 TFA      73       TFA      DO1      DRUD     -1.45190      0.400000           0   0.00000       0.00000    
     16036 TFA      73       TFA      O2       OD2C2A    1.45190       15.5994           0 -0.350000       2.39900    
     16037 TFA      73       TFA      DO2      DRUD     -1.45190      0.400000           0   0.00000       0.00000    
     16038 TFA      73       TFA      LPO11    LPD     -0.310000       0.00000          -1   0.00000       0.00000    
     16039 TFA      73       TFA      LPO12    LPD     -0.310000       0.00000          -1   0.00000       0.00000    
     16040 TFA      73       TFA      LPO21    LPD     -0.310000       0.00000          -1   0.00000       0.00000    
     16041 TFA      73       TFA      LPO22    LPD     -0.310000       0.00000          -1   0.00000       0.00000    
     16042 TFA      74       TFA      C1       CD2O2A    2.58500       11.6110           0 -0.800000      0.899000    
     16043 TFA      74       TFA      DC1      DRUD     -2.19500      0.400000           0   0.00000       0.00000    
     16044 TFA      74       TFA      C2       CD30A    0.450000       12.0110           0   0.00000       0.00000    
     16045 TFA      74       TFA      F1       FDA3      1.92530       18.5980           0 -0.750000       1.30000    
     16046 TFA      74       TFA      DF1      DRUD     -2.12530      0.400000           0   0.00000       0.00000    
     16047 TFA      74       TFA      F2       FDA3      1.92530       18.5980           0 -0.750000       1.30000    
     16048 TFA      74       TFA      DF2      DRUD     -2.12530      0.400000           0   0.00000       0.00000    
     16049 TFA      74       TFA      F3       FDA3      1.92530       18.5980           0 -0.750000       1.30000    
     16050 TFA      74       TFA      DF3      DRUD     -2.12530      0.400000           0   0.00000       0.00000    
     16051 TFA      74       TFA      O1       OD2C2A    1.45190       15.5994           0 -0.350000       2.39900    
     16052 TFA      74       TFA      DO1      DRUD     -1.45190      0.400000           0   0.00000       0.00000    
     16053 TFA      74       TFA      O2       OD2C2A    1.45190       15.5994           0 -0.350000       2.39900    
     16054 TFA      74       TFA      DO2      DRUD     -1.45190      0.400000           0   0.00000       0.00000    
     16055 TFA      74       TFA      LPO11    LPD     -0.310000       0.00000          -1   0.00000       0.00000    
     16056 TFA      74       TFA      LPO12    LPD     -0.310000       0.00000          -1   0.00000       0.00000    
     16057 TFA      74       TFA      LPO21    LPD     -0.310000       0.00000          -1   0.00000       0.00000    
     16058 TFA      74       TFA      LPO22    LPD     -0.310000       0.00000          -1   0.00000       0.00000    
     16059 TFA      75       TFA      C1       CD2O2A    2.58500       11.6110           0 -0.800000      0.899000    
     16060 TFA      75       TFA      DC1      DRUD     -2.19500      0.400000           0   0.00000       0.00000    
     16061 TFA      75       TFA      C2       CD30A    0.450000       12.0110           0   0.00000       0.00000    
     16062 TFA      75       TFA      F1       FDA3      1.92530       18.5980           0 -0.750000       1.30000    
     16063 TFA      75       TFA      DF1      DRUD     -2.12530      0.400000           0   0.00000       0.00000    
     16064 TFA      75       TFA      F2       FDA3      1.92530       18.5980           0 -0.750000       1.30000    
     16065 TFA      75       TFA      DF2      DRUD     -2.12530      0.400000           0   0.00000       0.00000    
     16066 TFA      75       TFA      F3       FDA3      1.92530       18.5980           0 -0.750000       1.30000    
     16067 TFA      75       TFA      DF3      DRUD     -2.12530      0.400000           0   0.00000       0.00000    
     16068 TFA      75       TFA      O1       OD2C2A    1.45190       15.5994           0 -0.350000       2.39900    
     16069 TFA      75       TFA      DO1      DRUD     -1.45190      0.400000           0   0.00000       0.00000    
     16070 TFA      75       TFA      O2       OD2C2A    1.45190       15.5994           0 -0.350000       2.39900    
     16071 TFA      75       TFA      DO2      DRUD     -1.45190      0.400000           0   0.00000       0.00000    
     16072 TFA      75       TFA      LPO11    LPD     -0.310000       0.00000          -1   0.00000       0.00000    
     16073 TFA      75       TFA      LPO12    LPD     -0.310000       0.00000          -1   0.00000       0.00000    
     16074 TFA      75       TFA      LPO21    LPD     -0.310000       0.00000          -1   0.00000       0.00000    
     16075 TFA      75       TFA      LPO22    LPD     -0.310000       0.00000          -1   0.00000       0.00000    
     16076 TFA      76       TFA      C1       CD2O2A    2.58500       11.6110           0 -0.800000      0.899000    
     16077 TFA      76       TFA      DC1      DRUD     -2.19500      0.400000           0   0.00000       0.00000    
     16078 TFA      76       TFA      C2       CD30A    0.450000       12.0110           0   0.00000       0.00000    
     16079 TFA      76       TFA      F1       FDA3      1.92530       18.5980           0 -0.750000       1.30000    
     16080 TFA      76       TFA      DF1      DRUD     -2.12530      0.400000           0   0.00000       0.00000    
     16081 TFA      76       TFA      F2       FDA3      1.92530       18.5980           0 -0.750000       1.30000    
     16082 TFA      76       TFA      DF2      DRUD     -2.12530      0.400000           0   0.00000       0.00000    
     16083 TFA      76       TFA      F3       FDA3      1.92530       18.5980           0 -0.750000       1.30000    
     16084 TFA      76       TFA      DF3      DRUD     -2.12530      0.400000           0   0.00000       0.00000    
     16085 TFA      76       TFA      O1       OD2C2A    1.45190       15.5994           0 -0.350000       2.39900    
     16086 TFA      76       TFA      DO1      DRUD     -1.45190      0.400000           0   0.00000       0.00000    
     16087 TFA      76       TFA      O2       OD2C2A    1.45190       15.5994           0 -0.350000       2.39900    
     16088 TFA      76       TFA      DO2      DRUD     -1.45190      0.400000           0   0.00000       0.00000    
     16089 TFA      76       TFA      LPO11    LPD     -0.310000       0.00000          -1   0.00000       0.00000    
     16090 TFA      76       TFA      LPO12    LPD     -0.310000       0.00000          -1   0.00000       0.00000    
     16091 TFA      76       TFA      LPO21    LPD     -0.310000       0.00000          -1   0.00000       0.00000    
     16092 TFA      76       TFA      LPO22    LPD     -0.310000       0.00000          -1   0.00000       0.00000    
     16093 TFA      77       TFA      C1       CD2O2A    2.58500       11.6110           0 -0.800000      0.899000    
     16094 TFA      77       TFA      DC1      DRUD     -2.19500      0.400000           0   0.00000       0.00000    
     16095 TFA      77       TFA      C2       CD30A    0.450000       12.0110           0   0.00000       0.00000    
     16096 TFA      77       TFA      F1       FDA3      1.92530       18.5980           0 -0.750000       1.30000    
     16097 TFA      77       TFA      DF1      DRUD     -2.12530      0.400000           0   0.00000       0.00000    
     16098 TFA      77       TFA      F2       FDA3      1.92530       18.5980           0 -0.750000       1.30000    
     16099 TFA      77       TFA      DF2      DRUD     -2.12530      0.400000           0   0.00000       0.00000    
     16100 TFA      77       TFA      F3       FDA3      1.92530       18.5980           0 -0.750000       1.30000    
     16101 TFA      77       TFA      DF3      DRUD     -2.12530      0.400000           0   0.00000       0.00000    
     16102 TFA      77       TFA      O1       OD2C2A    1.45190       15.5994           0 -0.350000       2.39900    
     16103 TFA      77       TFA      DO1      DRUD     -1.45190      0.400000           0   0.00000       0.00000    
     16104 TFA      77       TFA      O2       OD2C2A    1.45190       15.5994           0 -0.350000       2.39900    
     16105 TFA      77       TFA      DO2      DRUD     -1.45190      0.400000           0   0.00000       0.00000    
     16106 TFA      77       TFA      LPO11    LPD     -0.310000       0.00000          -1   0.00000       0.00000    
     16107 TFA      77       TFA      LPO12    LPD     -0.310000       0.00000          -1   0.00000       0.00000    
     16108 TFA      77       TFA      LPO21    LPD     -0.310000       0.00000          -1   0.00000       0.00000    
     16109 TFA      77       TFA      LPO22    LPD     -0.310000       0.00000          -1   0.00000       0.00000    
     16110 TFA      78       TFA      C1       CD2O2A    2.58500       11.6110           0 -0.800000      0.899000    
     16111 TFA      78       TFA      DC1      DRUD     -2.19500      0.400000           0   0.00000       0.00000    
     16112 TFA      78       TFA      C2       CD30A    0.450000       12.0110           0   0.00000       0.00000    
     16113 TFA      78       TFA      F1       FDA3      1.92530       18.5980           0 -0.750000       1.30000    
     16114 TFA      78       TFA      DF1      DRUD     -2.12530      0.400000           0   0.00000       0.00000    
     16115 TFA      78       TFA      F2       FDA3      1.92530       18.5980           0 -0.750000       1.30000    
     16116 TFA      78       TFA      DF2      DRUD     -2.12530      0.400000           0   0.00000       0.00000    
     16117 TFA      78       TFA      F3       FDA3      1.92530       18.5980           0 -0.750000       1.30000    
     16118 TFA      78       TFA      DF3      DRUD     -2.12530      0.400000           0   0.00000       0.00000    
     16119 TFA      78       TFA      O1       OD2C2A    1.45190       15.5994           0 -0.350000       2.39900    
     16120 TFA      78       TFA      DO1      DRUD     -1.45190      0.400000           0   0.00000       0.00000    
     16121 TFA      78       TFA      O2       OD2C2A    1.45190       15.5994           0 -0.350000       2.39900    
     16122 TFA      78       TFA      DO2      DRUD     -1.45190      0.400000           0   0.00000       0.00000    
     16123 TFA      78       TFA      LPO11    LPD     -0.310000       0.00000          -1   0.00000       0.00000    
     16124 TFA      78       TFA      LPO12    LPD     -0.310000       0.00000          -1   0.00000       0.00000    
     16125 TFA      78       TFA      LPO21    LPD     -0.310000       0.00000          -1   0.00000       0.00000    
     16126 TFA      78       TFA      LPO22    LPD     -0.310000       0.00000          -1   0.00000       0.00000    
     16127 TFA      79       TFA      C1       CD2O2A    2.58500       11.6110           0 -0.800000      0.899000    
     16128 TFA      79       TFA      DC1      DRUD     -2.19500      0.400000           0   0.00000       0.00000    
     16129 TFA      79       TFA      C2       CD30A    0.450000       12.0110           0   0.00000       0.00000    
     16130 TFA      79       TFA      F1       FDA3      1.92530       18.5980           0 -0.750000       1.30000    
     16131 TFA      79       TFA      DF1      DRUD     -2.12530      0.400000           0   0.00000       0.00000    
     16132 TFA      79       TFA      F2       FDA3      1.92530       18.5980           0 -0.750000       1.30000    
     16133 TFA      79       TFA      DF2      DRUD     -2.12530      0.400000           0   0.00000       0.00000    
     16134 TFA      79       TFA      F3       FDA3      1.92530       18.5980           0 -0.750000       1.30000    
     16135 TFA      79       TFA      DF3      DRUD     -2.12530      0.400000           0   0.00000       0.00000    
     16136 TFA      79       TFA      O1       OD2C2A    1.45190       15.5994           0 -0.350000       2.39900    
     16137 TFA      79       TFA      DO1      DRUD     -1.45190      0.400000           0   0.00000       0.00000    
     16138 TFA      79       TFA      O2       OD2C2A    1.45190       15.5994           0 -0.350000       2.39900    
     16139 TFA      79       TFA      DO2      DRUD     -1.45190      0.400000           0   0.00000       0.00000    
     16140 TFA      79       TFA      LPO11    LPD     -0.310000       0.00000          -1   0.00000       0.00000    
     16141 TFA      79       TFA      LPO12    LPD     -0.310000       0.00000          -1   0.00000       0.00000    
     16142 TFA      79       TFA      LPO21    LPD     -0.310000       0.00000          -1   0.00000       0.00000    
     16143 TFA      79       TFA      LPO22    LPD     -0.310000       0.00000          -1   0.00000       0.00000    
     16144 TFA      80       TFA      C1       CD2O2A    2.58500       11.6110           0 -0.800000      0.899000    
     16145 TFA      80       TFA      DC1      DRUD     -2.19500      0.400000           0   0.00000       0.00000    
     16146 TFA      80       TFA      C2       CD30A    0.450000       12.0110           0   0.00000       0.00000    
     16147 TFA      80       TFA      F1       FDA3      1.92530       18.5980           0 -0.750000       1.30000    
     16148 TFA      80       TFA      DF1      DRUD     -2.12530      0.400000           0   0.00000       0.00000    
     16149 TFA      80       TFA      F2       FDA3      1.92530       18.5980           0 -0.750000       1.30000    
     16150 TFA      80       TFA      DF2      DRUD     -2.12530      0.400000           0   0.00000       0.00000    
     16151 TFA      80       TFA      F3       FDA3      1.92530       18.5980           0 -0.750000       1.30000    
     16152 TFA      80       TFA      DF3      DRUD     -2.12530      0.400000           0   0.00000       0.00000    
     16153 TFA      80       TFA      O1       OD2C2A    1.45190       15.5994           0 -0.350000       2.39900    
     16154 TFA      80       TFA      DO1      DRUD     -1.45190      0.400000           0   0.00000       0.00000    
     16155 TFA      80       TFA      O2       OD2C2A    1.45190       15.5994           0 -0.350000       2.39900    
     16156 TFA      80       TFA      DO2      DRUD     -1.45190      0.400000           0   0.00000       0.00000    
     16157 TFA      80       TFA      LPO11    LPD     -0.310000       0.00000          -1   0.00000       0.00000    
     16158 TFA      80       TFA      LPO12    LPD     -0.310000       0.00000          -1   0.00000       0.00000    
     16159 TFA      80       TFA      LPO21    LPD     -0.310000       0.00000          -1   0.00000       0.00000    
     16160 TFA      80       TFA      LPO22    LPD     -0.310000       0.00000          -1   0.00000       0.00000    
     16161 TFA      81       TFA      C1       CD2O2A    2.58500       11.6110           0 -0.800000      0.899000    
     16162 TFA      81       TFA      DC1      DRUD     -2.19500      0.400000           0   0.00000       0.00000    
     16163 TFA      81       TFA      C2       CD30A    0.450000       12.0110           0   0.00000       0.00000    
     16164 TFA      81       TFA      F1       FDA3      1.92530       18.5980           0 -0.750000       1.30000    
     16165 TFA      81       TFA      DF1      DRUD     -2.12530      0.400000           0   0.00000       0.00000    
     16166 TFA      81       TFA      F2       FDA3      1.92530       18.5980           0 -0.750000       1.30000    
     16167 TFA      81       TFA      DF2      DRUD     -2.12530      0.400000           0   0.00000       0.00000    
     16168 TFA      81       TFA      F3       FDA3      1.92530       18.5980           0 -0.750000       1.30000    
     16169 TFA      81       TFA      DF3      DRUD     -2.12530      0.400000           0   0.00000       0.00000    
     16170 TFA      81       TFA      O1       OD2C2A    1.45190       15.5994           0 -0.350000       2.39900    
     16171 TFA      81       TFA      DO1      DRUD     -1.45190      0.400000           0   0.00000       0.00000    
     16172 TFA      81       TFA      O2       OD2C2A    1.45190       15.5994           0 -0.350000       2.39900    
     16173 TFA      81       TFA      DO2      DRUD     -1.45190      0.400000           0   0.00000       0.00000    
     16174 TFA      81       TFA      LPO11    LPD     -0.310000       0.00000          -1   0.00000       0.00000    
     16175 TFA      81       TFA      LPO12    LPD     -0.310000       0.00000          -1   0.00000       0.00000    
     16176 TFA      81       TFA      LPO21    LPD     -0.310000       0.00000          -1   0.00000       0.00000    
     16177 TFA      81       TFA      LPO22    LPD     -0.310000       0.00000          -1   0.00000       0.00000    
     16178 TFA      82       TFA      C1       CD2O2A    2.58500       11.6110           0 -0.800000      0.899000    
     16179 TFA      82       TFA      DC1      DRUD     -2.19500      0.400000           0   0.00000       0.00000    
     16180 TFA      82       TFA      C2       CD30A    0.450000       12.0110           0   0.00000       0.00000    
     16181 TFA      82       TFA      F1       FDA3      1.92530       18.5980           0 -0.750000       1.30000    
     16182 TFA      82       TFA      DF1      DRUD     -2.12530      0.400000           0   0.00000       0.00000    
     16183 TFA      82       TFA      F2       FDA3      1.92530       18.5980           0 -0.750000       1.30000    
     16184 TFA      82       TFA      DF2      DRUD     -2.12530      0.400000           0   0.00000       0.00000    
     16185 TFA      82       TFA      F3       FDA3      1.92530       18.5980           0 -0.750000       1.30000    
     16186 TFA      82       TFA      DF3      DRUD     -2.12530      0.400000           0   0.00000       0.00000    
     16187 TFA      82       TFA      O1       OD2C2A    1.45190       15.5994           0 -0.350000       2.39900    
     16188 TFA      82       TFA      DO1      DRUD     -1.45190      0.400000           0   0.00000       0.00000    
     16189 TFA      82       TFA      O2       OD2C2A    1.45190       15.5994           0 -0.350000       2.39900    
     16190 TFA      82       TFA      DO2      DRUD     -1.45190      0.400000           0   0.00000       0.00000    
     16191 TFA      82       TFA      LPO11    LPD     -0.310000       0.00000          -1   0.00000       0.00000    
     16192 TFA      82       TFA      LPO12    LPD     -0.310000       0.00000          -1   0.00000       0.00000    
     16193 TFA      82       TFA      LPO21    LPD     -0.310000       0.00000          -1   0.00000       0.00000    
     16194 TFA      82       TFA      LPO22    LPD     -0.310000       0.00000          -1   0.00000       0.00000    
     16195 TFA      83       TFA      C1       CD2O2A    2.58500       11.6110           0 -0.800000      0.899000    
     16196 TFA      83       TFA      DC1      DRUD     -2.19500      0.400000           0   0.00000       0.00000    
     16197 TFA      83       TFA      C2       CD30A    0.450000       12.0110           0   0.00000       0.00000    
     16198 TFA      83       TFA      F1       FDA3      1.92530       18.5980           0 -0.750000       1.30000    
     16199 TFA      83       TFA      DF1      DRUD     -2.12530      0.400000           0   0.00000       0.00000    
     16200 TFA      83       TFA      F2       FDA3      1.92530       18.5980           0 -0.750000       1.30000    
     16201 TFA      83       TFA      DF2      DRUD     -2.12530      0.400000           0   0.00000       0.00000    
     16202 TFA      83       TFA      F3       FDA3      1.92530       18.5980           0 -0.750000       1.30000    
     16203 TFA      83       TFA      DF3      DRUD     -2.12530      0.400000           0   0.00000       0.00000    
     16204 TFA      83       TFA      O1       OD2C2A    1.45190       15.5994           0 -0.350000       2.39900    
     16205 TFA      83       TFA      DO1      DRUD     -1.45190      0.400000           0   0.00000       0.00000    
     16206 TFA      83       TFA      O2       OD2C2A    1.45190       15.5994           0 -0.350000       2.39900    
     16207 TFA      83       TFA      DO2      DRUD     -1.45190      0.400000           0   0.00000       0.00000    
     16208 TFA      83       TFA      LPO11    LPD     -0.310000       0.00000          -1   0.00000       0.00000    
     16209 TFA      83       TFA      LPO12    LPD     -0.310000       0.00000          -1   0.00000       0.00000    
     16210 TFA      83       TFA      LPO21    LPD     -0.310000       0.00000          -1   0.00000       0.00000    
     16211 TFA      83       TFA      LPO22    LPD     -0.310000       0.00000          -1   0.00000       0.00000    
     16212 TFA      84       TFA      C1       CD2O2A    2.58500       11.6110           0 -0.800000      0.899000    
     16213 TFA      84       TFA      DC1      DRUD     -2.19500      0.400000           0   0.00000       0.00000    
     16214 TFA      84       TFA      C2       CD30A    0.450000       12.0110           0   0.00000       0.00000    
     16215 TFA      84       TFA      F1       FDA3      1.92530       18.5980           0 -0.750000       1.30000    
     16216 TFA      84       TFA      DF1      DRUD     -2.12530      0.400000           0   0.00000       0.00000    
     16217 TFA      84       TFA      F2       FDA3      1.92530       18.5980           0 -0.750000       1.30000    
     16218 TFA      84       TFA      DF2      DRUD     -2.12530      0.400000           0   0.00000       0.00000    
     16219 TFA      84       TFA      F3       FDA3      1.92530       18.5980           0 -0.750000       1.30000    
     16220 TFA      84       TFA      DF3      DRUD     -2.12530      0.400000           0   0.00000       0.00000    
     16221 TFA      84       TFA      O1       OD2C2A    1.45190       15.5994           0 -0.350000       2.39900    
     16222 TFA      84       TFA      DO1      DRUD     -1.45190      0.400000           0   0.00000       0.00000    
     16223 TFA      84       TFA      O2       OD2C2A    1.45190       15.5994           0 -0.350000       2.39900    
     16224 TFA      84       TFA      DO2      DRUD     -1.45190      0.400000           0   0.00000       0.00000    
     16225 TFA      84       TFA      LPO11    LPD     -0.310000       0.00000          -1   0.00000       0.00000    
     16226 TFA      84       TFA      LPO12    LPD     -0.310000       0.00000          -1   0.00000       0.00000    
     16227 TFA      84       TFA      LPO21    LPD     -0.310000       0.00000          -1   0.00000       0.00000    
     16228 TFA      84       TFA      LPO22    LPD     -0.310000       0.00000          -1   0.00000       0.00000    
     16229 TFA      85       TFA      C1       CD2O2A    2.58500       11.6110           0 -0.800000      0.899000    
     16230 TFA      85       TFA      DC1      DRUD     -2.19500      0.400000           0   0.00000       0.00000    
     16231 TFA      85       TFA      C2       CD30A    0.450000       12.0110           0   0.00000       0.00000    
     16232 TFA      85       TFA      F1       FDA3      1.92530       18.5980           0 -0.750000       1.30000    
     16233 TFA      85       TFA      DF1      DRUD     -2.12530      0.400000           0   0.00000       0.00000    
     16234 TFA      85       TFA      F2       FDA3      1.92530       18.5980           0 -0.750000       1.30000    
     16235 TFA      85       TFA      DF2      DRUD     -2.12530      0.400000           0   0.00000       0.00000    
     16236 TFA      85       TFA      F3       FDA3      1.92530       18.5980           0 -0.750000       1.30000    
     16237 TFA      85       TFA      DF3      DRUD     -2.12530      0.400000           0   0.00000       0.00000    
     16238 TFA      85       TFA      O1       OD2C2A    1.45190       15.5994           0 -0.350000       2.39900    
     16239 TFA      85       TFA      DO1      DRUD     -1.45190      0.400000           0   0.00000       0.00000    
     16240 TFA      85       TFA      O2       OD2C2A    1.45190       15.5994           0 -0.350000       2.39900    
     16241 TFA      85       TFA      DO2      DRUD     -1.45190      0.400000           0   0.00000       0.00000    
     16242 TFA      85       TFA      LPO11    LPD     -0.310000       0.00000          -1   0.00000       0.00000    
     16243 TFA      85       TFA      LPO12    LPD     -0.310000       0.00000          -1   0.00000       0.00000    
     16244 TFA      85       TFA      LPO21    LPD     -0.310000       0.00000          -1   0.00000       0.00000    
     16245 TFA      85       TFA      LPO22    LPD     -0.310000       0.00000          -1   0.00000       0.00000    
     16246 TFA      86       TFA      C1       CD2O2A    2.58500       11.6110           0 -0.800000      0.899000    
     16247 TFA      86       TFA      DC1      DRUD     -2.19500      0.400000           0   0.00000       0.00000    
     16248 TFA      86       TFA      C2       CD30A    0.450000       12.0110           0   0.00000       0.00000    
     16249 TFA      86       TFA      F1       FDA3      1.92530       18.5980           0 -0.750000       1.30000    
     16250 TFA      86       TFA      DF1      DRUD     -2.12530      0.400000           0   0.00000       0.00000    
     16251 TFA      86       TFA      F2       FDA3      1.92530       18.5980           0 -0.750000       1.30000    
     16252 TFA      86       TFA      DF2      DRUD     -2.12530      0.400000           0   0.00000       0.00000    
     16253 TFA      86       TFA      F3       FDA3      1.92530       18.5980           0 -0.750000       1.30000    
     16254 TFA      86       TFA      DF3      DRUD     -2.12530      0.400000           0   0.00000       0.00000    
     16255 TFA      86       TFA      O1       OD2C2A    1.45190       15.5994           0 -0.350000       2.39900    
     16256 TFA      86       TFA      DO1      DRUD     -1.45190      0.400000           0   0.00000       0.00000    
     16257 TFA      86       TFA      O2       OD2C2A    1.45190       15.5994           0 -0.350000       2.39900    
     16258 TFA      86       TFA      DO2      DRUD     -1.45190      0.400000           0   0.00000       0.00000    
     16259 TFA      86       TFA      LPO11    LPD     -0.310000       0.00000          -1   0.00000       0.00000    
     16260 TFA      86       TFA      LPO12    LPD     -0.310000       0.00000          -1   0.00000       0.00000    
     16261 TFA      86       TFA      LPO21    LPD     -0.310000       0.00000          -1   0.00000       0.00000    
     16262 TFA      86       TFA      LPO22    LPD     -0.310000       0.00000          -1   0.00000       0.00000    
     16263 TFA      87       TFA      C1       CD2O2A    2.58500       11.6110           0 -0.800000      0.899000    
     16264 TFA      87       TFA      DC1      DRUD     -2.19500      0.400000           0   0.00000       0.00000    
     16265 TFA      87       TFA      C2       CD30A    0.450000       12.0110           0   0.00000       0.00000    
     16266 TFA      87       TFA      F1       FDA3      1.92530       18.5980           0 -0.750000       1.30000    
     16267 TFA      87       TFA      DF1      DRUD     -2.12530      0.400000           0   0.00000       0.00000    
     16268 TFA      87       TFA      F2       FDA3      1.92530       18.5980           0 -0.750000       1.30000    
     16269 TFA      87       TFA      DF2      DRUD     -2.12530      0.400000           0   0.00000       0.00000    
     16270 TFA      87       TFA      F3       FDA3      1.92530       18.5980           0 -0.750000       1.30000    
     16271 TFA      87       TFA      DF3      DRUD     -2.12530      0.400000           0   0.00000       0.00000    
     16272 TFA      87       TFA      O1       OD2C2A    1.45190       15.5994           0 -0.350000       2.39900    
     16273 TFA      87       TFA      DO1      DRUD     -1.45190      0.400000           0   0.00000       0.00000    
     16274 TFA      87       TFA      O2       OD2C2A    1.45190       15.5994           0 -0.350000       2.39900    
     16275 TFA      87       TFA      DO2      DRUD     -1.45190      0.400000           0   0.00000       0.00000    
     16276 TFA      87       TFA      LPO11    LPD     -0.310000       0.00000          -1   0.00000       0.00000    
     16277 TFA      87       TFA      LPO12    LPD     -0.310000       0.00000          -1   0.00000       0.00000    
     16278 TFA      87       TFA      LPO21    LPD     -0.310000       0.00000          -1   0.00000       0.00000    
     16279 TFA      87       TFA      LPO22    LPD     -0.310000       0.00000          -1   0.00000       0.00000    
     16280 TFA      88       TFA      C1       CD2O2A    2.58500       11.6110           0 -0.800000      0.899000    
     16281 TFA      88       TFA      DC1      DRUD     -2.19500      0.400000           0   0.00000       0.00000    
     16282 TFA      88       TFA      C2       CD30A    0.450000       12.0110           0   0.00000       0.00000    
     16283 TFA      88       TFA      F1       FDA3      1.92530       18.5980           0 -0.750000       1.30000    
     16284 TFA      88       TFA      DF1      DRUD     -2.12530      0.400000           0   0.00000       0.00000    
     16285 TFA      88       TFA      F2       FDA3      1.92530       18.5980           0 -0.750000       1.30000    
     16286 TFA      88       TFA      DF2      DRUD     -2.12530      0.400000           0   0.00000       0.00000    
     16287 TFA      88       TFA      F3       FDA3      1.92530       18.5980           0 -0.750000       1.30000    
     16288 TFA      88       TFA      DF3      DRUD     -2.12530      0.400000           0   0.00000       0.00000    
     16289 TFA      88       TFA      O1       OD2C2A    1.45190       15.5994           0 -0.350000       2.39900    
     16290 TFA      88       TFA      DO1      DRUD     -1.45190      0.400000           0   0.00000       0.00000    
     16291 TFA      88       TFA      O2       OD2C2A    1.45190       15.5994           0 -0.350000       2.39900    
     16292 TFA      88       TFA      DO2      DRUD     -1.45190      0.400000           0   0.00000       0.00000    
     16293 TFA      88       TFA      LPO11    LPD     -0.310000       0.00000          -1   0.00000       0.00000    
     16294 TFA      88       TFA      LPO12    LPD     -0.310000       0.00000          -1   0.00000       0.00000    
     16295 TFA      88       TFA      LPO21    LPD     -0.310000       0.00000          -1   0.00000       0.00000    
     16296 TFA      88       TFA      LPO22    LPD     -0.310000       0.00000          -1   0.00000       0.00000    
     16297 TFA      89       TFA      C1       CD2O2A    2.58500       11.6110           0 -0.800000      0.899000    
     16298 TFA      89       TFA      DC1      DRUD     -2.19500      0.400000           0   0.00000       0.00000    
     16299 TFA      89       TFA      C2       CD30A    0.450000       12.0110           0   0.00000       0.00000    
     16300 TFA      89       TFA      F1       FDA3      1.92530       18.5980           0 -0.750000       1.30000    
     16301 TFA      89       TFA      DF1      DRUD     -2.12530      0.400000           0   0.00000       0.00000    
     16302 TFA      89       TFA      F2       FDA3      1.92530       18.5980           0 -0.750000       1.30000    
     16303 TFA      89       TFA      DF2      DRUD     -2.12530      0.400000           0   0.00000       0.00000    
     16304 TFA      89       TFA      F3       FDA3      1.92530       18.5980           0 -0.750000       1.30000    
     16305 TFA      89       TFA      DF3      DRUD     -2.12530      0.400000           0   0.00000       0.00000    
     16306 TFA      89       TFA      O1       OD2C2A    1.45190       15.5994           0 -0.350000       2.39900    
     16307 TFA      89       TFA      DO1      DRUD     -1.45190      0.400000           0   0.00000       0.00000    
     16308 TFA      89       TFA      O2       OD2C2A    1.45190       15.5994           0 -0.350000       2.39900    
     16309 TFA      89       TFA      DO2      DRUD     -1.45190      0.400000           0   0.00000       0.00000    
     16310 TFA      89       TFA      LPO11    LPD     -0.310000       0.00000          -1   0.00000       0.00000    
     16311 TFA      89       TFA      LPO12    LPD     -0.310000       0.00000          -1   0.00000       0.00000    
     16312 TFA      89       TFA      LPO21    LPD     -0.310000       0.00000          -1   0.00000       0.00000    
     16313 TFA      89       TFA      LPO22    LPD     -0.310000       0.00000          -1   0.00000       0.00000    
     16314 TFA      90       TFA      C1       CD2O2A    2.58500       11.6110           0 -0.800000      0.899000    
     16315 TFA      90       TFA      DC1      DRUD     -2.19500      0.400000           0   0.00000       0.00000    
     16316 TFA      90       TFA      C2       CD30A    0.450000       12.0110           0   0.00000       0.00000    
     16317 TFA      90       TFA      F1       FDA3      1.92530       18.5980           0 -0.750000       1.30000    
     16318 TFA      90       TFA      DF1      DRUD     -2.12530      0.400000           0   0.00000       0.00000    
     16319 TFA      90       TFA      F2       FDA3      1.92530       18.5980           0 -0.750000       1.30000    
     16320 TFA      90       TFA      DF2      DRUD     -2.12530      0.400000           0   0.00000       0.00000    
     16321 TFA      90       TFA      F3       FDA3      1.92530       18.5980           0 -0.750000       1.30000    
     16322 TFA      90       TFA      DF3      DRUD     -2.12530      0.400000           0   0.00000       0.00000    
     16323 TFA      90       TFA      O1       OD2C2A    1.45190       15.5994           0 -0.350000       2.39900    
     16324 TFA      90       TFA      DO1      DRUD     -1.45190      0.400000           0   0.00000       0.00000    
     16325 TFA      90       TFA      O2       OD2C2A    1.45190       15.5994           0 -0.350000       2.39900    
     16326 TFA      90       TFA      DO2      DRUD     -1.45190      0.400000           0   0.00000       0.00000    
     16327 TFA      90       TFA      LPO11    LPD     -0.310000       0.00000          -1   0.00000       0.00000    
     16328 TFA      90       TFA      LPO12    LPD     -0.310000       0.00000          -1   0.00000       0.00000    
     16329 TFA      90       TFA      LPO21    LPD     -0.310000       0.00000          -1   0.00000       0.00000    
     16330 TFA      90       TFA      LPO22    LPD     -0.310000       0.00000          -1   0.00000       0.00000    
     16331 TFA      91       TFA      C1       CD2O2A    2.58500       11.6110           0 -0.800000      0.899000    
     16332 TFA      91       TFA      DC1      DRUD     -2.19500      0.400000           0   0.00000       0.00000    
     16333 TFA      91       TFA      C2       CD30A    0.450000       12.0110           0   0.00000       0.00000    
     16334 TFA      91       TFA      F1       FDA3      1.92530       18.5980           0 -0.750000       1.30000    
     16335 TFA      91       TFA      DF1      DRUD     -2.12530      0.400000           0   0.00000       0.00000    
     16336 TFA      91       TFA      F2       FDA3      1.92530       18.5980           0 -0.750000       1.30000    
     16337 TFA      91       TFA      DF2      DRUD     -2.12530      0.400000           0   0.00000       0.00000    
     16338 TFA      91       TFA      F3       FDA3      1.92530       18.5980           0 -0.750000       1.30000    
     16339 TFA      91       TFA      DF3      DRUD     -2.12530      0.400000           0   0.00000       0.00000    
     16340 TFA      91       TFA      O1       OD2C2A    1.45190       15.5994           0 -0.350000       2.39900    
     16341 TFA      91       TFA      DO1      DRUD     -1.45190      0.400000           0   0.00000       0.00000    
     16342 TFA      91       TFA      O2       OD2C2A    1.45190       15.5994           0 -0.350000       2.39900    
     16343 TFA      91       TFA      DO2      DRUD     -1.45190      0.400000           0   0.00000       0.00000    
     16344 TFA      91       TFA      LPO11    LPD     -0.310000       0.00000          -1   0.00000       0.00000    
     16345 TFA      91       TFA      LPO12    LPD     -0.310000       0.00000          -1   0.00000       0.00000    
     16346 TFA      91       TFA      LPO21    LPD     -0.310000       0.00000          -1   0.00000       0.00000    
     16347 TFA      91       TFA      LPO22    LPD     -0.310000       0.00000          -1   0.00000       0.00000    
     16348 TFA      92       TFA      C1       CD2O2A    2.58500       11.6110           0 -0.800000      0.899000    
     16349 TFA      92       TFA      DC1      DRUD     -2.19500      0.400000           0   0.00000       0.00000    
     16350 TFA      92       TFA      C2       CD30A    0.450000       12.0110           0   0.00000       0.00000    
     16351 TFA      92       TFA      F1       FDA3      1.92530       18.5980           0 -0.750000       1.30000    
     16352 TFA      92       TFA      DF1      DRUD     -2.12530      0.400000           0   0.00000       0.00000    
     16353 TFA      92       TFA      F2       FDA3      1.92530       18.5980           0 -0.750000       1.30000    
     16354 TFA      92       TFA      DF2      DRUD     -2.12530      0.400000           0   0.00000       0.00000    
     16355 TFA      92       TFA      F3       FDA3      1.92530       18.5980           0 -0.750000       1.30000    
     16356 TFA      92       TFA      DF3      DRUD     -2.12530      0.400000           0   0.00000       0.00000    
     16357 TFA      92       TFA      O1       OD2C2A    1.45190       15.5994           0 -0.350000       2.39900    
     16358 TFA      92       TFA      DO1      DRUD     -1.45190      0.400000           0   0.00000       0.00000    
     16359 TFA      92       TFA      O2       OD2C2A    1.45190       15.5994           0 -0.350000       2.39900    
     16360 TFA      92       TFA      DO2      DRUD     -1.45190      0.400000           0   0.00000       0.00000    
     16361 TFA      92       TFA      LPO11    LPD     -0.310000       0.00000          -1   0.00000       0.00000    
     16362 TFA      92       TFA      LPO12    LPD     -0.310000       0.00000          -1   0.00000       0.00000    
     16363 TFA      92       TFA      LPO21    LPD     -0.310000       0.00000          -1   0.00000       0.00000    
     16364 TFA      92       TFA      LPO22    LPD     -0.310000       0.00000          -1   0.00000       0.00000    
     16365 TFA      93       TFA      C1       CD2O2A    2.58500       11.6110           0 -0.800000      0.899000    
     16366 TFA      93       TFA      DC1      DRUD     -2.19500      0.400000           0   0.00000       0.00000    
     16367 TFA      93       TFA      C2       CD30A    0.450000       12.0110           0   0.00000       0.00000    
     16368 TFA      93       TFA      F1       FDA3      1.92530       18.5980           0 -0.750000       1.30000    
     16369 TFA      93       TFA      DF1      DRUD     -2.12530      0.400000           0   0.00000       0.00000    
     16370 TFA      93       TFA      F2       FDA3      1.92530       18.5980           0 -0.750000       1.30000    
     16371 TFA      93       TFA      DF2      DRUD     -2.12530      0.400000           0   0.00000       0.00000    
     16372 TFA      93       TFA      F3       FDA3      1.92530       18.5980           0 -0.750000       1.30000    
     16373 TFA      93       TFA      DF3      DRUD     -2.12530      0.400000           0   0.00000       0.00000    
     16374 TFA      93       TFA      O1       OD2C2A    1.45190       15.5994           0 -0.350000       2.39900    
     16375 TFA      93       TFA      DO1      DRUD     -1.45190      0.400000           0   0.00000       0.00000    
     16376 TFA      93       TFA      O2       OD2C2A    1.45190       15.5994           0 -0.350000       2.39900    
     16377 TFA      93       TFA      DO2      DRUD     -1.45190      0.400000           0   0.00000       0.00000    
     16378 TFA      93       TFA      LPO11    LPD     -0.310000       0.00000          -1   0.00000       0.00000    
     16379 TFA      93       TFA      LPO12    LPD     -0.310000       0.00000          -1   0.00000       0.00000    
     16380 TFA      93       TFA      LPO21    LPD     -0.310000       0.00000          -1   0.00000       0.00000    
     16381 TFA      93       TFA      LPO22    LPD     -0.310000       0.00000          -1   0.00000       0.00000    
     16382 TFA      94       TFA      C1       CD2O2A    2.58500       11.6110           0 -0.800000      0.899000    
     16383 TFA      94       TFA      DC1      DRUD     -2.19500      0.400000           0   0.00000       0.00000    
     16384 TFA      94       TFA      C2       CD30A    0.450000       12.0110           0   0.00000       0.00000    
     16385 TFA      94       TFA      F1       FDA3      1.92530       18.5980           0 -0.750000       1.30000    
     16386 TFA      94       TFA      DF1      DRUD     -2.12530      0.400000           0   0.00000       0.00000    
     16387 TFA      94       TFA      F2       FDA3      1.92530       18.5980           0 -0.750000       1.30000    
     16388 TFA      94       TFA      DF2      DRUD     -2.12530      0.400000           0   0.00000       0.00000    
     16389 TFA      94       TFA      F3       FDA3      1.92530       18.5980           0 -0.750000       1.30000    
     16390 TFA      94       TFA      DF3      DRUD     -2.12530      0.400000           0   0.00000       0.00000    
     16391 TFA      94       TFA      O1       OD2C2A    1.45190       15.5994           0 -0.350000       2.39900    
     16392 TFA      94       TFA      DO1      DRUD     -1.45190      0.400000           0   0.00000       0.00000    
     16393 TFA      94       TFA      O2       OD2C2A    1.45190       15.5994           0 -0.350000       2.39900    
     16394 TFA      94       TFA      DO2      DRUD     -1.45190      0.400000           0   0.00000       0.00000    
     16395 TFA      94       TFA      LPO11    LPD     -0.310000       0.00000          -1   0.00000       0.00000    
     16396 TFA      94       TFA      LPO12    LPD     -0.310000       0.00000          -1   0.00000       0.00000    
     16397 TFA      94       TFA      LPO21    LPD     -0.310000       0.00000          -1   0.00000       0.00000    
     16398 TFA      94       TFA      LPO22    LPD     -0.310000       0.00000          -1   0.00000       0.00000    
     16399 TFA      95       TFA      C1       CD2O2A    2.58500       11.6110           0 -0.800000      0.899000    
     16400 TFA      95       TFA      DC1      DRUD     -2.19500      0.400000           0   0.00000       0.00000    
     16401 TFA      95       TFA      C2       CD30A    0.450000       12.0110           0   0.00000       0.00000    
     16402 TFA      95       TFA      F1       FDA3      1.92530       18.5980           0 -0.750000       1.30000    
     16403 TFA      95       TFA      DF1      DRUD     -2.12530      0.400000           0   0.00000       0.00000    
     16404 TFA      95       TFA      F2       FDA3      1.92530       18.5980           0 -0.750000       1.30000    
     16405 TFA      95       TFA      DF2      DRUD     -2.12530      0.400000           0   0.00000       0.00000    
     16406 TFA      95       TFA      F3       FDA3      1.92530       18.5980           0 -0.750000       1.30000    
     16407 TFA      95       TFA      DF3      DRUD     -2.12530      0.400000           0   0.00000       0.00000    
     16408 TFA      95       TFA      O1       OD2C2A    1.45190       15.5994           0 -0.350000       2.39900    
     16409 TFA      95       TFA      DO1      DRUD     -1.45190      0.400000           0   0.00000       0.00000    
     16410 TFA      95       TFA      O2       OD2C2A    1.45190       15.5994           0 -0.350000       2.39900    
     16411 TFA      95       TFA      DO2      DRUD     -1.45190      0.400000           0   0.00000       0.00000    
     16412 TFA      95       TFA      LPO11    LPD     -0.310000       0.00000          -1   0.00000       0.00000    
     16413 TFA      95       TFA      LPO12    LPD     -0.310000       0.00000          -1   0.00000       0.00000    
     16414 TFA      95       TFA      LPO21    LPD     -0.310000       0.00000          -1   0.00000       0.00000    
     16415 TFA      95       TFA      LPO22    LPD     -0.310000       0.00000          -1   0.00000       0.00000    
     16416 TFA      96       TFA      C1       CD2O2A    2.58500       11.6110           0 -0.800000      0.899000    
     16417 TFA      96       TFA      DC1      DRUD     -2.19500      0.400000           0   0.00000       0.00000    
     16418 TFA      96       TFA      C2       CD30A    0.450000       12.0110           0   0.00000       0.00000    
     16419 TFA      96       TFA      F1       FDA3      1.92530       18.5980           0 -0.750000       1.30000    
     16420 TFA      96       TFA      DF1      DRUD     -2.12530      0.400000           0   0.00000       0.00000    
     16421 TFA      96       TFA      F2       FDA3      1.92530       18.5980           0 -0.750000       1.30000    
     16422 TFA      96       TFA      DF2      DRUD     -2.12530      0.400000           0   0.00000       0.00000    
     16423 TFA      96       TFA      F3       FDA3      1.92530       18.5980           0 -0.750000       1.30000    
     16424 TFA      96       TFA      DF3      DRUD     -2.12530      0.400000           0   0.00000       0.00000    
     16425 TFA      96       TFA      O1       OD2C2A    1.45190       15.5994           0 -0.350000       2.39900    
     16426 TFA      96       TFA      DO1      DRUD     -1.45190      0.400000           0   0.00000       0.00000    
     16427 TFA      96       TFA      O2       OD2C2A    1.45190       15.5994           0 -0.350000       2.39900    
     16428 TFA      96       TFA      DO2      DRUD     -1.45190      0.400000           0   0.00000       0.00000    
     16429 TFA      96       TFA      LPO11    LPD     -0.310000       0.00000          -1   0.00000       0.00000    
     16430 TFA      96       TFA      LPO12    LPD     -0.310000       0.00000          -1   0.00000       0.00000    
     16431 TFA      96       TFA      LPO21    LPD     -0.310000       0.00000          -1   0.00000       0.00000    
     16432 TFA      96       TFA      LPO22    LPD     -0.310000       0.00000          -1   0.00000       0.00000    
     16433 TFA      97       TFA      C1       CD2O2A    2.58500       11.6110           0 -0.800000      0.899000    
     16434 TFA      97       TFA      DC1      DRUD     -2.19500      0.400000           0   0.00000       0.00000    
     16435 TFA      97       TFA      C2       CD30A    0.450000       12.0110           0   0.00000       0.00000    
     16436 TFA      97       TFA      F1       FDA3      1.92530       18.5980           0 -0.750000       1.30000    
     16437 TFA      97       TFA      DF1      DRUD     -2.12530      0.400000           0   0.00000       0.00000    
     16438 TFA      97       TFA      F2       FDA3      1.92530       18.5980           0 -0.750000       1.30000    
     16439 TFA      97       TFA      DF2      DRUD     -2.12530      0.400000           0   0.00000       0.00000    
     16440 TFA      97       TFA      F3       FDA3      1.92530       18.5980           0 -0.750000       1.30000    
     16441 TFA      97       TFA      DF3      DRUD     -2.12530      0.400000           0   0.00000       0.00000    
     16442 TFA      97       TFA      O1       OD2C2A    1.45190       15.5994           0 -0.350000       2.39900    
     16443 TFA      97       TFA      DO1      DRUD     -1.45190      0.400000           0   0.00000       0.00000    
     16444 TFA      97       TFA      O2       OD2C2A    1.45190       15.5994           0 -0.350000       2.39900    
     16445 TFA      97       TFA      DO2      DRUD     -1.45190      0.400000           0   0.00000       0.00000    
     16446 TFA      97       TFA      LPO11    LPD     -0.310000       0.00000          -1   0.00000       0.00000    
     16447 TFA      97       TFA      LPO12    LPD     -0.310000       0.00000          -1   0.00000       0.00000    
     16448 TFA      97       TFA      LPO21    LPD     -0.310000       0.00000          -1   0.00000       0.00000    
     16449 TFA      97       TFA      LPO22    LPD     -0.310000       0.00000          -1   0.00000       0.00000    
     16450 TFA      98       TFA      C1       CD2O2A    2.58500       11.6110           0 -0.800000      0.899000    
     16451 TFA      98       TFA      DC1      DRUD     -2.19500      0.400000           0   0.00000       0.00000    
     16452 TFA      98       TFA      C2       CD30A    0.450000       12.0110           0   0.00000       0.00000    
     16453 TFA      98       TFA      F1       FDA3      1.92530       18.5980           0 -0.750000       1.30000    
     16454 TFA      98       TFA      DF1      DRUD     -2.12530      0.400000           0   0.00000       0.00000    
     16455 TFA      98       TFA      F2       FDA3      1.92530       18.5980           0 -0.750000       1.30000    
     16456 TFA      98       TFA      DF2      DRUD     -2.12530      0.400000           0   0.00000       0.00000    
     16457 TFA      98       TFA      F3       FDA3      1.92530       18.5980           0 -0.750000       1.30000    
     16458 TFA      98       TFA      DF3      DRUD     -2.12530      0.400000           0   0.00000       0.00000    
     16459 TFA      98       TFA      O1       OD2C2A    1.45190       15.5994           0 -0.350000       2.39900    
     16460 TFA      98       TFA      DO1      DRUD     -1.45190      0.400000           0   0.00000       0.00000    
     16461 TFA      98       TFA      O2       OD2C2A    1.45190       15.5994           0 -0.350000       2.39900    
     16462 TFA      98       TFA      DO2      DRUD     -1.45190      0.400000           0   0.00000       0.00000    
     16463 TFA      98       TFA      LPO11    LPD     -0.310000       0.00000          -1   0.00000       0.00000    
     16464 TFA      98       TFA      LPO12    LPD     -0.310000       0.00000          -1   0.00000       0.00000    
     16465 TFA      98       TFA      LPO21    LPD     -0.310000       0.00000          -1   0.00000       0.00000    
     16466 TFA      98       TFA      LPO22    LPD     -0.310000       0.00000          -1   0.00000       0.00000    
     16467 TFA      99       TFA      C1       CD2O2A    2.58500       11.6110           0 -0.800000      0.899000    
     16468 TFA      99       TFA      DC1      DRUD     -2.19500      0.400000           0   0.00000       0.00000    
     16469 TFA      99       TFA      C2       CD30A    0.450000       12.0110           0   0.00000       0.00000    
     16470 TFA      99       TFA      F1       FDA3      1.92530       18.5980           0 -0.750000       1.30000    
     16471 TFA      99       TFA      DF1      DRUD     -2.12530      0.400000           0   0.00000       0.00000    
     16472 TFA      99       TFA      F2       FDA3      1.92530       18.5980           0 -0.750000       1.30000    
     16473 TFA      99       TFA      DF2      DRUD     -2.12530      0.400000           0   0.00000       0.00000    
     16474 TFA      99       TFA      F3       FDA3      1.92530       18.5980           0 -0.750000       1.30000    
     16475 TFA      99       TFA      DF3      DRUD     -2.12530      0.400000           0   0.00000       0.00000    
     16476 TFA      99       TFA      O1       OD2C2A    1.45190       15.5994           0 -0.350000       2.39900    
     16477 TFA      99       TFA      DO1      DRUD     -1.45190      0.400000           0   0.00000       0.00000    
     16478 TFA      99       TFA      O2       OD2C2A    1.45190       15.5994           0 -0.350000       2.39900    
     16479 TFA      99       TFA      DO2      DRUD     -1.45190      0.400000           0   0.00000       0.00000    
     16480 TFA      99       TFA      LPO11    LPD     -0.310000       0.00000          -1   0.00000       0.00000    
     16481 TFA      99       TFA      LPO12    LPD     -0.310000       0.00000          -1   0.00000       0.00000    
     16482 TFA      99       TFA      LPO21    LPD     -0.310000       0.00000          -1   0.00000       0.00000    
     16483 TFA      99       TFA      LPO22    LPD     -0.310000       0.00000          -1   0.00000       0.00000    
     16484 TFA      100      TFA      C1       CD2O2A    2.58500       11.6110           0 -0.800000      0.899000    
     16485 TFA      100      TFA      DC1      DRUD     -2.19500      0.400000           0   0.00000       0.00000    
     16486 TFA      100      TFA      C2       CD30A    0.450000       12.0110           0   0.00000       0.00000    
     16487 TFA      100      TFA      F1       FDA3      1.92530       18.5980           0 -0.750000       1.30000    
     16488 TFA      100      TFA      DF1      DRUD     -2.12530      0.400000           0   0.00000       0.00000    
     16489 TFA      100      TFA      F2       FDA3      1.92530       18.5980           0 -0.750000       1.30000    
     16490 TFA      100      TFA      DF2      DRUD     -2.12530      0.400000           0   0.00000       0.00000    
     16491 TFA      100      TFA      F3       FDA3      1.92530       18.5980           0 -0.750000       1.30000    
     16492 TFA      100      TFA      DF3      DRUD     -2.12530      0.400000           0   0.00000       0.00000    
     16493 TFA      100      TFA      O1       OD2C2A    1.45190       15.5994           0 -0.350000       2.39900    
     16494 TFA      100      TFA      DO1      DRUD     -1.45190      0.400000           0   0.00000       0.00000    
     16495 TFA      100      TFA      O2       OD2C2A    1.45190       15.5994           0 -0.350000       2.39900    
     16496 TFA      100      TFA      DO2      DRUD     -1.45190      0.400000           0   0.00000       0.00000    
     16497 TFA      100      TFA      LPO11    LPD     -0.310000       0.00000          -1   0.00000       0.00000    
     16498 TFA      100      TFA      LPO12    LPD     -0.310000       0.00000          -1   0.00000       0.00000    
     16499 TFA      100      TFA      LPO21    LPD     -0.310000       0.00000          -1   0.00000       0.00000    
     16500 TFA      100      TFA      LPO22    LPD     -0.310000       0.00000          -1   0.00000       0.00000    
     16501 TFA      101      TFA      C1       CD2O2A    2.58500       11.6110           0 -0.800000      0.899000    
     16502 TFA      101      TFA      DC1      DRUD     -2.19500      0.400000           0   0.00000       0.00000    
     16503 TFA      101      TFA      C2       CD30A    0.450000       12.0110           0   0.00000       0.00000    
     16504 TFA      101      TFA      F1       FDA3      1.92530       18.5980           0 -0.750000       1.30000    
     16505 TFA      101      TFA      DF1      DRUD     -2.12530      0.400000           0   0.00000       0.00000    
     16506 TFA      101      TFA      F2       FDA3      1.92530       18.5980           0 -0.750000       1.30000    
     16507 TFA      101      TFA      DF2      DRUD     -2.12530      0.400000           0   0.00000       0.00000    
     16508 TFA      101      TFA      F3       FDA3      1.92530       18.5980           0 -0.750000       1.30000    
     16509 TFA      101      TFA      DF3      DRUD     -2.12530      0.400000           0   0.00000       0.00000    
     16510 TFA      101      TFA      O1       OD2C2A    1.45190       15.5994           0 -0.350000       2.39900    
     16511 TFA      101      TFA      DO1      DRUD     -1.45190      0.400000           0   0.00000       0.00000    
     16512 TFA      101      TFA      O2       OD2C2A    1.45190       15.5994           0 -0.350000       2.39900    
     16513 TFA      101      TFA      DO2      DRUD     -1.45190      0.400000           0   0.00000       0.00000    
     16514 TFA      101      TFA      LPO11    LPD     -0.310000       0.00000          -1   0.00000       0.00000    
     16515 TFA      101      TFA      LPO12    LPD     -0.310000       0.00000          -1   0.00000       0.00000    
     16516 TFA      101      TFA      LPO21    LPD     -0.310000       0.00000          -1   0.00000       0.00000    
     16517 TFA      101      TFA      LPO22    LPD     -0.310000       0.00000          -1   0.00000       0.00000    
     16518 TFA      102      TFA      C1       CD2O2A    2.58500       11.6110           0 -0.800000      0.899000    
     16519 TFA      102      TFA      DC1      DRUD     -2.19500      0.400000           0   0.00000       0.00000    
     16520 TFA      102      TFA      C2       CD30A    0.450000       12.0110           0   0.00000       0.00000    
     16521 TFA      102      TFA      F1       FDA3      1.92530       18.5980           0 -0.750000       1.30000    
     16522 TFA      102      TFA      DF1      DRUD     -2.12530      0.400000           0   0.00000       0.00000    
     16523 TFA      102      TFA      F2       FDA3      1.92530       18.5980           0 -0.750000       1.30000    
     16524 TFA      102      TFA      DF2      DRUD     -2.12530      0.400000           0   0.00000       0.00000    
     16525 TFA      102      TFA      F3       FDA3      1.92530       18.5980           0 -0.750000       1.30000    
     16526 TFA      102      TFA      DF3      DRUD     -2.12530      0.400000           0   0.00000       0.00000    
     16527 TFA      102      TFA      O1       OD2C2A    1.45190       15.5994           0 -0.350000       2.39900    
     16528 TFA      102      TFA      DO1      DRUD     -1.45190      0.400000           0   0.00000       0.00000    
     16529 TFA      102      TFA      O2       OD2C2A    1.45190       15.5994           0 -0.350000       2.39900    
     16530 TFA      102      TFA      DO2      DRUD     -1.45190      0.400000           0   0.00000       0.00000    
     16531 TFA      102      TFA      LPO11    LPD     -0.310000       0.00000          -1   0.00000       0.00000    
     16532 TFA      102      TFA      LPO12    LPD     -0.310000       0.00000          -1   0.00000       0.00000    
     16533 TFA      102      TFA      LPO21    LPD     -0.310000       0.00000          -1   0.00000       0.00000    
     16534 TFA      102      TFA      LPO22    LPD     -0.310000       0.00000          -1   0.00000       0.00000    
     16535 TFA      103      TFA      C1       CD2O2A    2.58500       11.6110           0 -0.800000      0.899000    
     16536 TFA      103      TFA      DC1      DRUD     -2.19500      0.400000           0   0.00000       0.00000    
     16537 TFA      103      TFA      C2       CD30A    0.450000       12.0110           0   0.00000       0.00000    
     16538 TFA      103      TFA      F1       FDA3      1.92530       18.5980           0 -0.750000       1.30000    
     16539 TFA      103      TFA      DF1      DRUD     -2.12530      0.400000           0   0.00000       0.00000    
     16540 TFA      103      TFA      F2       FDA3      1.92530       18.5980           0 -0.750000       1.30000    
     16541 TFA      103      TFA      DF2      DRUD     -2.12530      0.400000           0   0.00000       0.00000    
     16542 TFA      103      TFA      F3       FDA3      1.92530       18.5980           0 -0.750000       1.30000    
     16543 TFA      103      TFA      DF3      DRUD     -2.12530      0.400000           0   0.00000       0.00000    
     16544 TFA      103      TFA      O1       OD2C2A    1.45190       15.5994           0 -0.350000       2.39900    
     16545 TFA      103      TFA      DO1      DRUD     -1.45190      0.400000           0   0.00000       0.00000    
     16546 TFA      103      TFA      O2       OD2C2A    1.45190       15.5994           0 -0.350000       2.39900    
     16547 TFA      103      TFA      DO2      DRUD     -1.45190      0.400000           0   0.00000       0.00000    
     16548 TFA      103      TFA      LPO11    LPD     -0.310000       0.00000          -1   0.00000       0.00000    
     16549 TFA      103      TFA      LPO12    LPD     -0.310000       0.00000          -1   0.00000       0.00000    
     16550 TFA      103      TFA      LPO21    LPD     -0.310000       0.00000          -1   0.00000       0.00000    
     16551 TFA      103      TFA      LPO22    LPD     -0.310000       0.00000          -1   0.00000       0.00000    
     16552 TFA      104      TFA      C1       CD2O2A    2.58500       11.6110           0 -0.800000      0.899000    
     16553 TFA      104      TFA      DC1      DRUD     -2.19500      0.400000           0   0.00000       0.00000    
     16554 TFA      104      TFA      C2       CD30A    0.450000       12.0110           0   0.00000       0.00000    
     16555 TFA      104      TFA      F1       FDA3      1.92530       18.5980           0 -0.750000       1.30000    
     16556 TFA      104      TFA      DF1      DRUD     -2.12530      0.400000           0   0.00000       0.00000    
     16557 TFA      104      TFA      F2       FDA3      1.92530       18.5980           0 -0.750000       1.30000    
     16558 TFA      104      TFA      DF2      DRUD     -2.12530      0.400000           0   0.00000       0.00000    
     16559 TFA      104      TFA      F3       FDA3      1.92530       18.5980           0 -0.750000       1.30000    
     16560 TFA      104      TFA      DF3      DRUD     -2.12530      0.400000           0   0.00000       0.00000    
     16561 TFA      104      TFA      O1       OD2C2A    1.45190       15.5994           0 -0.350000       2.39900    
     16562 TFA      104      TFA      DO1      DRUD     -1.45190      0.400000           0   0.00000       0.00000    
     16563 TFA      104      TFA      O2       OD2C2A    1.45190       15.5994           0 -0.350000       2.39900    
     16564 TFA      104      TFA      DO2      DRUD     -1.45190      0.400000           0   0.00000       0.00000    
     16565 TFA      104      TFA      LPO11    LPD     -0.310000       0.00000          -1   0.00000       0.00000    
     16566 TFA      104      TFA      LPO12    LPD     -0.310000       0.00000          -1   0.00000       0.00000    
     16567 TFA      104      TFA      LPO21    LPD     -0.310000       0.00000          -1   0.00000       0.00000    
     16568 TFA      104      TFA      LPO22    LPD     -0.310000       0.00000          -1   0.00000       0.00000    
     16569 TFA      105      TFA      C1       CD2O2A    2.58500       11.6110           0 -0.800000      0.899000    
     16570 TFA      105      TFA      DC1      DRUD     -2.19500      0.400000           0   0.00000       0.00000    
     16571 TFA      105      TFA      C2       CD30A    0.450000       12.0110           0   0.00000       0.00000    
     16572 TFA      105      TFA      F1       FDA3      1.92530       18.5980           0 -0.750000       1.30000    
     16573 TFA      105      TFA      DF1      DRUD     -2.12530      0.400000           0   0.00000       0.00000    
     16574 TFA      105      TFA      F2       FDA3      1.92530       18.5980           0 -0.750000       1.30000    
     16575 TFA      105      TFA      DF2      DRUD     -2.12530      0.400000           0   0.00000       0.00000    
     16576 TFA      105      TFA      F3       FDA3      1.92530       18.5980           0 -0.750000       1.30000    
     16577 TFA      105      TFA      DF3      DRUD     -2.12530      0.400000           0   0.00000       0.00000    
     16578 TFA      105      TFA      O1       OD2C2A    1.45190       15.5994           0 -0.350000       2.39900    
     16579 TFA      105      TFA      DO1      DRUD     -1.45190      0.400000           0   0.00000       0.00000    
     16580 TFA      105      TFA      O2       OD2C2A    1.45190       15.5994           0 -0.350000       2.39900    
     16581 TFA      105      TFA      DO2      DRUD     -1.45190      0.400000           0   0.00000       0.00000    
     16582 TFA      105      TFA      LPO11    LPD     -0.310000       0.00000          -1   0.00000       0.00000    
     16583 TFA      105      TFA      LPO12    LPD     -0.310000       0.00000          -1   0.00000       0.00000    
     16584 TFA      105      TFA      LPO21    LPD     -0.310000       0.00000          -1   0.00000       0.00000    
     16585 TFA      105      TFA      LPO22    LPD     -0.310000       0.00000          -1   0.00000       0.00000    
     16586 TFA      106      TFA      C1       CD2O2A    2.58500       11.6110           0 -0.800000      0.899000    
     16587 TFA      106      TFA      DC1      DRUD     -2.19500      0.400000           0   0.00000       0.00000    
     16588 TFA      106      TFA      C2       CD30A    0.450000       12.0110           0   0.00000       0.00000    
     16589 TFA      106      TFA      F1       FDA3      1.92530       18.5980           0 -0.750000       1.30000    
     16590 TFA      106      TFA      DF1      DRUD     -2.12530      0.400000           0   0.00000       0.00000    
     16591 TFA      106      TFA      F2       FDA3      1.92530       18.5980           0 -0.750000       1.30000    
     16592 TFA      106      TFA      DF2      DRUD     -2.12530      0.400000           0   0.00000       0.00000    
     16593 TFA      106      TFA      F3       FDA3      1.92530       18.5980           0 -0.750000       1.30000    
     16594 TFA      106      TFA      DF3      DRUD     -2.12530      0.400000           0   0.00000       0.00000    
     16595 TFA      106      TFA      O1       OD2C2A    1.45190       15.5994           0 -0.350000       2.39900    
     16596 TFA      106      TFA      DO1      DRUD     -1.45190      0.400000           0   0.00000       0.00000    
     16597 TFA      106      TFA      O2       OD2C2A    1.45190       15.5994           0 -0.350000       2.39900    
     16598 TFA      106      TFA      DO2      DRUD     -1.45190      0.400000           0   0.00000       0.00000    
     16599 TFA      106      TFA      LPO11    LPD     -0.310000       0.00000          -1   0.00000       0.00000    
     16600 TFA      106      TFA      LPO12    LPD     -0.310000       0.00000          -1   0.00000       0.00000    
     16601 TFA      106      TFA      LPO21    LPD     -0.310000       0.00000          -1   0.00000       0.00000    
     16602 TFA      106      TFA      LPO22    LPD     -0.310000       0.00000          -1   0.00000       0.00000    
     16603 TFA      107      TFA      C1       CD2O2A    2.58500       11.6110           0 -0.800000      0.899000    
     16604 TFA      107      TFA      DC1      DRUD     -2.19500      0.400000           0   0.00000       0.00000    
     16605 TFA      107      TFA      C2       CD30A    0.450000       12.0110           0   0.00000       0.00000    
     16606 TFA      107      TFA      F1       FDA3      1.92530       18.5980           0 -0.750000       1.30000    
     16607 TFA      107      TFA      DF1      DRUD     -2.12530      0.400000           0   0.00000       0.00000    
     16608 TFA      107      TFA      F2       FDA3      1.92530       18.5980           0 -0.750000       1.30000    
     16609 TFA      107      TFA      DF2      DRUD     -2.12530      0.400000           0   0.00000       0.00000    
     16610 TFA      107      TFA      F3       FDA3      1.92530       18.5980           0 -0.750000       1.30000    
     16611 TFA      107      TFA      DF3      DRUD     -2.12530      0.400000           0   0.00000       0.00000    
     16612 TFA      107      TFA      O1       OD2C2A    1.45190       15.5994           0 -0.350000       2.39900    
     16613 TFA      107      TFA      DO1      DRUD     -1.45190      0.400000           0   0.00000       0.00000    
     16614 TFA      107      TFA      O2       OD2C2A    1.45190       15.5994           0 -0.350000       2.39900    
     16615 TFA      107      TFA      DO2      DRUD     -1.45190      0.400000           0   0.00000       0.00000    
     16616 TFA      107      TFA      LPO11    LPD     -0.310000       0.00000          -1   0.00000       0.00000    
     16617 TFA      107      TFA      LPO12    LPD     -0.310000       0.00000          -1   0.00000       0.00000    
     16618 TFA      107      TFA      LPO21    LPD     -0.310000       0.00000          -1   0.00000       0.00000    
     16619 TFA      107      TFA      LPO22    LPD     -0.310000       0.00000          -1   0.00000       0.00000    
     16620 TFA      108      TFA      C1       CD2O2A    2.58500       11.6110           0 -0.800000      0.899000    
     16621 TFA      108      TFA      DC1      DRUD     -2.19500      0.400000           0   0.00000       0.00000    
     16622 TFA      108      TFA      C2       CD30A    0.450000       12.0110           0   0.00000       0.00000    
     16623 TFA      108      TFA      F1       FDA3      1.92530       18.5980           0 -0.750000       1.30000    
     16624 TFA      108      TFA      DF1      DRUD     -2.12530      0.400000           0   0.00000       0.00000    
     16625 TFA      108      TFA      F2       FDA3      1.92530       18.5980           0 -0.750000       1.30000    
     16626 TFA      108      TFA      DF2      DRUD     -2.12530      0.400000           0   0.00000       0.00000    
     16627 TFA      108      TFA      F3       FDA3      1.92530       18.5980           0 -0.750000       1.30000    
     16628 TFA      108      TFA      DF3      DRUD     -2.12530      0.400000           0   0.00000       0.00000    
     16629 TFA      108      TFA      O1       OD2C2A    1.45190       15.5994           0 -0.350000       2.39900    
     16630 TFA      108      TFA      DO1      DRUD     -1.45190      0.400000           0   0.00000       0.00000    
     16631 TFA      108      TFA      O2       OD2C2A    1.45190       15.5994           0 -0.350000       2.39900    
     16632 TFA      108      TFA      DO2      DRUD     -1.45190      0.400000           0   0.00000       0.00000    
     16633 TFA      108      TFA      LPO11    LPD     -0.310000       0.00000          -1   0.00000       0.00000    
     16634 TFA      108      TFA      LPO12    LPD     -0.310000       0.00000          -1   0.00000       0.00000    
     16635 TFA      108      TFA      LPO21    LPD     -0.310000       0.00000          -1   0.00000       0.00000    
     16636 TFA      108      TFA      LPO22    LPD     -0.310000       0.00000          -1   0.00000       0.00000    
     16637 TFA      109      TFA      C1       CD2O2A    2.58500       11.6110           0 -0.800000      0.899000    
     16638 TFA      109      TFA      DC1      DRUD     -2.19500      0.400000           0   0.00000       0.00000    
     16639 TFA      109      TFA      C2       CD30A    0.450000       12.0110           0   0.00000       0.00000    
     16640 TFA      109      TFA      F1       FDA3      1.92530       18.5980           0 -0.750000       1.30000    
     16641 TFA      109      TFA      DF1      DRUD     -2.12530      0.400000           0   0.00000       0.00000    
     16642 TFA      109      TFA      F2       FDA3      1.92530       18.5980           0 -0.750000       1.30000    
     16643 TFA      109      TFA      DF2      DRUD     -2.12530      0.400000           0   0.00000       0.00000    
     16644 TFA      109      TFA      F3       FDA3      1.92530       18.5980           0 -0.750000       1.30000    
     16645 TFA      109      TFA      DF3      DRUD     -2.12530      0.400000           0   0.00000       0.00000    
     16646 TFA      109      TFA      O1       OD2C2A    1.45190       15.5994           0 -0.350000       2.39900    
     16647 TFA      109      TFA      DO1      DRUD     -1.45190      0.400000           0   0.00000       0.00000    
     16648 TFA      109      TFA      O2       OD2C2A    1.45190       15.5994           0 -0.350000       2.39900    
     16649 TFA      109      TFA      DO2      DRUD     -1.45190      0.400000           0   0.00000       0.00000    
     16650 TFA      109      TFA      LPO11    LPD     -0.310000       0.00000          -1   0.00000       0.00000    
     16651 TFA      109      TFA      LPO12    LPD     -0.310000       0.00000          -1   0.00000       0.00000    
     16652 TFA      109      TFA      LPO21    LPD     -0.310000       0.00000          -1   0.00000       0.00000    
     16653 TFA      109      TFA      LPO22    LPD     -0.310000       0.00000          -1   0.00000       0.00000    
     16654 TFA      110      TFA      C1       CD2O2A    2.58500       11.6110           0 -0.800000      0.899000    
     16655 TFA      110      TFA      DC1      DRUD     -2.19500      0.400000           0   0.00000       0.00000    
     16656 TFA      110      TFA      C2       CD30A    0.450000       12.0110           0   0.00000       0.00000    
     16657 TFA      110      TFA      F1       FDA3      1.92530       18.5980           0 -0.750000       1.30000    
     16658 TFA      110      TFA      DF1      DRUD     -2.12530      0.400000           0   0.00000       0.00000    
     16659 TFA      110      TFA      F2       FDA3      1.92530       18.5980           0 -0.750000       1.30000    
     16660 TFA      110      TFA      DF2      DRUD     -2.12530      0.400000           0   0.00000       0.00000    
     16661 TFA      110      TFA      F3       FDA3      1.92530       18.5980           0 -0.750000       1.30000    
     16662 TFA      110      TFA      DF3      DRUD     -2.12530      0.400000           0   0.00000       0.00000    
     16663 TFA      110      TFA      O1       OD2C2A    1.45190       15.5994           0 -0.350000       2.39900    
     16664 TFA      110      TFA      DO1      DRUD     -1.45190      0.400000           0   0.00000       0.00000    
     16665 TFA      110      TFA      O2       OD2C2A    1.45190       15.5994           0 -0.350000       2.39900    
     16666 TFA      110      TFA      DO2      DRUD     -1.45190      0.400000           0   0.00000       0.00000    
     16667 TFA      110      TFA      LPO11    LPD     -0.310000       0.00000          -1   0.00000       0.00000    
     16668 TFA      110      TFA      LPO12    LPD     -0.310000       0.00000          -1   0.00000       0.00000    
     16669 TFA      110      TFA      LPO21    LPD     -0.310000       0.00000          -1   0.00000       0.00000    
     16670 TFA      110      TFA      LPO22    LPD     -0.310000       0.00000          -1   0.00000       0.00000    
     16671 TFA      111      TFA      C1       CD2O2A    2.58500       11.6110           0 -0.800000      0.899000    
     16672 TFA      111      TFA      DC1      DRUD     -2.19500      0.400000           0   0.00000       0.00000    
     16673 TFA      111      TFA      C2       CD30A    0.450000       12.0110           0   0.00000       0.00000    
     16674 TFA      111      TFA      F1       FDA3      1.92530       18.5980           0 -0.750000       1.30000    
     16675 TFA      111      TFA      DF1      DRUD     -2.12530      0.400000           0   0.00000       0.00000    
     16676 TFA      111      TFA      F2       FDA3      1.92530       18.5980           0 -0.750000       1.30000    
     16677 TFA      111      TFA      DF2      DRUD     -2.12530      0.400000           0   0.00000       0.00000    
     16678 TFA      111      TFA      F3       FDA3      1.92530       18.5980           0 -0.750000       1.30000    
     16679 TFA      111      TFA      DF3      DRUD     -2.12530      0.400000           0   0.00000       0.00000    
     16680 TFA      111      TFA      O1       OD2C2A    1.45190       15.5994           0 -0.350000       2.39900    
     16681 TFA      111      TFA      DO1      DRUD     -1.45190      0.400000           0   0.00000       0.00000    
     16682 TFA      111      TFA      O2       OD2C2A    1.45190       15.5994           0 -0.350000       2.39900    
     16683 TFA      111      TFA      DO2      DRUD     -1.45190      0.400000           0   0.00000       0.00000    
     16684 TFA      111      TFA      LPO11    LPD     -0.310000       0.00000          -1   0.00000       0.00000    
     16685 TFA      111      TFA      LPO12    LPD     -0.310000       0.00000          -1   0.00000       0.00000    
     16686 TFA      111      TFA      LPO21    LPD     -0.310000       0.00000          -1   0.00000       0.00000    
     16687 TFA      111      TFA      LPO22    LPD     -0.310000       0.00000          -1   0.00000       0.00000    
     16688 TFA      112      TFA      C1       CD2O2A    2.58500       11.6110           0 -0.800000      0.899000    
     16689 TFA      112      TFA      DC1      DRUD     -2.19500      0.400000           0   0.00000       0.00000    
     16690 TFA      112      TFA      C2       CD30A    0.450000       12.0110           0   0.00000       0.00000    
     16691 TFA      112      TFA      F1       FDA3      1.92530       18.5980           0 -0.750000       1.30000    
     16692 TFA      112      TFA      DF1      DRUD     -2.12530      0.400000           0   0.00000       0.00000    
     16693 TFA      112      TFA      F2       FDA3      1.92530       18.5980           0 -0.750000       1.30000    
     16694 TFA      112      TFA      DF2      DRUD     -2.12530      0.400000           0   0.00000       0.00000    
     16695 TFA      112      TFA      F3       FDA3      1.92530       18.5980           0 -0.750000       1.30000    
     16696 TFA      112      TFA      DF3      DRUD     -2.12530      0.400000           0   0.00000       0.00000    
     16697 TFA      112      TFA      O1       OD2C2A    1.45190       15.5994           0 -0.350000       2.39900    
     16698 TFA      112      TFA      DO1      DRUD     -1.45190      0.400000           0   0.00000       0.00000    
     16699 TFA      112      TFA      O2       OD2C2A    1.45190       15.5994           0 -0.350000       2.39900    
     16700 TFA      112      TFA      DO2      DRUD     -1.45190      0.400000           0   0.00000       0.00000    
     16701 TFA      112      TFA      LPO11    LPD     -0.310000       0.00000          -1   0.00000       0.00000    
     16702 TFA      112      TFA      LPO12    LPD     -0.310000       0.00000          -1   0.00000       0.00000    
     16703 TFA      112      TFA      LPO21    LPD     -0.310000       0.00000          -1   0.00000       0.00000    
     16704 TFA      112      TFA      LPO22    LPD     -0.310000       0.00000          -1   0.00000       0.00000    
     16705 TFA      113      TFA      C1       CD2O2A    2.58500       11.6110           0 -0.800000      0.899000    
     16706 TFA      113      TFA      DC1      DRUD     -2.19500      0.400000           0   0.00000       0.00000    
     16707 TFA      113      TFA      C2       CD30A    0.450000       12.0110           0   0.00000       0.00000    
     16708 TFA      113      TFA      F1       FDA3      1.92530       18.5980           0 -0.750000       1.30000    
     16709 TFA      113      TFA      DF1      DRUD     -2.12530      0.400000           0   0.00000       0.00000    
     16710 TFA      113      TFA      F2       FDA3      1.92530       18.5980           0 -0.750000       1.30000    
     16711 TFA      113      TFA      DF2      DRUD     -2.12530      0.400000           0   0.00000       0.00000    
     16712 TFA      113      TFA      F3       FDA3      1.92530       18.5980           0 -0.750000       1.30000    
     16713 TFA      113      TFA      DF3      DRUD     -2.12530      0.400000           0   0.00000       0.00000    
     16714 TFA      113      TFA      O1       OD2C2A    1.45190       15.5994           0 -0.350000       2.39900    
     16715 TFA      113      TFA      DO1      DRUD     -1.45190      0.400000           0   0.00000       0.00000    
     16716 TFA      113      TFA      O2       OD2C2A    1.45190       15.5994           0 -0.350000       2.39900    
     16717 TFA      113      TFA      DO2      DRUD     -1.45190      0.400000           0   0.00000       0.00000    
     16718 TFA      113      TFA      LPO11    LPD     -0.310000       0.00000          -1   0.00000       0.00000    
     16719 TFA      113      TFA      LPO12    LPD     -0.310000       0.00000          -1   0.00000       0.00000    
     16720 TFA      113      TFA      LPO21    LPD     -0.310000       0.00000          -1   0.00000       0.00000    
     16721 TFA      113      TFA      LPO22    LPD     -0.310000       0.00000          -1   0.00000       0.00000    
     16722 TFA      114      TFA      C1       CD2O2A    2.58500       11.6110           0 -0.800000      0.899000    
     16723 TFA      114      TFA      DC1      DRUD     -2.19500      0.400000           0   0.00000       0.00000    
     16724 TFA      114      TFA      C2       CD30A    0.450000       12.0110           0   0.00000       0.00000    
     16725 TFA      114      TFA      F1       FDA3      1.92530       18.5980           0 -0.750000       1.30000    
     16726 TFA      114      TFA      DF1      DRUD     -2.12530      0.400000           0   0.00000       0.00000    
     16727 TFA      114      TFA      F2       FDA3      1.92530       18.5980           0 -0.750000       1.30000    
     16728 TFA      114      TFA      DF2      DRUD     -2.12530      0.400000           0   0.00000       0.00000    
     16729 TFA      114      TFA      F3       FDA3      1.92530       18.5980           0 -0.750000       1.30000    
     16730 TFA      114      TFA      DF3      DRUD     -2.12530      0.400000           0   0.00000       0.00000    
     16731 TFA      114      TFA      O1       OD2C2A    1.45190       15.5994           0 -0.350000       2.39900    
     16732 TFA      114      TFA      DO1      DRUD     -1.45190      0.400000           0   0.00000       0.00000    
     16733 TFA      114      TFA      O2       OD2C2A    1.45190       15.5994           0 -0.350000       2.39900    
     16734 TFA      114      TFA      DO2      DRUD     -1.45190      0.400000           0   0.00000       0.00000    
     16735 TFA      114      TFA      LPO11    LPD     -0.310000       0.00000          -1   0.00000       0.00000    
     16736 TFA      114      TFA      LPO12    LPD     -0.310000       0.00000          -1   0.00000       0.00000    
     16737 TFA      114      TFA      LPO21    LPD     -0.310000       0.00000          -1   0.00000       0.00000    
     16738 TFA      114      TFA      LPO22    LPD     -0.310000       0.00000          -1   0.00000       0.00000    
     16739 TFA      115      TFA      C1       CD2O2A    2.58500       11.6110           0 -0.800000      0.899000    
     16740 TFA      115      TFA      DC1      DRUD     -2.19500      0.400000           0   0.00000       0.00000    
     16741 TFA      115      TFA      C2       CD30A    0.450000       12.0110           0   0.00000       0.00000    
     16742 TFA      115      TFA      F1       FDA3      1.92530       18.5980           0 -0.750000       1.30000    
     16743 TFA      115      TFA      DF1      DRUD     -2.12530      0.400000           0   0.00000       0.00000    
     16744 TFA      115      TFA      F2       FDA3      1.92530       18.5980           0 -0.750000       1.30000    
     16745 TFA      115      TFA      DF2      DRUD     -2.12530      0.400000           0   0.00000       0.00000    
     16746 TFA      115      TFA      F3       FDA3      1.92530       18.5980           0 -0.750000       1.30000    
     16747 TFA      115      TFA      DF3      DRUD     -2.12530      0.400000           0   0.00000       0.00000    
     16748 TFA      115      TFA      O1       OD2C2A    1.45190       15.5994           0 -0.350000       2.39900    
     16749 TFA      115      TFA      DO1      DRUD     -1.45190      0.400000           0   0.00000       0.00000    
     16750 TFA      115      TFA      O2       OD2C2A    1.45190       15.5994           0 -0.350000       2.39900    
     16751 TFA      115      TFA      DO2      DRUD     -1.45190      0.400000           0   0.00000       0.00000    
     16752 TFA      115      TFA      LPO11    LPD     -0.310000       0.00000          -1   0.00000       0.00000    
     16753 TFA      115      TFA      LPO12    LPD     -0.310000       0.00000          -1   0.00000       0.00000    
     16754 TFA      115      TFA      LPO21    LPD     -0.310000       0.00000          -1   0.00000       0.00000    
     16755 TFA      115      TFA      LPO22    LPD     -0.310000       0.00000          -1   0.00000       0.00000    
     16756 TFA      116      TFA      C1       CD2O2A    2.58500       11.6110           0 -0.800000      0.899000    
     16757 TFA      116      TFA      DC1      DRUD     -2.19500      0.400000           0   0.00000       0.00000    
     16758 TFA      116      TFA      C2       CD30A    0.450000       12.0110           0   0.00000       0.00000    
     16759 TFA      116      TFA      F1       FDA3      1.92530       18.5980           0 -0.750000       1.30000    
     16760 TFA      116      TFA      DF1      DRUD     -2.12530      0.400000           0   0.00000       0.00000    
     16761 TFA      116      TFA      F2       FDA3      1.92530       18.5980           0 -0.750000       1.30000    
     16762 TFA      116      TFA      DF2      DRUD     -2.12530      0.400000           0   0.00000       0.00000    
     16763 TFA      116      TFA      F3       FDA3      1.92530       18.5980           0 -0.750000       1.30000    
     16764 TFA      116      TFA      DF3      DRUD     -2.12530      0.400000           0   0.00000       0.00000    
     16765 TFA      116      TFA      O1       OD2C2A    1.45190       15.5994           0 -0.350000       2.39900    
     16766 TFA      116      TFA      DO1      DRUD     -1.45190      0.400000           0   0.00000       0.00000    
     16767 TFA      116      TFA      O2       OD2C2A    1.45190       15.5994           0 -0.350000       2.39900    
     16768 TFA      116      TFA      DO2      DRUD     -1.45190      0.400000           0   0.00000       0.00000    
     16769 TFA      116      TFA      LPO11    LPD     -0.310000       0.00000          -1   0.00000       0.00000    
     16770 TFA      116      TFA      LPO12    LPD     -0.310000       0.00000          -1   0.00000       0.00000    
     16771 TFA      116      TFA      LPO21    LPD     -0.310000       0.00000          -1   0.00000       0.00000    
     16772 TFA      116      TFA      LPO22    LPD     -0.310000       0.00000          -1   0.00000       0.00000    
     16773 TFA      117      TFA      C1       CD2O2A    2.58500       11.6110           0 -0.800000      0.899000    
     16774 TFA      117      TFA      DC1      DRUD     -2.19500      0.400000           0   0.00000       0.00000    
     16775 TFA      117      TFA      C2       CD30A    0.450000       12.0110           0   0.00000       0.00000    
     16776 TFA      117      TFA      F1       FDA3      1.92530       18.5980           0 -0.750000       1.30000    
     16777 TFA      117      TFA      DF1      DRUD     -2.12530      0.400000           0   0.00000       0.00000    
     16778 TFA      117      TFA      F2       FDA3      1.92530       18.5980           0 -0.750000       1.30000    
     16779 TFA      117      TFA      DF2      DRUD     -2.12530      0.400000           0   0.00000       0.00000    
     16780 TFA      117      TFA      F3       FDA3      1.92530       18.5980           0 -0.750000       1.30000    
     16781 TFA      117      TFA      DF3      DRUD     -2.12530      0.400000           0   0.00000       0.00000    
     16782 TFA      117      TFA      O1       OD2C2A    1.45190       15.5994           0 -0.350000       2.39900    
     16783 TFA      117      TFA      DO1      DRUD     -1.45190      0.400000           0   0.00000       0.00000    
     16784 TFA      117      TFA      O2       OD2C2A    1.45190       15.5994           0 -0.350000       2.39900    
     16785 TFA      117      TFA      DO2      DRUD     -1.45190      0.400000           0   0.00000       0.00000    
     16786 TFA      117      TFA      LPO11    LPD     -0.310000       0.00000          -1   0.00000       0.00000    
     16787 TFA      117      TFA      LPO12    LPD     -0.310000       0.00000          -1   0.00000       0.00000    
     16788 TFA      117      TFA      LPO21    LPD     -0.310000       0.00000          -1   0.00000       0.00000    
     16789 TFA      117      TFA      LPO22    LPD     -0.310000       0.00000          -1   0.00000       0.00000    
     16790 TFA      118      TFA      C1       CD2O2A    2.58500       11.6110           0 -0.800000      0.899000    
     16791 TFA      118      TFA      DC1      DRUD     -2.19500      0.400000           0   0.00000       0.00000    
     16792 TFA      118      TFA      C2       CD30A    0.450000       12.0110           0   0.00000       0.00000    
     16793 TFA      118      TFA      F1       FDA3      1.92530       18.5980           0 -0.750000       1.30000    
     16794 TFA      118      TFA      DF1      DRUD     -2.12530      0.400000           0   0.00000       0.00000    
     16795 TFA      118      TFA      F2       FDA3      1.92530       18.5980           0 -0.750000       1.30000    
     16796 TFA      118      TFA      DF2      DRUD     -2.12530      0.400000           0   0.00000       0.00000    
     16797 TFA      118      TFA      F3       FDA3      1.92530       18.5980           0 -0.750000       1.30000    
     16798 TFA      118      TFA      DF3      DRUD     -2.12530      0.400000           0   0.00000       0.00000    
     16799 TFA      118      TFA      O1       OD2C2A    1.45190       15.5994           0 -0.350000       2.39900    
     16800 TFA      118      TFA      DO1      DRUD     -1.45190      0.400000           0   0.00000       0.00000    
     16801 TFA      118      TFA      O2       OD2C2A    1.45190       15.5994           0 -0.350000       2.39900    
     16802 TFA      118      TFA      DO2      DRUD     -1.45190      0.400000           0   0.00000       0.00000    
     16803 TFA      118      TFA      LPO11    LPD     -0.310000       0.00000          -1   0.00000       0.00000    
     16804 TFA      118      TFA      LPO12    LPD     -0.310000       0.00000          -1   0.00000       0.00000    
     16805 TFA      118      TFA      LPO21    LPD     -0.310000       0.00000          -1   0.00000       0.00000    
     16806 TFA      118      TFA      LPO22    LPD     -0.310000       0.00000          -1   0.00000       0.00000    
     16807 TFA      119      TFA      C1       CD2O2A    2.58500       11.6110           0 -0.800000      0.899000    
     16808 TFA      119      TFA      DC1      DRUD     -2.19500      0.400000           0   0.00000       0.00000    
     16809 TFA      119      TFA      C2       CD30A    0.450000       12.0110           0   0.00000       0.00000    
     16810 TFA      119      TFA      F1       FDA3      1.92530       18.5980           0 -0.750000       1.30000    
     16811 TFA      119      TFA      DF1      DRUD     -2.12530      0.400000           0   0.00000       0.00000    
     16812 TFA      119      TFA      F2       FDA3      1.92530       18.5980           0 -0.750000       1.30000    
     16813 TFA      119      TFA      DF2      DRUD     -2.12530      0.400000           0   0.00000       0.00000    
     16814 TFA      119      TFA      F3       FDA3      1.92530       18.5980           0 -0.750000       1.30000    
     16815 TFA      119      TFA      DF3      DRUD     -2.12530      0.400000           0   0.00000       0.00000    
     16816 TFA      119      TFA      O1       OD2C2A    1.45190       15.5994           0 -0.350000       2.39900    
     16817 TFA      119      TFA      DO1      DRUD     -1.45190      0.400000           0   0.00000       0.00000    
     16818 TFA      119      TFA      O2       OD2C2A    1.45190       15.5994           0 -0.350000       2.39900    
     16819 TFA      119      TFA      DO2      DRUD     -1.45190      0.400000           0   0.00000       0.00000    
     16820 TFA      119      TFA      LPO11    LPD     -0.310000       0.00000          -1   0.00000       0.00000    
     16821 TFA      119      TFA      LPO12    LPD     -0.310000       0.00000          -1   0.00000       0.00000    
     16822 TFA      119      TFA      LPO21    LPD     -0.310000       0.00000          -1   0.00000       0.00000    
     16823 TFA      119      TFA      LPO22    LPD     -0.310000       0.00000          -1   0.00000       0.00000    
     16824 TFA      120      TFA      C1       CD2O2A    2.58500       11.6110           0 -0.800000      0.899000    
     16825 TFA      120      TFA      DC1      DRUD     -2.19500      0.400000           0   0.00000       0.00000    
     16826 TFA      120      TFA      C2       CD30A    0.450000       12.0110           0   0.00000       0.00000    
     16827 TFA      120      TFA      F1       FDA3      1.92530       18.5980           0 -0.750000       1.30000    
     16828 TFA      120      TFA      DF1      DRUD     -2.12530      0.400000           0   0.00000       0.00000    
     16829 TFA      120      TFA      F2       FDA3      1.92530       18.5980           0 -0.750000       1.30000    
     16830 TFA      120      TFA      DF2      DRUD     -2.12530      0.400000           0   0.00000       0.00000    
     16831 TFA      120      TFA      F3       FDA3      1.92530       18.5980           0 -0.750000       1.30000    
     16832 TFA      120      TFA      DF3      DRUD     -2.12530      0.400000           0   0.00000       0.00000    
     16833 TFA      120      TFA      O1       OD2C2A    1.45190       15.5994           0 -0.350000       2.39900    
     16834 TFA      120      TFA      DO1      DRUD     -1.45190      0.400000           0   0.00000       0.00000    
     16835 TFA      120      TFA      O2       OD2C2A    1.45190       15.5994           0 -0.350000       2.39900    
     16836 TFA      120      TFA      DO2      DRUD     -1.45190      0.400000           0   0.00000       0.00000    
     16837 TFA      120      TFA      LPO11    LPD     -0.310000       0.00000          -1   0.00000       0.00000    
     16838 TFA      120      TFA      LPO12    LPD     -0.310000       0.00000          -1   0.00000       0.00000    
     16839 TFA      120      TFA      LPO21    LPD     -0.310000       0.00000          -1   0.00000       0.00000    
     16840 TFA      120      TFA      LPO22    LPD     -0.310000       0.00000          -1   0.00000       0.00000    
     16841 TFA      121      TFA      C1       CD2O2A    2.58500       11.6110           0 -0.800000      0.899000    
     16842 TFA      121      TFA      DC1      DRUD     -2.19500      0.400000           0   0.00000       0.00000    
     16843 TFA      121      TFA      C2       CD30A    0.450000       12.0110           0   0.00000       0.00000    
     16844 TFA      121      TFA      F1       FDA3      1.92530       18.5980           0 -0.750000       1.30000    
     16845 TFA      121      TFA      DF1      DRUD     -2.12530      0.400000           0   0.00000       0.00000    
     16846 TFA      121      TFA      F2       FDA3      1.92530       18.5980           0 -0.750000       1.30000    
     16847 TFA      121      TFA      DF2      DRUD     -2.12530      0.400000           0   0.00000       0.00000    
     16848 TFA      121      TFA      F3       FDA3      1.92530       18.5980           0 -0.750000       1.30000    
     16849 TFA      121      TFA      DF3      DRUD     -2.12530      0.400000           0   0.00000       0.00000    
     16850 TFA      121      TFA      O1       OD2C2A    1.45190       15.5994           0 -0.350000       2.39900    
     16851 TFA      121      TFA      DO1      DRUD     -1.45190      0.400000           0   0.00000       0.00000    
     16852 TFA      121      TFA      O2       OD2C2A    1.45190       15.5994           0 -0.350000       2.39900    
     16853 TFA      121      TFA      DO2      DRUD     -1.45190      0.400000           0   0.00000       0.00000    
     16854 TFA      121      TFA      LPO11    LPD     -0.310000       0.00000          -1   0.00000       0.00000    
     16855 TFA      121      TFA      LPO12    LPD     -0.310000       0.00000          -1   0.00000       0.00000    
     16856 TFA      121      TFA      LPO21    LPD     -0.310000       0.00000          -1   0.00000       0.00000    
     16857 TFA      121      TFA      LPO22    LPD     -0.310000       0.00000          -1   0.00000       0.00000    
     16858 TFA      122      TFA      C1       CD2O2A    2.58500       11.6110           0 -0.800000      0.899000    
     16859 TFA      122      TFA      DC1      DRUD     -2.19500      0.400000           0   0.00000       0.00000    
     16860 TFA      122      TFA      C2       CD30A    0.450000       12.0110           0   0.00000       0.00000    
     16861 TFA      122      TFA      F1       FDA3      1.92530       18.5980           0 -0.750000       1.30000    
     16862 TFA      122      TFA      DF1      DRUD     -2.12530      0.400000           0   0.00000       0.00000    
     16863 TFA      122      TFA      F2       FDA3      1.92530       18.5980           0 -0.750000       1.30000    
     16864 TFA      122      TFA      DF2      DRUD     -2.12530      0.400000           0   0.00000       0.00000    
     16865 TFA      122      TFA      F3       FDA3      1.92530       18.5980           0 -0.750000       1.30000    
     16866 TFA      122      TFA      DF3      DRUD     -2.12530      0.400000           0   0.00000       0.00000    
     16867 TFA      122      TFA      O1       OD2C2A    1.45190       15.5994           0 -0.350000       2.39900    
     16868 TFA      122      TFA      DO1      DRUD     -1.45190      0.400000           0   0.00000       0.00000    
     16869 TFA      122      TFA      O2       OD2C2A    1.45190       15.5994           0 -0.350000       2.39900    
     16870 TFA      122      TFA      DO2      DRUD     -1.45190      0.400000           0   0.00000       0.00000    
     16871 TFA      122      TFA      LPO11    LPD     -0.310000       0.00000          -1   0.00000       0.00000    
     16872 TFA      122      TFA      LPO12    LPD     -0.310000       0.00000          -1   0.00000       0.00000    
     16873 TFA      122      TFA      LPO21    LPD     -0.310000       0.00000          -1   0.00000       0.00000    
     16874 TFA      122      TFA      LPO22    LPD     -0.310000       0.00000          -1   0.00000       0.00000    
     16875 TFA      123      TFA      C1       CD2O2A    2.58500       11.6110           0 -0.800000      0.899000    
     16876 TFA      123      TFA      DC1      DRUD     -2.19500      0.400000           0   0.00000       0.00000    
     16877 TFA      123      TFA      C2       CD30A    0.450000       12.0110           0   0.00000       0.00000    
     16878 TFA      123      TFA      F1       FDA3      1.92530       18.5980           0 -0.750000       1.30000    
     16879 TFA      123      TFA      DF1      DRUD     -2.12530      0.400000           0   0.00000       0.00000    
     16880 TFA      123      TFA      F2       FDA3      1.92530       18.5980           0 -0.750000       1.30000    
     16881 TFA      123      TFA      DF2      DRUD     -2.12530      0.400000           0   0.00000       0.00000    
     16882 TFA      123      TFA      F3       FDA3      1.92530       18.5980           0 -0.750000       1.30000    
     16883 TFA      123      TFA      DF3      DRUD     -2.12530      0.400000           0   0.00000       0.00000    
     16884 TFA      123      TFA      O1       OD2C2A    1.45190       15.5994           0 -0.350000       2.39900    
     16885 TFA      123      TFA      DO1      DRUD     -1.45190      0.400000           0   0.00000       0.00000    
     16886 TFA      123      TFA      O2       OD2C2A    1.45190       15.5994           0 -0.350000       2.39900    
     16887 TFA      123      TFA      DO2      DRUD     -1.45190      0.400000           0   0.00000       0.00000    
     16888 TFA      123      TFA      LPO11    LPD     -0.310000       0.00000          -1   0.00000       0.00000    
     16889 TFA      123      TFA      LPO12    LPD     -0.310000       0.00000          -1   0.00000       0.00000    
     16890 TFA      123      TFA      LPO21    LPD     -0.310000       0.00000          -1   0.00000       0.00000    
     16891 TFA      123      TFA      LPO22    LPD     -0.310000       0.00000          -1   0.00000       0.00000    
     16892 TFA      124      TFA      C1       CD2O2A    2.58500       11.6110           0 -0.800000      0.899000    
     16893 TFA      124      TFA      DC1      DRUD     -2.19500      0.400000           0   0.00000       0.00000    
     16894 TFA      124      TFA      C2       CD30A    0.450000       12.0110           0   0.00000       0.00000    
     16895 TFA      124      TFA      F1       FDA3      1.92530       18.5980           0 -0.750000       1.30000    
     16896 TFA      124      TFA      DF1      DRUD     -2.12530      0.400000           0   0.00000       0.00000    
     16897 TFA      124      TFA      F2       FDA3      1.92530       18.5980           0 -0.750000       1.30000    
     16898 TFA      124      TFA      DF2      DRUD     -2.12530      0.400000           0   0.00000       0.00000    
     16899 TFA      124      TFA      F3       FDA3      1.92530       18.5980           0 -0.750000       1.30000    
     16900 TFA      124      TFA      DF3      DRUD     -2.12530      0.400000           0   0.00000       0.00000    
     16901 TFA      124      TFA      O1       OD2C2A    1.45190       15.5994           0 -0.350000       2.39900    
     16902 TFA      124      TFA      DO1      DRUD     -1.45190      0.400000           0   0.00000       0.00000    
     16903 TFA      124      TFA      O2       OD2C2A    1.45190       15.5994           0 -0.350000       2.39900    
     16904 TFA      124      TFA      DO2      DRUD     -1.45190      0.400000           0   0.00000       0.00000    
     16905 TFA      124      TFA      LPO11    LPD     -0.310000       0.00000          -1   0.00000       0.00000    
     16906 TFA      124      TFA      LPO12    LPD     -0.310000       0.00000          -1   0.00000       0.00000    
     16907 TFA      124      TFA      LPO21    LPD     -0.310000       0.00000          -1   0.00000       0.00000    
     16908 TFA      124      TFA      LPO22    LPD     -0.310000       0.00000          -1   0.00000       0.00000    
     16909 TFA      125      TFA      C1       CD2O2A    2.58500       11.6110           0 -0.800000      0.899000    
     16910 TFA      125      TFA      DC1      DRUD     -2.19500      0.400000           0   0.00000       0.00000    
     16911 TFA      125      TFA      C2       CD30A    0.450000       12.0110           0   0.00000       0.00000    
     16912 TFA      125      TFA      F1       FDA3      1.92530       18.5980           0 -0.750000       1.30000    
     16913 TFA      125      TFA      DF1      DRUD     -2.12530      0.400000           0   0.00000       0.00000    
     16914 TFA      125      TFA      F2       FDA3      1.92530       18.5980           0 -0.750000       1.30000    
     16915 TFA      125      TFA      DF2      DRUD     -2.12530      0.400000           0   0.00000       0.00000    
     16916 TFA      125      TFA      F3       FDA3      1.92530       18.5980           0 -0.750000       1.30000    
     16917 TFA      125      TFA      DF3      DRUD     -2.12530      0.400000           0   0.00000       0.00000    
     16918 TFA      125      TFA      O1       OD2C2A    1.45190       15.5994           0 -0.350000       2.39900    
     16919 TFA      125      TFA      DO1      DRUD     -1.45190      0.400000           0   0.00000       0.00000    
     16920 TFA      125      TFA      O2       OD2C2A    1.45190       15.5994           0 -0.350000       2.39900    
     16921 TFA      125      TFA      DO2      DRUD     -1.45190      0.400000           0   0.00000       0.00000    
     16922 TFA      125      TFA      LPO11    LPD     -0.310000       0.00000          -1   0.00000       0.00000    
     16923 TFA      125      TFA      LPO12    LPD     -0.310000       0.00000          -1   0.00000       0.00000    
     16924 TFA      125      TFA      LPO21    LPD     -0.310000       0.00000          -1   0.00000       0.00000    
     16925 TFA      125      TFA      LPO22    LPD     -0.310000       0.00000          -1   0.00000       0.00000    
     16926 TFA      126      TFA      C1       CD2O2A    2.58500       11.6110           0 -0.800000      0.899000    
     16927 TFA      126      TFA      DC1      DRUD     -2.19500      0.400000           0   0.00000       0.00000    
     16928 TFA      126      TFA      C2       CD30A    0.450000       12.0110           0   0.00000       0.00000    
     16929 TFA      126      TFA      F1       FDA3      1.92530       18.5980           0 -0.750000       1.30000    
     16930 TFA      126      TFA      DF1      DRUD     -2.12530      0.400000           0   0.00000       0.00000    
     16931 TFA      126      TFA      F2       FDA3      1.92530       18.5980           0 -0.750000       1.30000    
     16932 TFA      126      TFA      DF2      DRUD     -2.12530      0.400000           0   0.00000       0.00000    
     16933 TFA      126      TFA      F3       FDA3      1.92530       18.5980           0 -0.750000       1.30000    
     16934 TFA      126      TFA      DF3      DRUD     -2.12530      0.400000           0   0.00000       0.00000    
     16935 TFA      126      TFA      O1       OD2C2A    1.45190       15.5994           0 -0.350000       2.39900    
     16936 TFA      126      TFA      DO1      DRUD     -1.45190      0.400000           0   0.00000       0.00000    
     16937 TFA      126      TFA      O2       OD2C2A    1.45190       15.5994           0 -0.350000       2.39900    
     16938 TFA      126      TFA      DO2      DRUD     -1.45190      0.400000           0   0.00000       0.00000    
     16939 TFA      126      TFA      LPO11    LPD     -0.310000       0.00000          -1   0.00000       0.00000    
     16940 TFA      126      TFA      LPO12    LPD     -0.310000       0.00000          -1   0.00000       0.00000    
     16941 TFA      126      TFA      LPO21    LPD     -0.310000       0.00000          -1   0.00000       0.00000    
     16942 TFA      126      TFA      LPO22    LPD     -0.310000       0.00000          -1   0.00000       0.00000    
     16943 TFA      127      TFA      C1       CD2O2A    2.58500       11.6110           0 -0.800000      0.899000    
     16944 TFA      127      TFA      DC1      DRUD     -2.19500      0.400000           0   0.00000       0.00000    
     16945 TFA      127      TFA      C2       CD30A    0.450000       12.0110           0   0.00000       0.00000    
     16946 TFA      127      TFA      F1       FDA3      1.92530       18.5980           0 -0.750000       1.30000    
     16947 TFA      127      TFA      DF1      DRUD     -2.12530      0.400000           0   0.00000       0.00000    
     16948 TFA      127      TFA      F2       FDA3      1.92530       18.5980           0 -0.750000       1.30000    
     16949 TFA      127      TFA      DF2      DRUD     -2.12530      0.400000           0   0.00000       0.00000    
     16950 TFA      127      TFA      F3       FDA3      1.92530       18.5980           0 -0.750000       1.30000    
     16951 TFA      127      TFA      DF3      DRUD     -2.12530      0.400000           0   0.00000       0.00000    
     16952 TFA      127      TFA      O1       OD2C2A    1.45190       15.5994           0 -0.350000       2.39900    
     16953 TFA      127      TFA      DO1      DRUD     -1.45190      0.400000           0   0.00000       0.00000    
     16954 TFA      127      TFA      O2       OD2C2A    1.45190       15.5994           0 -0.350000       2.39900    
     16955 TFA      127      TFA      DO2      DRUD     -1.45190      0.400000           0   0.00000       0.00000    
     16956 TFA      127      TFA      LPO11    LPD     -0.310000       0.00000          -1   0.00000       0.00000    
     16957 TFA      127      TFA      LPO12    LPD     -0.310000       0.00000          -1   0.00000       0.00000    
     16958 TFA      127      TFA      LPO21    LPD     -0.310000       0.00000          -1   0.00000       0.00000    
     16959 TFA      127      TFA      LPO22    LPD     -0.310000       0.00000          -1   0.00000       0.00000    
     16960 TFA      128      TFA      C1       CD2O2A    2.58500       11.6110           0 -0.800000      0.899000    
     16961 TFA      128      TFA      DC1      DRUD     -2.19500      0.400000           0   0.00000       0.00000    
     16962 TFA      128      TFA      C2       CD30A    0.450000       12.0110           0   0.00000       0.00000    
     16963 TFA      128      TFA      F1       FDA3      1.92530       18.5980           0 -0.750000       1.30000    
     16964 TFA      128      TFA      DF1      DRUD     -2.12530      0.400000           0   0.00000       0.00000    
     16965 TFA      128      TFA      F2       FDA3      1.92530       18.5980           0 -0.750000       1.30000    
     16966 TFA      128      TFA      DF2      DRUD     -2.12530      0.400000           0   0.00000       0.00000    
     16967 TFA      128      TFA      F3       FDA3      1.92530       18.5980           0 -0.750000       1.30000    
     16968 TFA      128      TFA      DF3      DRUD     -2.12530      0.400000           0   0.00000       0.00000    
     16969 TFA      128      TFA      O1       OD2C2A    1.45190       15.5994           0 -0.350000       2.39900    
     16970 TFA      128      TFA      DO1      DRUD     -1.45190      0.400000           0   0.00000       0.00000    
     16971 TFA      128      TFA      O2       OD2C2A    1.45190       15.5994           0 -0.350000       2.39900    
     16972 TFA      128      TFA      DO2      DRUD     -1.45190      0.400000           0   0.00000       0.00000    
     16973 TFA      128      TFA      LPO11    LPD     -0.310000       0.00000          -1   0.00000       0.00000    
     16974 TFA      128      TFA      LPO12    LPD     -0.310000       0.00000          -1   0.00000       0.00000    
     16975 TFA      128      TFA      LPO21    LPD     -0.310000       0.00000          -1   0.00000       0.00000    
     16976 TFA      128      TFA      LPO22    LPD     -0.310000       0.00000          -1   0.00000       0.00000    
     16977 TFA      129      TFA      C1       CD2O2A    2.58500       11.6110           0 -0.800000      0.899000    
     16978 TFA      129      TFA      DC1      DRUD     -2.19500      0.400000           0   0.00000       0.00000    
     16979 TFA      129      TFA      C2       CD30A    0.450000       12.0110           0   0.00000       0.00000    
     16980 TFA      129      TFA      F1       FDA3      1.92530       18.5980           0 -0.750000       1.30000    
     16981 TFA      129      TFA      DF1      DRUD     -2.12530      0.400000           0   0.00000       0.00000    
     16982 TFA      129      TFA      F2       FDA3      1.92530       18.5980           0 -0.750000       1.30000    
     16983 TFA      129      TFA      DF2      DRUD     -2.12530      0.400000           0   0.00000       0.00000    
     16984 TFA      129      TFA      F3       FDA3      1.92530       18.5980           0 -0.750000       1.30000    
     16985 TFA      129      TFA      DF3      DRUD     -2.12530      0.400000           0   0.00000       0.00000    
     16986 TFA      129      TFA      O1       OD2C2A    1.45190       15.5994           0 -0.350000       2.39900    
     16987 TFA      129      TFA      DO1      DRUD     -1.45190      0.400000           0   0.00000       0.00000    
     16988 TFA      129      TFA      O2       OD2C2A    1.45190       15.5994           0 -0.350000       2.39900    
     16989 TFA      129      TFA      DO2      DRUD     -1.45190      0.400000           0   0.00000       0.00000    
     16990 TFA      129      TFA      LPO11    LPD     -0.310000       0.00000          -1   0.00000       0.00000    
     16991 TFA      129      TFA      LPO12    LPD     -0.310000       0.00000          -1   0.00000       0.00000    
     16992 TFA      129      TFA      LPO21    LPD     -0.310000       0.00000          -1   0.00000       0.00000    
     16993 TFA      129      TFA      LPO22    LPD     -0.310000       0.00000          -1   0.00000       0.00000    
     16994 TFA      130      TFA      C1       CD2O2A    2.58500       11.6110           0 -0.800000      0.899000    
     16995 TFA      130      TFA      DC1      DRUD     -2.19500      0.400000           0   0.00000       0.00000    
     16996 TFA      130      TFA      C2       CD30A    0.450000       12.0110           0   0.00000       0.00000    
     16997 TFA      130      TFA      F1       FDA3      1.92530       18.5980           0 -0.750000       1.30000    
     16998 TFA      130      TFA      DF1      DRUD     -2.12530      0.400000           0   0.00000       0.00000    
     16999 TFA      130      TFA      F2       FDA3      1.92530       18.5980           0 -0.750000       1.30000    
     17000 TFA      130      TFA      DF2      DRUD     -2.12530      0.400000           0   0.00000       0.00000    
     17001 TFA      130      TFA      F3       FDA3      1.92530       18.5980           0 -0.750000       1.30000    
     17002 TFA      130      TFA      DF3      DRUD     -2.12530      0.400000           0   0.00000       0.00000    
     17003 TFA      130      TFA      O1       OD2C2A    1.45190       15.5994           0 -0.350000       2.39900    
     17004 TFA      130      TFA      DO1      DRUD     -1.45190      0.400000           0   0.00000       0.00000    
     17005 TFA      130      TFA      O2       OD2C2A    1.45190       15.5994           0 -0.350000       2.39900    
     17006 TFA      130      TFA      DO2      DRUD     -1.45190      0.400000           0   0.00000       0.00000    
     17007 TFA      130      TFA      LPO11    LPD     -0.310000       0.00000          -1   0.00000       0.00000    
     17008 TFA      130      TFA      LPO12    LPD     -0.310000       0.00000          -1   0.00000       0.00000    
     17009 TFA      130      TFA      LPO21    LPD     -0.310000       0.00000          -1   0.00000       0.00000    
     17010 TFA      130      TFA      LPO22    LPD     -0.310000       0.00000          -1   0.00000       0.00000    
     17011 TFA      131      TFA      C1       CD2O2A    2.58500       11.6110           0 -0.800000      0.899000    
     17012 TFA      131      TFA      DC1      DRUD     -2.19500      0.400000           0   0.00000       0.00000    
     17013 TFA      131      TFA      C2       CD30A    0.450000       12.0110           0   0.00000       0.00000    
     17014 TFA      131      TFA      F1       FDA3      1.92530       18.5980           0 -0.750000       1.30000    
     17015 TFA      131      TFA      DF1      DRUD     -2.12530      0.400000           0   0.00000       0.00000    
     17016 TFA      131      TFA      F2       FDA3      1.92530       18.5980           0 -0.750000       1.30000    
     17017 TFA      131      TFA      DF2      DRUD     -2.12530      0.400000           0   0.00000       0.00000    
     17018 TFA      131      TFA      F3       FDA3      1.92530       18.5980           0 -0.750000       1.30000    
     17019 TFA      131      TFA      DF3      DRUD     -2.12530      0.400000           0   0.00000       0.00000    
     17020 TFA      131      TFA      O1       OD2C2A    1.45190       15.5994           0 -0.350000       2.39900    
     17021 TFA      131      TFA      DO1      DRUD     -1.45190      0.400000           0   0.00000       0.00000    
     17022 TFA      131      TFA      O2       OD2C2A    1.45190       15.5994           0 -0.350000       2.39900    
     17023 TFA      131      TFA      DO2      DRUD     -1.45190      0.400000           0   0.00000       0.00000    
     17024 TFA      131      TFA      LPO11    LPD     -0.310000       0.00000          -1   0.00000       0.00000    
     17025 TFA      131      TFA      LPO12    LPD     -0.310000       0.00000          -1   0.00000       0.00000    
     17026 TFA      131      TFA      LPO21    LPD     -0.310000       0.00000          -1   0.00000       0.00000    
     17027 TFA      131      TFA      LPO22    LPD     -0.310000       0.00000          -1   0.00000       0.00000    
     17028 TFA      132      TFA      C1       CD2O2A    2.58500       11.6110           0 -0.800000      0.899000    
     17029 TFA      132      TFA      DC1      DRUD     -2.19500      0.400000           0   0.00000       0.00000    
     17030 TFA      132      TFA      C2       CD30A    0.450000       12.0110           0   0.00000       0.00000    
     17031 TFA      132      TFA      F1       FDA3      1.92530       18.5980           0 -0.750000       1.30000    
     17032 TFA      132      TFA      DF1      DRUD     -2.12530      0.400000           0   0.00000       0.00000    
     17033 TFA      132      TFA      F2       FDA3      1.92530       18.5980           0 -0.750000       1.30000    
     17034 TFA      132      TFA      DF2      DRUD     -2.12530      0.400000           0   0.00000       0.00000    
     17035 TFA      132      TFA      F3       FDA3      1.92530       18.5980           0 -0.750000       1.30000    
     17036 TFA      132      TFA      DF3      DRUD     -2.12530      0.400000           0   0.00000       0.00000    
     17037 TFA      132      TFA      O1       OD2C2A    1.45190       15.5994           0 -0.350000       2.39900    
     17038 TFA      132      TFA      DO1      DRUD     -1.45190      0.400000           0   0.00000       0.00000    
     17039 TFA      132      TFA      O2       OD2C2A    1.45190       15.5994           0 -0.350000       2.39900    
     17040 TFA      132      TFA      DO2      DRUD     -1.45190      0.400000           0   0.00000       0.00000    
     17041 TFA      132      TFA      LPO11    LPD     -0.310000       0.00000          -1   0.00000       0.00000    
     17042 TFA      132      TFA      LPO12    LPD     -0.310000       0.00000          -1   0.00000       0.00000    
     17043 TFA      132      TFA      LPO21    LPD     -0.310000       0.00000          -1   0.00000       0.00000    
     17044 TFA      132      TFA      LPO22    LPD     -0.310000       0.00000          -1   0.00000       0.00000    
     17045 TFA      133      TFA      C1       CD2O2A    2.58500       11.6110           0 -0.800000      0.899000    
     17046 TFA      133      TFA      DC1      DRUD     -2.19500      0.400000           0   0.00000       0.00000    
     17047 TFA      133      TFA      C2       CD30A    0.450000       12.0110           0   0.00000       0.00000    
     17048 TFA      133      TFA      F1       FDA3      1.92530       18.5980           0 -0.750000       1.30000    
     17049 TFA      133      TFA      DF1      DRUD     -2.12530      0.400000           0   0.00000       0.00000    
     17050 TFA      133      TFA      F2       FDA3      1.92530       18.5980           0 -0.750000       1.30000    
     17051 TFA      133      TFA      DF2      DRUD     -2.12530      0.400000           0   0.00000       0.00000    
     17052 TFA      133      TFA      F3       FDA3      1.92530       18.5980           0 -0.750000       1.30000    
     17053 TFA      133      TFA      DF3      DRUD     -2.12530      0.400000           0   0.00000       0.00000    
     17054 TFA      133      TFA      O1       OD2C2A    1.45190       15.5994           0 -0.350000       2.39900    
     17055 TFA      133      TFA      DO1      DRUD     -1.45190      0.400000           0   0.00000       0.00000    
     17056 TFA      133      TFA      O2       OD2C2A    1.45190       15.5994           0 -0.350000       2.39900    
     17057 TFA      133      TFA      DO2      DRUD     -1.45190      0.400000           0   0.00000       0.00000    
     17058 TFA      133      TFA      LPO11    LPD     -0.310000       0.00000          -1   0.00000       0.00000    
     17059 TFA      133      TFA      LPO12    LPD     -0.310000       0.00000          -1   0.00000       0.00000    
     17060 TFA      133      TFA      LPO21    LPD     -0.310000       0.00000          -1   0.00000       0.00000    
     17061 TFA      133      TFA      LPO22    LPD     -0.310000       0.00000          -1   0.00000       0.00000    
     17062 TFA      134      TFA      C1       CD2O2A    2.58500       11.6110           0 -0.800000      0.899000    
     17063 TFA      134      TFA      DC1      DRUD     -2.19500      0.400000           0   0.00000       0.00000    
     17064 TFA      134      TFA      C2       CD30A    0.450000       12.0110           0   0.00000       0.00000    
     17065 TFA      134      TFA      F1       FDA3      1.92530       18.5980           0 -0.750000       1.30000    
     17066 TFA      134      TFA      DF1      DRUD     -2.12530      0.400000           0   0.00000       0.00000    
     17067 TFA      134      TFA      F2       FDA3      1.92530       18.5980           0 -0.750000       1.30000    
     17068 TFA      134      TFA      DF2      DRUD     -2.12530      0.400000           0   0.00000       0.00000    
     17069 TFA      134      TFA      F3       FDA3      1.92530       18.5980           0 -0.750000       1.30000    
     17070 TFA      134      TFA      DF3      DRUD     -2.12530      0.400000           0   0.00000       0.00000    
     17071 TFA      134      TFA      O1       OD2C2A    1.45190       15.5994           0 -0.350000       2.39900    
     17072 TFA      134      TFA      DO1      DRUD     -1.45190      0.400000           0   0.00000       0.00000    
     17073 TFA      134      TFA      O2       OD2C2A    1.45190       15.5994           0 -0.350000       2.39900    
     17074 TFA      134      TFA      DO2      DRUD     -1.45190      0.400000           0   0.00000       0.00000    
     17075 TFA      134      TFA      LPO11    LPD     -0.310000       0.00000          -1   0.00000       0.00000    
     17076 TFA      134      TFA      LPO12    LPD     -0.310000       0.00000          -1   0.00000       0.00000    
     17077 TFA      134      TFA      LPO21    LPD     -0.310000       0.00000          -1   0.00000       0.00000    
     17078 TFA      134      TFA      LPO22    LPD     -0.310000       0.00000          -1   0.00000       0.00000    
     17079 TFA      135      TFA      C1       CD2O2A    2.58500       11.6110           0 -0.800000      0.899000    
     17080 TFA      135      TFA      DC1      DRUD     -2.19500      0.400000           0   0.00000       0.00000    
     17081 TFA      135      TFA      C2       CD30A    0.450000       12.0110           0   0.00000       0.00000    
     17082 TFA      135      TFA      F1       FDA3      1.92530       18.5980           0 -0.750000       1.30000    
     17083 TFA      135      TFA      DF1      DRUD     -2.12530      0.400000           0   0.00000       0.00000    
     17084 TFA      135      TFA      F2       FDA3      1.92530       18.5980           0 -0.750000       1.30000    
     17085 TFA      135      TFA      DF2      DRUD     -2.12530      0.400000           0   0.00000       0.00000    
     17086 TFA      135      TFA      F3       FDA3      1.92530       18.5980           0 -0.750000       1.30000    
     17087 TFA      135      TFA      DF3      DRUD     -2.12530      0.400000           0   0.00000       0.00000    
     17088 TFA      135      TFA      O1       OD2C2A    1.45190       15.5994           0 -0.350000       2.39900    
     17089 TFA      135      TFA      DO1      DRUD     -1.45190      0.400000           0   0.00000       0.00000    
     17090 TFA      135      TFA      O2       OD2C2A    1.45190       15.5994           0 -0.350000       2.39900    
     17091 TFA      135      TFA      DO2      DRUD     -1.45190      0.400000           0   0.00000       0.00000    
     17092 TFA      135      TFA      LPO11    LPD     -0.310000       0.00000          -1   0.00000       0.00000    
     17093 TFA      135      TFA      LPO12    LPD     -0.310000       0.00000          -1   0.00000       0.00000    
     17094 TFA      135      TFA      LPO21    LPD     -0.310000       0.00000          -1   0.00000       0.00000    
     17095 TFA      135      TFA      LPO22    LPD     -0.310000       0.00000          -1   0.00000       0.00000    
     17096 TFA      136      TFA      C1       CD2O2A    2.58500       11.6110           0 -0.800000      0.899000    
     17097 TFA      136      TFA      DC1      DRUD     -2.19500      0.400000           0   0.00000       0.00000    
     17098 TFA      136      TFA      C2       CD30A    0.450000       12.0110           0   0.00000       0.00000    
     17099 TFA      136      TFA      F1       FDA3      1.92530       18.5980           0 -0.750000       1.30000    
     17100 TFA      136      TFA      DF1      DRUD     -2.12530      0.400000           0   0.00000       0.00000    
     17101 TFA      136      TFA      F2       FDA3      1.92530       18.5980           0 -0.750000       1.30000    
     17102 TFA      136      TFA      DF2      DRUD     -2.12530      0.400000           0   0.00000       0.00000    
     17103 TFA      136      TFA      F3       FDA3      1.92530       18.5980           0 -0.750000       1.30000    
     17104 TFA      136      TFA      DF3      DRUD     -2.12530      0.400000           0   0.00000       0.00000    
     17105 TFA      136      TFA      O1       OD2C2A    1.45190       15.5994           0 -0.350000       2.39900    
     17106 TFA      136      TFA      DO1      DRUD     -1.45190      0.400000           0   0.00000       0.00000    
     17107 TFA      136      TFA      O2       OD2C2A    1.45190       15.5994           0 -0.350000       2.39900    
     17108 TFA      136      TFA      DO2      DRUD     -1.45190      0.400000           0   0.00000       0.00000    
     17109 TFA      136      TFA      LPO11    LPD     -0.310000       0.00000          -1   0.00000       0.00000    
     17110 TFA      136      TFA      LPO12    LPD     -0.310000       0.00000          -1   0.00000       0.00000    
     17111 TFA      136      TFA      LPO21    LPD     -0.310000       0.00000          -1   0.00000       0.00000    
     17112 TFA      136      TFA      LPO22    LPD     -0.310000       0.00000          -1   0.00000       0.00000    
     17113 TFA      137      TFA      C1       CD2O2A    2.58500       11.6110           0 -0.800000      0.899000    
     17114 TFA      137      TFA      DC1      DRUD     -2.19500      0.400000           0   0.00000       0.00000    
     17115 TFA      137      TFA      C2       CD30A    0.450000       12.0110           0   0.00000       0.00000    
     17116 TFA      137      TFA      F1       FDA3      1.92530       18.5980           0 -0.750000       1.30000    
     17117 TFA      137      TFA      DF1      DRUD     -2.12530      0.400000           0   0.00000       0.00000    
     17118 TFA      137      TFA      F2       FDA3      1.92530       18.5980           0 -0.750000       1.30000    
     17119 TFA      137      TFA      DF2      DRUD     -2.12530      0.400000           0   0.00000       0.00000    
     17120 TFA      137      TFA      F3       FDA3      1.92530       18.5980           0 -0.750000       1.30000    
     17121 TFA      137      TFA      DF3      DRUD     -2.12530      0.400000           0   0.00000       0.00000    
     17122 TFA      137      TFA      O1       OD2C2A    1.45190       15.5994           0 -0.350000       2.39900    
     17123 TFA      137      TFA      DO1      DRUD     -1.45190      0.400000           0   0.00000       0.00000    
     17124 TFA      137      TFA      O2       OD2C2A    1.45190       15.5994           0 -0.350000       2.39900    
     17125 TFA      137      TFA      DO2      DRUD     -1.45190      0.400000           0   0.00000       0.00000    
     17126 TFA      137      TFA      LPO11    LPD     -0.310000       0.00000          -1   0.00000       0.00000    
     17127 TFA      137      TFA      LPO12    LPD     -0.310000       0.00000          -1   0.00000       0.00000    
     17128 TFA      137      TFA      LPO21    LPD     -0.310000       0.00000          -1   0.00000       0.00000    
     17129 TFA      137      TFA      LPO22    LPD     -0.310000       0.00000          -1   0.00000       0.00000    
     17130 TFA      138      TFA      C1       CD2O2A    2.58500       11.6110           0 -0.800000      0.899000    
     17131 TFA      138      TFA      DC1      DRUD     -2.19500      0.400000           0   0.00000       0.00000    
     17132 TFA      138      TFA      C2       CD30A    0.450000       12.0110           0   0.00000       0.00000    
     17133 TFA      138      TFA      F1       FDA3      1.92530       18.5980           0 -0.750000       1.30000    
     17134 TFA      138      TFA      DF1      DRUD     -2.12530      0.400000           0   0.00000       0.00000    
     17135 TFA      138      TFA      F2       FDA3      1.92530       18.5980           0 -0.750000       1.30000    
     17136 TFA      138      TFA      DF2      DRUD     -2.12530      0.400000           0   0.00000       0.00000    
     17137 TFA      138      TFA      F3       FDA3      1.92530       18.5980           0 -0.750000       1.30000    
     17138 TFA      138      TFA      DF3      DRUD     -2.12530      0.400000           0   0.00000       0.00000    
     17139 TFA      138      TFA      O1       OD2C2A    1.45190       15.5994           0 -0.350000       2.39900    
     17140 TFA      138      TFA      DO1      DRUD     -1.45190      0.400000           0   0.00000       0.00000    
     17141 TFA      138      TFA      O2       OD2C2A    1.45190       15.5994           0 -0.350000       2.39900    
     17142 TFA      138      TFA      DO2      DRUD     -1.45190      0.400000           0   0.00000       0.00000    
     17143 TFA      138      TFA      LPO11    LPD     -0.310000       0.00000          -1   0.00000       0.00000    
     17144 TFA      138      TFA      LPO12    LPD     -0.310000       0.00000          -1   0.00000       0.00000    
     17145 TFA      138      TFA      LPO21    LPD     -0.310000       0.00000          -1   0.00000       0.00000    
     17146 TFA      138      TFA      LPO22    LPD     -0.310000       0.00000          -1   0.00000       0.00000    
     17147 TFA      139      TFA      C1       CD2O2A    2.58500       11.6110           0 -0.800000      0.899000    
     17148 TFA      139      TFA      DC1      DRUD     -2.19500      0.400000           0   0.00000       0.00000    
     17149 TFA      139      TFA      C2       CD30A    0.450000       12.0110           0   0.00000       0.00000    
     17150 TFA      139      TFA      F1       FDA3      1.92530       18.5980           0 -0.750000       1.30000    
     17151 TFA      139      TFA      DF1      DRUD     -2.12530      0.400000           0   0.00000       0.00000    
     17152 TFA      139      TFA      F2       FDA3      1.92530       18.5980           0 -0.750000       1.30000    
     17153 TFA      139      TFA      DF2      DRUD     -2.12530      0.400000           0   0.00000       0.00000    
     17154 TFA      139      TFA      F3       FDA3      1.92530       18.5980           0 -0.750000       1.30000    
     17155 TFA      139      TFA      DF3      DRUD     -2.12530      0.400000           0   0.00000       0.00000    
     17156 TFA      139      TFA      O1       OD2C2A    1.45190       15.5994           0 -0.350000       2.39900    
     17157 TFA      139      TFA      DO1      DRUD     -1.45190      0.400000           0   0.00000       0.00000    
     17158 TFA      139      TFA      O2       OD2C2A    1.45190       15.5994           0 -0.350000       2.39900    
     17159 TFA      139      TFA      DO2      DRUD     -1.45190      0.400000           0   0.00000       0.00000    
     17160 TFA      139      TFA      LPO11    LPD     -0.310000       0.00000          -1   0.00000       0.00000    
     17161 TFA      139      TFA      LPO12    LPD     -0.310000       0.00000          -1   0.00000       0.00000    
     17162 TFA      139      TFA      LPO21    LPD     -0.310000       0.00000          -1   0.00000       0.00000    
     17163 TFA      139      TFA      LPO22    LPD     -0.310000       0.00000          -1   0.00000       0.00000    
     17164 TFA      140      TFA      C1       CD2O2A    2.58500       11.6110           0 -0.800000      0.899000    
     17165 TFA      140      TFA      DC1      DRUD     -2.19500      0.400000           0   0.00000       0.00000    
     17166 TFA      140      TFA      C2       CD30A    0.450000       12.0110           0   0.00000       0.00000    
     17167 TFA      140      TFA      F1       FDA3      1.92530       18.5980           0 -0.750000       1.30000    
     17168 TFA      140      TFA      DF1      DRUD     -2.12530      0.400000           0   0.00000       0.00000    
     17169 TFA      140      TFA      F2       FDA3      1.92530       18.5980           0 -0.750000       1.30000    
     17170 TFA      140      TFA      DF2      DRUD     -2.12530      0.400000           0   0.00000       0.00000    
     17171 TFA      140      TFA      F3       FDA3      1.92530       18.5980           0 -0.750000       1.30000    
     17172 TFA      140      TFA      DF3      DRUD     -2.12530      0.400000           0   0.00000       0.00000    
     17173 TFA      140      TFA      O1       OD2C2A    1.45190       15.5994           0 -0.350000       2.39900    
     17174 TFA      140      TFA      DO1      DRUD     -1.45190      0.400000           0   0.00000       0.00000    
     17175 TFA      140      TFA      O2       OD2C2A    1.45190       15.5994           0 -0.350000       2.39900    
     17176 TFA      140      TFA      DO2      DRUD     -1.45190      0.400000           0   0.00000       0.00000    
     17177 TFA      140      TFA      LPO11    LPD     -0.310000       0.00000          -1   0.00000       0.00000    
     17178 TFA      140      TFA      LPO12    LPD     -0.310000       0.00000          -1   0.00000       0.00000    
     17179 TFA      140      TFA      LPO21    LPD     -0.310000       0.00000          -1   0.00000       0.00000    
     17180 TFA      140      TFA      LPO22    LPD     -0.310000       0.00000          -1   0.00000       0.00000    
     17181 TFA      141      TFA      C1       CD2O2A    2.58500       11.6110           0 -0.800000      0.899000    
     17182 TFA      141      TFA      DC1      DRUD     -2.19500      0.400000           0   0.00000       0.00000    
     17183 TFA      141      TFA      C2       CD30A    0.450000       12.0110           0   0.00000       0.00000    
     17184 TFA      141      TFA      F1       FDA3      1.92530       18.5980           0 -0.750000       1.30000    
     17185 TFA      141      TFA      DF1      DRUD     -2.12530      0.400000           0   0.00000       0.00000    
     17186 TFA      141      TFA      F2       FDA3      1.92530       18.5980           0 -0.750000       1.30000    
     17187 TFA      141      TFA      DF2      DRUD     -2.12530      0.400000           0   0.00000       0.00000    
     17188 TFA      141      TFA      F3       FDA3      1.92530       18.5980           0 -0.750000       1.30000    
     17189 TFA      141      TFA      DF3      DRUD     -2.12530      0.400000           0   0.00000       0.00000    
     17190 TFA      141      TFA      O1       OD2C2A    1.45190       15.5994           0 -0.350000       2.39900    
     17191 TFA      141      TFA      DO1      DRUD     -1.45190      0.400000           0   0.00000       0.00000    
     17192 TFA      141      TFA      O2       OD2C2A    1.45190       15.5994           0 -0.350000       2.39900    
     17193 TFA      141      TFA      DO2      DRUD     -1.45190      0.400000           0   0.00000       0.00000    
     17194 TFA      141      TFA      LPO11    LPD     -0.310000       0.00000          -1   0.00000       0.00000    
     17195 TFA      141      TFA      LPO12    LPD     -0.310000       0.00000          -1   0.00000       0.00000    
     17196 TFA      141      TFA      LPO21    LPD     -0.310000       0.00000          -1   0.00000       0.00000    
     17197 TFA      141      TFA      LPO22    LPD     -0.310000       0.00000          -1   0.00000       0.00000    
     17198 TFA      142      TFA      C1       CD2O2A    2.58500       11.6110           0 -0.800000      0.899000    
     17199 TFA      142      TFA      DC1      DRUD     -2.19500      0.400000           0   0.00000       0.00000    
     17200 TFA      142      TFA      C2       CD30A    0.450000       12.0110           0   0.00000       0.00000    
     17201 TFA      142      TFA      F1       FDA3      1.92530       18.5980           0 -0.750000       1.30000    
     17202 TFA      142      TFA      DF1      DRUD     -2.12530      0.400000           0   0.00000       0.00000    
     17203 TFA      142      TFA      F2       FDA3      1.92530       18.5980           0 -0.750000       1.30000    
     17204 TFA      142      TFA      DF2      DRUD     -2.12530      0.400000           0   0.00000       0.00000    
     17205 TFA      142      TFA      F3       FDA3      1.92530       18.5980           0 -0.750000       1.30000    
     17206 TFA      142      TFA      DF3      DRUD     -2.12530      0.400000           0   0.00000       0.00000    
     17207 TFA      142      TFA      O1       OD2C2A    1.45190       15.5994           0 -0.350000       2.39900    
     17208 TFA      142      TFA      DO1      DRUD     -1.45190      0.400000           0   0.00000       0.00000    
     17209 TFA      142      TFA      O2       OD2C2A    1.45190       15.5994           0 -0.350000       2.39900    
     17210 TFA      142      TFA      DO2      DRUD     -1.45190      0.400000           0   0.00000       0.00000    
     17211 TFA      142      TFA      LPO11    LPD     -0.310000       0.00000          -1   0.00000       0.00000    
     17212 TFA      142      TFA      LPO12    LPD     -0.310000       0.00000          -1   0.00000       0.00000    
     17213 TFA      142      TFA      LPO21    LPD     -0.310000       0.00000          -1   0.00000       0.00000    
     17214 TFA      142      TFA      LPO22    LPD     -0.310000       0.00000          -1   0.00000       0.00000    
     17215 TFA      143      TFA      C1       CD2O2A    2.58500       11.6110           0 -0.800000      0.899000    
     17216 TFA      143      TFA      DC1      DRUD     -2.19500      0.400000           0   0.00000       0.00000    
     17217 TFA      143      TFA      C2       CD30A    0.450000       12.0110           0   0.00000       0.00000    
     17218 TFA      143      TFA      F1       FDA3      1.92530       18.5980           0 -0.750000       1.30000    
     17219 TFA      143      TFA      DF1      DRUD     -2.12530      0.400000           0   0.00000       0.00000    
     17220 TFA      143      TFA      F2       FDA3      1.92530       18.5980           0 -0.750000       1.30000    
     17221 TFA      143      TFA      DF2      DRUD     -2.12530      0.400000           0   0.00000       0.00000    
     17222 TFA      143      TFA      F3       FDA3      1.92530       18.5980           0 -0.750000       1.30000    
     17223 TFA      143      TFA      DF3      DRUD     -2.12530      0.400000           0   0.00000       0.00000    
     17224 TFA      143      TFA      O1       OD2C2A    1.45190       15.5994           0 -0.350000       2.39900    
     17225 TFA      143      TFA      DO1      DRUD     -1.45190      0.400000           0   0.00000       0.00000    
     17226 TFA      143      TFA      O2       OD2C2A    1.45190       15.5994           0 -0.350000       2.39900    
     17227 TFA      143      TFA      DO2      DRUD     -1.45190      0.400000           0   0.00000       0.00000    
     17228 TFA      143      TFA      LPO11    LPD     -0.310000       0.00000          -1   0.00000       0.00000    
     17229 TFA      143      TFA      LPO12    LPD     -0.310000       0.00000          -1   0.00000       0.00000    
     17230 TFA      143      TFA      LPO21    LPD     -0.310000       0.00000          -1   0.00000       0.00000    
     17231 TFA      143      TFA      LPO22    LPD     -0.310000       0.00000          -1   0.00000       0.00000    
     17232 TFA      144      TFA      C1       CD2O2A    2.58500       11.6110           0 -0.800000      0.899000    
     17233 TFA      144      TFA      DC1      DRUD     -2.19500      0.400000           0   0.00000       0.00000    
     17234 TFA      144      TFA      C2       CD30A    0.450000       12.0110           0   0.00000       0.00000    
     17235 TFA      144      TFA      F1       FDA3      1.92530       18.5980           0 -0.750000       1.30000    
     17236 TFA      144      TFA      DF1      DRUD     -2.12530      0.400000           0   0.00000       0.00000    
     17237 TFA      144      TFA      F2       FDA3      1.92530       18.5980           0 -0.750000       1.30000    
     17238 TFA      144      TFA      DF2      DRUD     -2.12530      0.400000           0   0.00000       0.00000    
     17239 TFA      144      TFA      F3       FDA3      1.92530       18.5980           0 -0.750000       1.30000    
     17240 TFA      144      TFA      DF3      DRUD     -2.12530      0.400000           0   0.00000       0.00000    
     17241 TFA      144      TFA      O1       OD2C2A    1.45190       15.5994           0 -0.350000       2.39900    
     17242 TFA      144      TFA      DO1      DRUD     -1.45190      0.400000           0   0.00000       0.00000    
     17243 TFA      144      TFA      O2       OD2C2A    1.45190       15.5994           0 -0.350000       2.39900    
     17244 TFA      144      TFA      DO2      DRUD     -1.45190      0.400000           0   0.00000       0.00000    
     17245 TFA      144      TFA      LPO11    LPD     -0.310000       0.00000          -1   0.00000       0.00000    
     17246 TFA      144      TFA      LPO12    LPD     -0.310000       0.00000          -1   0.00000       0.00000    
     17247 TFA      144      TFA      LPO21    LPD     -0.310000       0.00000          -1   0.00000       0.00000    
     17248 TFA      144      TFA      LPO22    LPD     -0.310000       0.00000          -1   0.00000       0.00000    
     17249 TFA      145      TFA      C1       CD2O2A    2.58500       11.6110           0 -0.800000      0.899000    
     17250 TFA      145      TFA      DC1      DRUD     -2.19500      0.400000           0   0.00000       0.00000    
     17251 TFA      145      TFA      C2       CD30A    0.450000       12.0110           0   0.00000       0.00000    
     17252 TFA      145      TFA      F1       FDA3      1.92530       18.5980           0 -0.750000       1.30000    
     17253 TFA      145      TFA      DF1      DRUD     -2.12530      0.400000           0   0.00000       0.00000    
     17254 TFA      145      TFA      F2       FDA3      1.92530       18.5980           0 -0.750000       1.30000    
     17255 TFA      145      TFA      DF2      DRUD     -2.12530      0.400000           0   0.00000       0.00000    
     17256 TFA      145      TFA      F3       FDA3      1.92530       18.5980           0 -0.750000       1.30000    
     17257 TFA      145      TFA      DF3      DRUD     -2.12530      0.400000           0   0.00000       0.00000    
     17258 TFA      145      TFA      O1       OD2C2A    1.45190       15.5994           0 -0.350000       2.39900    
     17259 TFA      145      TFA      DO1      DRUD     -1.45190      0.400000           0   0.00000       0.00000    
     17260 TFA      145      TFA      O2       OD2C2A    1.45190       15.5994           0 -0.350000       2.39900    
     17261 TFA      145      TFA      DO2      DRUD     -1.45190      0.400000           0   0.00000       0.00000    
     17262 TFA      145      TFA      LPO11    LPD     -0.310000       0.00000          -1   0.00000       0.00000    
     17263 TFA      145      TFA      LPO12    LPD     -0.310000       0.00000          -1   0.00000       0.00000    
     17264 TFA      145      TFA      LPO21    LPD     -0.310000       0.00000          -1   0.00000       0.00000    
     17265 TFA      145      TFA      LPO22    LPD     -0.310000       0.00000          -1   0.00000       0.00000    
     17266 TFA      146      TFA      C1       CD2O2A    2.58500       11.6110           0 -0.800000      0.899000    
     17267 TFA      146      TFA      DC1      DRUD     -2.19500      0.400000           0   0.00000       0.00000    
     17268 TFA      146      TFA      C2       CD30A    0.450000       12.0110           0   0.00000       0.00000    
     17269 TFA      146      TFA      F1       FDA3      1.92530       18.5980           0 -0.750000       1.30000    
     17270 TFA      146      TFA      DF1      DRUD     -2.12530      0.400000           0   0.00000       0.00000    
     17271 TFA      146      TFA      F2       FDA3      1.92530       18.5980           0 -0.750000       1.30000    
     17272 TFA      146      TFA      DF2      DRUD     -2.12530      0.400000           0   0.00000       0.00000    
     17273 TFA      146      TFA      F3       FDA3      1.92530       18.5980           0 -0.750000       1.30000    
     17274 TFA      146      TFA      DF3      DRUD     -2.12530      0.400000           0   0.00000       0.00000    
     17275 TFA      146      TFA      O1       OD2C2A    1.45190       15.5994           0 -0.350000       2.39900    
     17276 TFA      146      TFA      DO1      DRUD     -1.45190      0.400000           0   0.00000       0.00000    
     17277 TFA      146      TFA      O2       OD2C2A    1.45190       15.5994           0 -0.350000       2.39900    
     17278 TFA      146      TFA      DO2      DRUD     -1.45190      0.400000           0   0.00000       0.00000    
     17279 TFA      146      TFA      LPO11    LPD     -0.310000       0.00000          -1   0.00000       0.00000    
     17280 TFA      146      TFA      LPO12    LPD     -0.310000       0.00000          -1   0.00000       0.00000    
     17281 TFA      146      TFA      LPO21    LPD     -0.310000       0.00000          -1   0.00000       0.00000    
     17282 TFA      146      TFA      LPO22    LPD     -0.310000       0.00000          -1   0.00000       0.00000    
     17283 TFA      147      TFA      C1       CD2O2A    2.58500       11.6110           0 -0.800000      0.899000    
     17284 TFA      147      TFA      DC1      DRUD     -2.19500      0.400000           0   0.00000       0.00000    
     17285 TFA      147      TFA      C2       CD30A    0.450000       12.0110           0   0.00000       0.00000    
     17286 TFA      147      TFA      F1       FDA3      1.92530       18.5980           0 -0.750000       1.30000    
     17287 TFA      147      TFA      DF1      DRUD     -2.12530      0.400000           0   0.00000       0.00000    
     17288 TFA      147      TFA      F2       FDA3      1.92530       18.5980           0 -0.750000       1.30000    
     17289 TFA      147      TFA      DF2      DRUD     -2.12530      0.400000           0   0.00000       0.00000    
     17290 TFA      147      TFA      F3       FDA3      1.92530       18.5980           0 -0.750000       1.30000    
     17291 TFA      147      TFA      DF3      DRUD     -2.12530      0.400000           0   0.00000       0.00000    
     17292 TFA      147      TFA      O1       OD2C2A    1.45190       15.5994           0 -0.350000       2.39900    
     17293 TFA      147      TFA      DO1      DRUD     -1.45190      0.400000           0   0.00000       0.00000    
     17294 TFA      147      TFA      O2       OD2C2A    1.45190       15.5994           0 -0.350000       2.39900    
     17295 TFA      147      TFA      DO2      DRUD     -1.45190      0.400000           0   0.00000       0.00000    
     17296 TFA      147      TFA      LPO11    LPD     -0.310000       0.00000          -1   0.00000       0.00000    
     17297 TFA      147      TFA      LPO12    LPD     -0.310000       0.00000          -1   0.00000       0.00000    
     17298 TFA      147      TFA      LPO21    LPD     -0.310000       0.00000          -1   0.00000       0.00000    
     17299 TFA      147      TFA      LPO22    LPD     -0.310000       0.00000          -1   0.00000       0.00000    
     17300 TFA      148      TFA      C1       CD2O2A    2.58500       11.6110           0 -0.800000      0.899000    
     17301 TFA      148      TFA      DC1      DRUD     -2.19500      0.400000           0   0.00000       0.00000    
     17302 TFA      148      TFA      C2       CD30A    0.450000       12.0110           0   0.00000       0.00000    
     17303 TFA      148      TFA      F1       FDA3      1.92530       18.5980           0 -0.750000       1.30000    
     17304 TFA      148      TFA      DF1      DRUD     -2.12530      0.400000           0   0.00000       0.00000    
     17305 TFA      148      TFA      F2       FDA3      1.92530       18.5980           0 -0.750000       1.30000    
     17306 TFA      148      TFA      DF2      DRUD     -2.12530      0.400000           0   0.00000       0.00000    
     17307 TFA      148      TFA      F3       FDA3      1.92530       18.5980           0 -0.750000       1.30000    
     17308 TFA      148      TFA      DF3      DRUD     -2.12530      0.400000           0   0.00000       0.00000    
     17309 TFA      148      TFA      O1       OD2C2A    1.45190       15.5994           0 -0.350000       2.39900    
     17310 TFA      148      TFA      DO1      DRUD     -1.45190      0.400000           0   0.00000       0.00000    
     17311 TFA      148      TFA      O2       OD2C2A    1.45190       15.5994           0 -0.350000       2.39900    
     17312 TFA      148      TFA      DO2      DRUD     -1.45190      0.400000           0   0.00000       0.00000    
     17313 TFA      148      TFA      LPO11    LPD     -0.310000       0.00000          -1   0.00000       0.00000    
     17314 TFA      148      TFA      LPO12    LPD     -0.310000       0.00000          -1   0.00000       0.00000    
     17315 TFA      148      TFA      LPO21    LPD     -0.310000       0.00000          -1   0.00000       0.00000    
     17316 TFA      148      TFA      LPO22    LPD     -0.310000       0.00000          -1   0.00000       0.00000    
     17317 TFA      149      TFA      C1       CD2O2A    2.58500       11.6110           0 -0.800000      0.899000    
     17318 TFA      149      TFA      DC1      DRUD     -2.19500      0.400000           0   0.00000       0.00000    
     17319 TFA      149      TFA      C2       CD30A    0.450000       12.0110           0   0.00000       0.00000    
     17320 TFA      149      TFA      F1       FDA3      1.92530       18.5980           0 -0.750000       1.30000    
     17321 TFA      149      TFA      DF1      DRUD     -2.12530      0.400000           0   0.00000       0.00000    
     17322 TFA      149      TFA      F2       FDA3      1.92530       18.5980           0 -0.750000       1.30000    
     17323 TFA      149      TFA      DF2      DRUD     -2.12530      0.400000           0   0.00000       0.00000    
     17324 TFA      149      TFA      F3       FDA3      1.92530       18.5980           0 -0.750000       1.30000    
     17325 TFA      149      TFA      DF3      DRUD     -2.12530      0.400000           0   0.00000       0.00000    
     17326 TFA      149      TFA      O1       OD2C2A    1.45190       15.5994           0 -0.350000       2.39900    
     17327 TFA      149      TFA      DO1      DRUD     -1.45190      0.400000           0   0.00000       0.00000    
     17328 TFA      149      TFA      O2       OD2C2A    1.45190       15.5994           0 -0.350000       2.39900    
     17329 TFA      149      TFA      DO2      DRUD     -1.45190      0.400000           0   0.00000       0.00000    
     17330 TFA      149      TFA      LPO11    LPD     -0.310000       0.00000          -1   0.00000       0.00000    
     17331 TFA      149      TFA      LPO12    LPD     -0.310000       0.00000          -1   0.00000       0.00000    
     17332 TFA      149      TFA      LPO21    LPD     -0.310000       0.00000          -1   0.00000       0.00000    
     17333 TFA      149      TFA      LPO22    LPD     -0.310000       0.00000          -1   0.00000       0.00000    
     17334 TFA      150      TFA      C1       CD2O2A    2.58500       11.6110           0 -0.800000      0.899000    
     17335 TFA      150      TFA      DC1      DRUD     -2.19500      0.400000           0   0.00000       0.00000    
     17336 TFA      150      TFA      C2       CD30A    0.450000       12.0110           0   0.00000       0.00000    
     17337 TFA      150      TFA      F1       FDA3      1.92530       18.5980           0 -0.750000       1.30000    
     17338 TFA      150      TFA      DF1      DRUD     -2.12530      0.400000           0   0.00000       0.00000    
     17339 TFA      150      TFA      F2       FDA3      1.92530       18.5980           0 -0.750000       1.30000    
     17340 TFA      150      TFA      DF2      DRUD     -2.12530      0.400000           0   0.00000       0.00000    
     17341 TFA      150      TFA      F3       FDA3      1.92530       18.5980           0 -0.750000       1.30000    
     17342 TFA      150      TFA      DF3      DRUD     -2.12530      0.400000           0   0.00000       0.00000    
     17343 TFA      150      TFA      O1       OD2C2A    1.45190       15.5994           0 -0.350000       2.39900    
     17344 TFA      150      TFA      DO1      DRUD     -1.45190      0.400000           0   0.00000       0.00000    
     17345 TFA      150      TFA      O2       OD2C2A    1.45190       15.5994           0 -0.350000       2.39900    
     17346 TFA      150      TFA      DO2      DRUD     -1.45190      0.400000           0   0.00000       0.00000    
     17347 TFA      150      TFA      LPO11    LPD     -0.310000       0.00000          -1   0.00000       0.00000    
     17348 TFA      150      TFA      LPO12    LPD     -0.310000       0.00000          -1   0.00000       0.00000    
     17349 TFA      150      TFA      LPO21    LPD     -0.310000       0.00000          -1   0.00000       0.00000    
     17350 TFA      150      TFA      LPO22    LPD     -0.310000       0.00000          -1   0.00000       0.00000    
     17351 TFA      151      TFA      C1       CD2O2A    2.58500       11.6110           0 -0.800000      0.899000    
     17352 TFA      151      TFA      DC1      DRUD     -2.19500      0.400000           0   0.00000       0.00000    
     17353 TFA      151      TFA      C2       CD30A    0.450000       12.0110           0   0.00000       0.00000    
     17354 TFA      151      TFA      F1       FDA3      1.92530       18.5980           0 -0.750000       1.30000    
     17355 TFA      151      TFA      DF1      DRUD     -2.12530      0.400000           0   0.00000       0.00000    
     17356 TFA      151      TFA      F2       FDA3      1.92530       18.5980           0 -0.750000       1.30000    
     17357 TFA      151      TFA      DF2      DRUD     -2.12530      0.400000           0   0.00000       0.00000    
     17358 TFA      151      TFA      F3       FDA3      1.92530       18.5980           0 -0.750000       1.30000    
     17359 TFA      151      TFA      DF3      DRUD     -2.12530      0.400000           0   0.00000       0.00000    
     17360 TFA      151      TFA      O1       OD2C2A    1.45190       15.5994           0 -0.350000       2.39900    
     17361 TFA      151      TFA      DO1      DRUD     -1.45190      0.400000           0   0.00000       0.00000    
     17362 TFA      151      TFA      O2       OD2C2A    1.45190       15.5994           0 -0.350000       2.39900    
     17363 TFA      151      TFA      DO2      DRUD     -1.45190      0.400000           0   0.00000       0.00000    
     17364 TFA      151      TFA      LPO11    LPD     -0.310000       0.00000          -1   0.00000       0.00000    
     17365 TFA      151      TFA      LPO12    LPD     -0.310000       0.00000          -1   0.00000       0.00000    
     17366 TFA      151      TFA      LPO21    LPD     -0.310000       0.00000          -1   0.00000       0.00000    
     17367 TFA      151      TFA      LPO22    LPD     -0.310000       0.00000          -1   0.00000       0.00000    
     17368 TFA      152      TFA      C1       CD2O2A    2.58500       11.6110           0 -0.800000      0.899000    
     17369 TFA      152      TFA      DC1      DRUD     -2.19500      0.400000           0   0.00000       0.00000    
     17370 TFA      152      TFA      C2       CD30A    0.450000       12.0110           0   0.00000       0.00000    
     17371 TFA      152      TFA      F1       FDA3      1.92530       18.5980           0 -0.750000       1.30000    
     17372 TFA      152      TFA      DF1      DRUD     -2.12530      0.400000           0   0.00000       0.00000    
     17373 TFA      152      TFA      F2       FDA3      1.92530       18.5980           0 -0.750000       1.30000    
     17374 TFA      152      TFA      DF2      DRUD     -2.12530      0.400000           0   0.00000       0.00000    
     17375 TFA      152      TFA      F3       FDA3      1.92530       18.5980           0 -0.750000       1.30000    
     17376 TFA      152      TFA      DF3      DRUD     -2.12530      0.400000           0   0.00000       0.00000    
     17377 TFA      152      TFA      O1       OD2C2A    1.45190       15.5994           0 -0.350000       2.39900    
     17378 TFA      152      TFA      DO1      DRUD     -1.45190      0.400000           0   0.00000       0.00000    
     17379 TFA      152      TFA      O2       OD2C2A    1.45190       15.5994           0 -0.350000       2.39900    
     17380 TFA      152      TFA      DO2      DRUD     -1.45190      0.400000           0   0.00000       0.00000    
     17381 TFA      152      TFA      LPO11    LPD     -0.310000       0.00000          -1   0.00000       0.00000    
     17382 TFA      152      TFA      LPO12    LPD     -0.310000       0.00000          -1   0.00000       0.00000    
     17383 TFA      152      TFA      LPO21    LPD     -0.310000       0.00000          -1   0.00000       0.00000    
     17384 TFA      152      TFA      LPO22    LPD     -0.310000       0.00000          -1   0.00000       0.00000    
     17385 TFA      153      TFA      C1       CD2O2A    2.58500       11.6110           0 -0.800000      0.899000    
     17386 TFA      153      TFA      DC1      DRUD     -2.19500      0.400000           0   0.00000       0.00000    
     17387 TFA      153      TFA      C2       CD30A    0.450000       12.0110           0   0.00000       0.00000    
     17388 TFA      153      TFA      F1       FDA3      1.92530       18.5980           0 -0.750000       1.30000    
     17389 TFA      153      TFA      DF1      DRUD     -2.12530      0.400000           0   0.00000       0.00000    
     17390 TFA      153      TFA      F2       FDA3      1.92530       18.5980           0 -0.750000       1.30000    
     17391 TFA      153      TFA      DF2      DRUD     -2.12530      0.400000           0   0.00000       0.00000    
     17392 TFA      153      TFA      F3       FDA3      1.92530       18.5980           0 -0.750000       1.30000    
     17393 TFA      153      TFA      DF3      DRUD     -2.12530      0.400000           0   0.00000       0.00000    
     17394 TFA      153      TFA      O1       OD2C2A    1.45190       15.5994           0 -0.350000       2.39900    
     17395 TFA      153      TFA      DO1      DRUD     -1.45190      0.400000           0   0.00000       0.00000    
     17396 TFA      153      TFA      O2       OD2C2A    1.45190       15.5994           0 -0.350000       2.39900    
     17397 TFA      153      TFA      DO2      DRUD     -1.45190      0.400000           0   0.00000       0.00000    
     17398 TFA      153      TFA      LPO11    LPD     -0.310000       0.00000          -1   0.00000       0.00000    
     17399 TFA      153      TFA      LPO12    LPD     -0.310000       0.00000          -1   0.00000       0.00000    
     17400 TFA      153      TFA      LPO21    LPD     -0.310000       0.00000          -1   0.00000       0.00000    
     17401 TFA      153      TFA      LPO22    LPD     -0.310000       0.00000          -1   0.00000       0.00000    
     17402 TFA      154      TFA      C1       CD2O2A    2.58500       11.6110           0 -0.800000      0.899000    
     17403 TFA      154      TFA      DC1      DRUD     -2.19500      0.400000           0   0.00000       0.00000    
     17404 TFA      154      TFA      C2       CD30A    0.450000       12.0110           0   0.00000       0.00000    
     17405 TFA      154      TFA      F1       FDA3      1.92530       18.5980           0 -0.750000       1.30000    
     17406 TFA      154      TFA      DF1      DRUD     -2.12530      0.400000           0   0.00000       0.00000    
     17407 TFA      154      TFA      F2       FDA3      1.92530       18.5980           0 -0.750000       1.30000    
     17408 TFA      154      TFA      DF2      DRUD     -2.12530      0.400000           0   0.00000       0.00000    
     17409 TFA      154      TFA      F3       FDA3      1.92530       18.5980           0 -0.750000       1.30000    
     17410 TFA      154      TFA      DF3      DRUD     -2.12530      0.400000           0   0.00000       0.00000    
     17411 TFA      154      TFA      O1       OD2C2A    1.45190       15.5994           0 -0.350000       2.39900    
     17412 TFA      154      TFA      DO1      DRUD     -1.45190      0.400000           0   0.00000       0.00000    
     17413 TFA      154      TFA      O2       OD2C2A    1.45190       15.5994           0 -0.350000       2.39900    
     17414 TFA      154      TFA      DO2      DRUD     -1.45190      0.400000           0   0.00000       0.00000    
     17415 TFA      154      TFA      LPO11    LPD     -0.310000       0.00000          -1   0.00000       0.00000    
     17416 TFA      154      TFA      LPO12    LPD     -0.310000       0.00000          -1   0.00000       0.00000    
     17417 TFA      154      TFA      LPO21    LPD     -0.310000       0.00000          -1   0.00000       0.00000    
     17418 TFA      154      TFA      LPO22    LPD     -0.310000       0.00000          -1   0.00000       0.00000    
     17419 TFA      155      TFA      C1       CD2O2A    2.58500       11.6110           0 -0.800000      0.899000    
     17420 TFA      155      TFA      DC1      DRUD     -2.19500      0.400000           0   0.00000       0.00000    
     17421 TFA      155      TFA      C2       CD30A    0.450000       12.0110           0   0.00000       0.00000    
     17422 TFA      155      TFA      F1       FDA3      1.92530       18.5980           0 -0.750000       1.30000    
     17423 TFA      155      TFA      DF1      DRUD     -2.12530      0.400000           0   0.00000       0.00000    
     17424 TFA      155      TFA      F2       FDA3      1.92530       18.5980           0 -0.750000       1.30000    
     17425 TFA      155      TFA      DF2      DRUD     -2.12530      0.400000           0   0.00000       0.00000    
     17426 TFA      155      TFA      F3       FDA3      1.92530       18.5980           0 -0.750000       1.30000    
     17427 TFA      155      TFA      DF3      DRUD     -2.12530      0.400000           0   0.00000       0.00000    
     17428 TFA      155      TFA      O1       OD2C2A    1.45190       15.5994           0 -0.350000       2.39900    
     17429 TFA      155      TFA      DO1      DRUD     -1.45190      0.400000           0   0.00000       0.00000    
     17430 TFA      155      TFA      O2       OD2C2A    1.45190       15.5994           0 -0.350000       2.39900    
     17431 TFA      155      TFA      DO2      DRUD     -1.45190      0.400000           0   0.00000       0.00000    
     17432 TFA      155      TFA      LPO11    LPD     -0.310000       0.00000          -1   0.00000       0.00000    
     17433 TFA      155      TFA      LPO12    LPD     -0.310000       0.00000          -1   0.00000       0.00000    
     17434 TFA      155      TFA      LPO21    LPD     -0.310000       0.00000          -1   0.00000       0.00000    
     17435 TFA      155      TFA      LPO22    LPD     -0.310000       0.00000          -1   0.00000       0.00000    
     17436 TFA      156      TFA      C1       CD2O2A    2.58500       11.6110           0 -0.800000      0.899000    
     17437 TFA      156      TFA      DC1      DRUD     -2.19500      0.400000           0   0.00000       0.00000    
     17438 TFA      156      TFA      C2       CD30A    0.450000       12.0110           0   0.00000       0.00000    
     17439 TFA      156      TFA      F1       FDA3      1.92530       18.5980           0 -0.750000       1.30000    
     17440 TFA      156      TFA      DF1      DRUD     -2.12530      0.400000           0   0.00000       0.00000    
     17441 TFA      156      TFA      F2       FDA3      1.92530       18.5980           0 -0.750000       1.30000    
     17442 TFA      156      TFA      DF2      DRUD     -2.12530      0.400000           0   0.00000       0.00000    
     17443 TFA      156      TFA      F3       FDA3      1.92530       18.5980           0 -0.750000       1.30000    
     17444 TFA      156      TFA      DF3      DRUD     -2.12530      0.400000           0   0.00000       0.00000    
     17445 TFA      156      TFA      O1       OD2C2A    1.45190       15.5994           0 -0.350000       2.39900    
     17446 TFA      156      TFA      DO1      DRUD     -1.45190      0.400000           0   0.00000       0.00000    
     17447 TFA      156      TFA      O2       OD2C2A    1.45190       15.5994           0 -0.350000       2.39900    
     17448 TFA      156      TFA      DO2      DRUD     -1.45190      0.400000           0   0.00000       0.00000    
     17449 TFA      156      TFA      LPO11    LPD     -0.310000       0.00000          -1   0.00000       0.00000    
     17450 TFA      156      TFA      LPO12    LPD     -0.310000       0.00000          -1   0.00000       0.00000    
     17451 TFA      156      TFA      LPO21    LPD     -0.310000       0.00000          -1   0.00000       0.00000    
     17452 TFA      156      TFA      LPO22    LPD     -0.310000       0.00000          -1   0.00000       0.00000    
     17453 TFA      157      TFA      C1       CD2O2A    2.58500       11.6110           0 -0.800000      0.899000    
     17454 TFA      157      TFA      DC1      DRUD     -2.19500      0.400000           0   0.00000       0.00000    
     17455 TFA      157      TFA      C2       CD30A    0.450000       12.0110           0   0.00000       0.00000    
     17456 TFA      157      TFA      F1       FDA3      1.92530       18.5980           0 -0.750000       1.30000    
     17457 TFA      157      TFA      DF1      DRUD     -2.12530      0.400000           0   0.00000       0.00000    
     17458 TFA      157      TFA      F2       FDA3      1.92530       18.5980           0 -0.750000       1.30000    
     17459 TFA      157      TFA      DF2      DRUD     -2.12530      0.400000           0   0.00000       0.00000    
     17460 TFA      157      TFA      F3       FDA3      1.92530       18.5980           0 -0.750000       1.30000    
     17461 TFA      157      TFA      DF3      DRUD     -2.12530      0.400000           0   0.00000       0.00000    
     17462 TFA      157      TFA      O1       OD2C2A    1.45190       15.5994           0 -0.350000       2.39900    
     17463 TFA      157      TFA      DO1      DRUD     -1.45190      0.400000           0   0.00000       0.00000    
     17464 TFA      157      TFA      O2       OD2C2A    1.45190       15.5994           0 -0.350000       2.39900    
     17465 TFA      157      TFA      DO2      DRUD     -1.45190      0.400000           0   0.00000       0.00000    
     17466 TFA      157      TFA      LPO11    LPD     -0.310000       0.00000          -1   0.00000       0.00000    
     17467 TFA      157      TFA      LPO12    LPD     -0.310000       0.00000          -1   0.00000       0.00000    
     17468 TFA      157      TFA      LPO21    LPD     -0.310000       0.00000          -1   0.00000       0.00000    
     17469 TFA      157      TFA      LPO22    LPD     -0.310000       0.00000          -1   0.00000       0.00000    
     17470 TFA      158      TFA      C1       CD2O2A    2.58500       11.6110           0 -0.800000      0.899000    
     17471 TFA      158      TFA      DC1      DRUD     -2.19500      0.400000           0   0.00000       0.00000    
     17472 TFA      158      TFA      C2       CD30A    0.450000       12.0110           0   0.00000       0.00000    
     17473 TFA      158      TFA      F1       FDA3      1.92530       18.5980           0 -0.750000       1.30000    
     17474 TFA      158      TFA      DF1      DRUD     -2.12530      0.400000           0   0.00000       0.00000    
     17475 TFA      158      TFA      F2       FDA3      1.92530       18.5980           0 -0.750000       1.30000    
     17476 TFA      158      TFA      DF2      DRUD     -2.12530      0.400000           0   0.00000       0.00000    
     17477 TFA      158      TFA      F3       FDA3      1.92530       18.5980           0 -0.750000       1.30000    
     17478 TFA      158      TFA      DF3      DRUD     -2.12530      0.400000           0   0.00000       0.00000    
     17479 TFA      158      TFA      O1       OD2C2A    1.45190       15.5994           0 -0.350000       2.39900    
     17480 TFA      158      TFA      DO1      DRUD     -1.45190      0.400000           0   0.00000       0.00000    
     17481 TFA      158      TFA      O2       OD2C2A    1.45190       15.5994           0 -0.350000       2.39900    
     17482 TFA      158      TFA      DO2      DRUD     -1.45190      0.400000           0   0.00000       0.00000    
     17483 TFA      158      TFA      LPO11    LPD     -0.310000       0.00000          -1   0.00000       0.00000    
     17484 TFA      158      TFA      LPO12    LPD     -0.310000       0.00000          -1   0.00000       0.00000    
     17485 TFA      158      TFA      LPO21    LPD     -0.310000       0.00000          -1   0.00000       0.00000    
     17486 TFA      158      TFA      LPO22    LPD     -0.310000       0.00000          -1   0.00000       0.00000    
     17487 TFA      159      TFA      C1       CD2O2A    2.58500       11.6110           0 -0.800000      0.899000    
     17488 TFA      159      TFA      DC1      DRUD     -2.19500      0.400000           0   0.00000       0.00000    
     17489 TFA      159      TFA      C2       CD30A    0.450000       12.0110           0   0.00000       0.00000    
     17490 TFA      159      TFA      F1       FDA3      1.92530       18.5980           0 -0.750000       1.30000    
     17491 TFA      159      TFA      DF1      DRUD     -2.12530      0.400000           0   0.00000       0.00000    
     17492 TFA      159      TFA      F2       FDA3      1.92530       18.5980           0 -0.750000       1.30000    
     17493 TFA      159      TFA      DF2      DRUD     -2.12530      0.400000           0   0.00000       0.00000    
     17494 TFA      159      TFA      F3       FDA3      1.92530       18.5980           0 -0.750000       1.30000    
     17495 TFA      159      TFA      DF3      DRUD     -2.12530      0.400000           0   0.00000       0.00000    
     17496 TFA      159      TFA      O1       OD2C2A    1.45190       15.5994           0 -0.350000       2.39900    
     17497 TFA      159      TFA      DO1      DRUD     -1.45190      0.400000           0   0.00000       0.00000    
     17498 TFA      159      TFA      O2       OD2C2A    1.45190       15.5994           0 -0.350000       2.39900    
     17499 TFA      159      TFA      DO2      DRUD     -1.45190      0.400000           0   0.00000       0.00000    
     17500 TFA      159      TFA      LPO11    LPD     -0.310000       0.00000          -1   0.00000       0.00000    
     17501 TFA      159      TFA      LPO12    LPD     -0.310000       0.00000          -1   0.00000       0.00000    
     17502 TFA      159      TFA      LPO21    LPD     -0.310000       0.00000          -1   0.00000       0.00000    
     17503 TFA      159      TFA      LPO22    LPD     -0.310000       0.00000          -1   0.00000       0.00000    
     17504 TFA      160      TFA      C1       CD2O2A    2.58500       11.6110           0 -0.800000      0.899000    
     17505 TFA      160      TFA      DC1      DRUD     -2.19500      0.400000           0   0.00000       0.00000    
     17506 TFA      160      TFA      C2       CD30A    0.450000       12.0110           0   0.00000       0.00000    
     17507 TFA      160      TFA      F1       FDA3      1.92530       18.5980           0 -0.750000       1.30000    
     17508 TFA      160      TFA      DF1      DRUD     -2.12530      0.400000           0   0.00000       0.00000    
     17509 TFA      160      TFA      F2       FDA3      1.92530       18.5980           0 -0.750000       1.30000    
     17510 TFA      160      TFA      DF2      DRUD     -2.12530      0.400000           0   0.00000       0.00000    
     17511 TFA      160      TFA      F3       FDA3      1.92530       18.5980           0 -0.750000       1.30000    
     17512 TFA      160      TFA      DF3      DRUD     -2.12530      0.400000           0   0.00000       0.00000    
     17513 TFA      160      TFA      O1       OD2C2A    1.45190       15.5994           0 -0.350000       2.39900    
     17514 TFA      160      TFA      DO1      DRUD     -1.45190      0.400000           0   0.00000       0.00000    
     17515 TFA      160      TFA      O2       OD2C2A    1.45190       15.5994           0 -0.350000       2.39900    
     17516 TFA      160      TFA      DO2      DRUD     -1.45190      0.400000           0   0.00000       0.00000    
     17517 TFA      160      TFA      LPO11    LPD     -0.310000       0.00000          -1   0.00000       0.00000    
     17518 TFA      160      TFA      LPO12    LPD     -0.310000       0.00000          -1   0.00000       0.00000    
     17519 TFA      160      TFA      LPO21    LPD     -0.310000       0.00000          -1   0.00000       0.00000    
     17520 TFA      160      TFA      LPO22    LPD     -0.310000       0.00000          -1   0.00000       0.00000    
     17521 TFA      161      TFA      C1       CD2O2A    2.58500       11.6110           0 -0.800000      0.899000    
     17522 TFA      161      TFA      DC1      DRUD     -2.19500      0.400000           0   0.00000       0.00000    
     17523 TFA      161      TFA      C2       CD30A    0.450000       12.0110           0   0.00000       0.00000    
     17524 TFA      161      TFA      F1       FDA3      1.92530       18.5980           0 -0.750000       1.30000    
     17525 TFA      161      TFA      DF1      DRUD     -2.12530      0.400000           0   0.00000       0.00000    
     17526 TFA      161      TFA      F2       FDA3      1.92530       18.5980           0 -0.750000       1.30000    
     17527 TFA      161      TFA      DF2      DRUD     -2.12530      0.400000           0   0.00000       0.00000    
     17528 TFA      161      TFA      F3       FDA3      1.92530       18.5980           0 -0.750000       1.30000    
     17529 TFA      161      TFA      DF3      DRUD     -2.12530      0.400000           0   0.00000       0.00000    
     17530 TFA      161      TFA      O1       OD2C2A    1.45190       15.5994           0 -0.350000       2.39900    
     17531 TFA      161      TFA      DO1      DRUD     -1.45190      0.400000           0   0.00000       0.00000    
     17532 TFA      161      TFA      O2       OD2C2A    1.45190       15.5994           0 -0.350000       2.39900    
     17533 TFA      161      TFA      DO2      DRUD     -1.45190      0.400000           0   0.00000       0.00000    
     17534 TFA      161      TFA      LPO11    LPD     -0.310000       0.00000          -1   0.00000       0.00000    
     17535 TFA      161      TFA      LPO12    LPD     -0.310000       0.00000          -1   0.00000       0.00000    
     17536 TFA      161      TFA      LPO21    LPD     -0.310000       0.00000          -1   0.00000       0.00000    
     17537 TFA      161      TFA      LPO22    LPD     -0.310000       0.00000          -1   0.00000       0.00000    
     17538 TFA      162      TFA      C1       CD2O2A    2.58500       11.6110           0 -0.800000      0.899000    
     17539 TFA      162      TFA      DC1      DRUD     -2.19500      0.400000           0   0.00000       0.00000    
     17540 TFA      162      TFA      C2       CD30A    0.450000       12.0110           0   0.00000       0.00000    
     17541 TFA      162      TFA      F1       FDA3      1.92530       18.5980           0 -0.750000       1.30000    
     17542 TFA      162      TFA      DF1      DRUD     -2.12530      0.400000           0   0.00000       0.00000    
     17543 TFA      162      TFA      F2       FDA3      1.92530       18.5980           0 -0.750000       1.30000    
     17544 TFA      162      TFA      DF2      DRUD     -2.12530      0.400000           0   0.00000       0.00000    
     17545 TFA      162      TFA      F3       FDA3      1.92530       18.5980           0 -0.750000       1.30000    
     17546 TFA      162      TFA      DF3      DRUD     -2.12530      0.400000           0   0.00000       0.00000    
     17547 TFA      162      TFA      O1       OD2C2A    1.45190       15.5994           0 -0.350000       2.39900    
     17548 TFA      162      TFA      DO1      DRUD     -1.45190      0.400000           0   0.00000       0.00000    
     17549 TFA      162      TFA      O2       OD2C2A    1.45190       15.5994           0 -0.350000       2.39900    
     17550 TFA      162      TFA      DO2      DRUD     -1.45190      0.400000           0   0.00000       0.00000    
     17551 TFA      162      TFA      LPO11    LPD     -0.310000       0.00000          -1   0.00000       0.00000    
     17552 TFA      162      TFA      LPO12    LPD     -0.310000       0.00000          -1   0.00000       0.00000    
     17553 TFA      162      TFA      LPO21    LPD     -0.310000       0.00000          -1   0.00000       0.00000    
     17554 TFA      162      TFA      LPO22    LPD     -0.310000       0.00000          -1   0.00000       0.00000    
     17555 TFA      163      TFA      C1       CD2O2A    2.58500       11.6110           0 -0.800000      0.899000    
     17556 TFA      163      TFA      DC1      DRUD     -2.19500      0.400000           0   0.00000       0.00000    
     17557 TFA      163      TFA      C2       CD30A    0.450000       12.0110           0   0.00000       0.00000    
     17558 TFA      163      TFA      F1       FDA3      1.92530       18.5980           0 -0.750000       1.30000    
     17559 TFA      163      TFA      DF1      DRUD     -2.12530      0.400000           0   0.00000       0.00000    
     17560 TFA      163      TFA      F2       FDA3      1.92530       18.5980           0 -0.750000       1.30000    
     17561 TFA      163      TFA      DF2      DRUD     -2.12530      0.400000           0   0.00000       0.00000    
     17562 TFA      163      TFA      F3       FDA3      1.92530       18.5980           0 -0.750000       1.30000    
     17563 TFA      163      TFA      DF3      DRUD     -2.12530      0.400000           0   0.00000       0.00000    
     17564 TFA      163      TFA      O1       OD2C2A    1.45190       15.5994           0 -0.350000       2.39900    
     17565 TFA      163      TFA      DO1      DRUD     -1.45190      0.400000           0   0.00000       0.00000    
     17566 TFA      163      TFA      O2       OD2C2A    1.45190       15.5994           0 -0.350000       2.39900    
     17567 TFA      163      TFA      DO2      DRUD     -1.45190      0.400000           0   0.00000       0.00000    
     17568 TFA      163      TFA      LPO11    LPD     -0.310000       0.00000          -1   0.00000       0.00000    
     17569 TFA      163      TFA      LPO12    LPD     -0.310000       0.00000          -1   0.00000       0.00000    
     17570 TFA      163      TFA      LPO21    LPD     -0.310000       0.00000          -1   0.00000       0.00000    
     17571 TFA      163      TFA      LPO22    LPD     -0.310000       0.00000          -1   0.00000       0.00000    
     17572 TFA      164      TFA      C1       CD2O2A    2.58500       11.6110           0 -0.800000      0.899000    
     17573 TFA      164      TFA      DC1      DRUD     -2.19500      0.400000           0   0.00000       0.00000    
     17574 TFA      164      TFA      C2       CD30A    0.450000       12.0110           0   0.00000       0.00000    
     17575 TFA      164      TFA      F1       FDA3      1.92530       18.5980           0 -0.750000       1.30000    
     17576 TFA      164      TFA      DF1      DRUD     -2.12530      0.400000           0   0.00000       0.00000    
     17577 TFA      164      TFA      F2       FDA3      1.92530       18.5980           0 -0.750000       1.30000    
     17578 TFA      164      TFA      DF2      DRUD     -2.12530      0.400000           0   0.00000       0.00000    
     17579 TFA      164      TFA      F3       FDA3      1.92530       18.5980           0 -0.750000       1.30000    
     17580 TFA      164      TFA      DF3      DRUD     -2.12530      0.400000           0   0.00000       0.00000    
     17581 TFA      164      TFA      O1       OD2C2A    1.45190       15.5994           0 -0.350000       2.39900    
     17582 TFA      164      TFA      DO1      DRUD     -1.45190      0.400000           0   0.00000       0.00000    
     17583 TFA      164      TFA      O2       OD2C2A    1.45190       15.5994           0 -0.350000       2.39900    
     17584 TFA      164      TFA      DO2      DRUD     -1.45190      0.400000           0   0.00000       0.00000    
     17585 TFA      164      TFA      LPO11    LPD     -0.310000       0.00000          -1   0.00000       0.00000    
     17586 TFA      164      TFA      LPO12    LPD     -0.310000       0.00000          -1   0.00000       0.00000    
     17587 TFA      164      TFA      LPO21    LPD     -0.310000       0.00000          -1   0.00000       0.00000    
     17588 TFA      164      TFA      LPO22    LPD     -0.310000       0.00000          -1   0.00000       0.00000    
     17589 TFA      165      TFA      C1       CD2O2A    2.58500       11.6110           0 -0.800000      0.899000    
     17590 TFA      165      TFA      DC1      DRUD     -2.19500      0.400000           0   0.00000       0.00000    
     17591 TFA      165      TFA      C2       CD30A    0.450000       12.0110           0   0.00000       0.00000    
     17592 TFA      165      TFA      F1       FDA3      1.92530       18.5980           0 -0.750000       1.30000    
     17593 TFA      165      TFA      DF1      DRUD     -2.12530      0.400000           0   0.00000       0.00000    
     17594 TFA      165      TFA      F2       FDA3      1.92530       18.5980           0 -0.750000       1.30000    
     17595 TFA      165      TFA      DF2      DRUD     -2.12530      0.400000           0   0.00000       0.00000    
     17596 TFA      165      TFA      F3       FDA3      1.92530       18.5980           0 -0.750000       1.30000    
     17597 TFA      165      TFA      DF3      DRUD     -2.12530      0.400000           0   0.00000       0.00000    
     17598 TFA      165      TFA      O1       OD2C2A    1.45190       15.5994           0 -0.350000       2.39900    
     17599 TFA      165      TFA      DO1      DRUD     -1.45190      0.400000           0   0.00000       0.00000    
     17600 TFA      165      TFA      O2       OD2C2A    1.45190       15.5994           0 -0.350000       2.39900    
     17601 TFA      165      TFA      DO2      DRUD     -1.45190      0.400000           0   0.00000       0.00000    
     17602 TFA      165      TFA      LPO11    LPD     -0.310000       0.00000          -1   0.00000       0.00000    
     17603 TFA      165      TFA      LPO12    LPD     -0.310000       0.00000          -1   0.00000       0.00000    
     17604 TFA      165      TFA      LPO21    LPD     -0.310000       0.00000          -1   0.00000       0.00000    
     17605 TFA      165      TFA      LPO22    LPD     -0.310000       0.00000          -1   0.00000       0.00000    
     17606 TFA      166      TFA      C1       CD2O2A    2.58500       11.6110           0 -0.800000      0.899000    
     17607 TFA      166      TFA      DC1      DRUD     -2.19500      0.400000           0   0.00000       0.00000    
     17608 TFA      166      TFA      C2       CD30A    0.450000       12.0110           0   0.00000       0.00000    
     17609 TFA      166      TFA      F1       FDA3      1.92530       18.5980           0 -0.750000       1.30000    
     17610 TFA      166      TFA      DF1      DRUD     -2.12530      0.400000           0   0.00000       0.00000    
     17611 TFA      166      TFA      F2       FDA3      1.92530       18.5980           0 -0.750000       1.30000    
     17612 TFA      166      TFA      DF2      DRUD     -2.12530      0.400000           0   0.00000       0.00000    
     17613 TFA      166      TFA      F3       FDA3      1.92530       18.5980           0 -0.750000       1.30000    
     17614 TFA      166      TFA      DF3      DRUD     -2.12530      0.400000           0   0.00000       0.00000    
     17615 TFA      166      TFA      O1       OD2C2A    1.45190       15.5994           0 -0.350000       2.39900    
     17616 TFA      166      TFA      DO1      DRUD     -1.45190      0.400000           0   0.00000       0.00000    
     17617 TFA      166      TFA      O2       OD2C2A    1.45190       15.5994           0 -0.350000       2.39900    
     17618 TFA      166      TFA      DO2      DRUD     -1.45190      0.400000           0   0.00000       0.00000    
     17619 TFA      166      TFA      LPO11    LPD     -0.310000       0.00000          -1   0.00000       0.00000    
     17620 TFA      166      TFA      LPO12    LPD     -0.310000       0.00000          -1   0.00000       0.00000    
     17621 TFA      166      TFA      LPO21    LPD     -0.310000       0.00000          -1   0.00000       0.00000    
     17622 TFA      166      TFA      LPO22    LPD     -0.310000       0.00000          -1   0.00000       0.00000    
     17623 TFA      167      TFA      C1       CD2O2A    2.58500       11.6110           0 -0.800000      0.899000    
     17624 TFA      167      TFA      DC1      DRUD     -2.19500      0.400000           0   0.00000       0.00000    
     17625 TFA      167      TFA      C2       CD30A    0.450000       12.0110           0   0.00000       0.00000    
     17626 TFA      167      TFA      F1       FDA3      1.92530       18.5980           0 -0.750000       1.30000    
     17627 TFA      167      TFA      DF1      DRUD     -2.12530      0.400000           0   0.00000       0.00000    
     17628 TFA      167      TFA      F2       FDA3      1.92530       18.5980           0 -0.750000       1.30000    
     17629 TFA      167      TFA      DF2      DRUD     -2.12530      0.400000           0   0.00000       0.00000    
     17630 TFA      167      TFA      F3       FDA3      1.92530       18.5980           0 -0.750000       1.30000    
     17631 TFA      167      TFA      DF3      DRUD     -2.12530      0.400000           0   0.00000       0.00000    
     17632 TFA      167      TFA      O1       OD2C2A    1.45190       15.5994           0 -0.350000       2.39900    
     17633 TFA      167      TFA      DO1      DRUD     -1.45190      0.400000           0   0.00000       0.00000    
     17634 TFA      167      TFA      O2       OD2C2A    1.45190       15.5994           0 -0.350000       2.39900    
     17635 TFA      167      TFA      DO2      DRUD     -1.45190      0.400000           0   0.00000       0.00000    
     17636 TFA      167      TFA      LPO11    LPD     -0.310000       0.00000          -1   0.00000       0.00000    
     17637 TFA      167      TFA      LPO12    LPD     -0.310000       0.00000          -1   0.00000       0.00000    
     17638 TFA      167      TFA      LPO21    LPD     -0.310000       0.00000          -1   0.00000       0.00000    
     17639 TFA      167      TFA      LPO22    LPD     -0.310000       0.00000          -1   0.00000       0.00000    
     17640 TFA      168      TFA      C1       CD2O2A    2.58500       11.6110           0 -0.800000      0.899000    
     17641 TFA      168      TFA      DC1      DRUD     -2.19500      0.400000           0   0.00000       0.00000    
     17642 TFA      168      TFA      C2       CD30A    0.450000       12.0110           0   0.00000       0.00000    
     17643 TFA      168      TFA      F1       FDA3      1.92530       18.5980           0 -0.750000       1.30000    
     17644 TFA      168      TFA      DF1      DRUD     -2.12530      0.400000           0   0.00000       0.00000    
     17645 TFA      168      TFA      F2       FDA3      1.92530       18.5980           0 -0.750000       1.30000    
     17646 TFA      168      TFA      DF2      DRUD     -2.12530      0.400000           0   0.00000       0.00000    
     17647 TFA      168      TFA      F3       FDA3      1.92530       18.5980           0 -0.750000       1.30000    
     17648 TFA      168      TFA      DF3      DRUD     -2.12530      0.400000           0   0.00000       0.00000    
     17649 TFA      168      TFA      O1       OD2C2A    1.45190       15.5994           0 -0.350000       2.39900    
     17650 TFA      168      TFA      DO1      DRUD     -1.45190      0.400000           0   0.00000       0.00000    
     17651 TFA      168      TFA      O2       OD2C2A    1.45190       15.5994           0 -0.350000       2.39900    
     17652 TFA      168      TFA      DO2      DRUD     -1.45190      0.400000           0   0.00000       0.00000    
     17653 TFA      168      TFA      LPO11    LPD     -0.310000       0.00000          -1   0.00000       0.00000    
     17654 TFA      168      TFA      LPO12    LPD     -0.310000       0.00000          -1   0.00000       0.00000    
     17655 TFA      168      TFA      LPO21    LPD     -0.310000       0.00000          -1   0.00000       0.00000    
     17656 TFA      168      TFA      LPO22    LPD     -0.310000       0.00000          -1   0.00000       0.00000    
     17657 TFA      169      TFA      C1       CD2O2A    2.58500       11.6110           0 -0.800000      0.899000    
     17658 TFA      169      TFA      DC1      DRUD     -2.19500      0.400000           0   0.00000       0.00000    
     17659 TFA      169      TFA      C2       CD30A    0.450000       12.0110           0   0.00000       0.00000    
     17660 TFA      169      TFA      F1       FDA3      1.92530       18.5980           0 -0.750000       1.30000    
     17661 TFA      169      TFA      DF1      DRUD     -2.12530      0.400000           0   0.00000       0.00000    
     17662 TFA      169      TFA      F2       FDA3      1.92530       18.5980           0 -0.750000       1.30000    
     17663 TFA      169      TFA      DF2      DRUD     -2.12530      0.400000           0   0.00000       0.00000    
     17664 TFA      169      TFA      F3       FDA3      1.92530       18.5980           0 -0.750000       1.30000    
     17665 TFA      169      TFA      DF3      DRUD     -2.12530      0.400000           0   0.00000       0.00000    
     17666 TFA      169      TFA      O1       OD2C2A    1.45190       15.5994           0 -0.350000       2.39900    
     17667 TFA      169      TFA      DO1      DRUD     -1.45190      0.400000           0   0.00000       0.00000    
     17668 TFA      169      TFA      O2       OD2C2A    1.45190       15.5994           0 -0.350000       2.39900    
     17669 TFA      169      TFA      DO2      DRUD     -1.45190      0.400000           0   0.00000       0.00000    
     17670 TFA      169      TFA      LPO11    LPD     -0.310000       0.00000          -1   0.00000       0.00000    
     17671 TFA      169      TFA      LPO12    LPD     -0.310000       0.00000          -1   0.00000       0.00000    
     17672 TFA      169      TFA      LPO21    LPD     -0.310000       0.00000          -1   0.00000       0.00000    
     17673 TFA      169      TFA      LPO22    LPD     -0.310000       0.00000          -1   0.00000       0.00000    
     17674 TFA      170      TFA      C1       CD2O2A    2.58500       11.6110           0 -0.800000      0.899000    
     17675 TFA      170      TFA      DC1      DRUD     -2.19500      0.400000           0   0.00000       0.00000    
     17676 TFA      170      TFA      C2       CD30A    0.450000       12.0110           0   0.00000       0.00000    
     17677 TFA      170      TFA      F1       FDA3      1.92530       18.5980           0 -0.750000       1.30000    
     17678 TFA      170      TFA      DF1      DRUD     -2.12530      0.400000           0   0.00000       0.00000    
     17679 TFA      170      TFA      F2       FDA3      1.92530       18.5980           0 -0.750000       1.30000    
     17680 TFA      170      TFA      DF2      DRUD     -2.12530      0.400000           0   0.00000       0.00000    
     17681 TFA      170      TFA      F3       FDA3      1.92530       18.5980           0 -0.750000       1.30000    
     17682 TFA      170      TFA      DF3      DRUD     -2.12530      0.400000           0   0.00000       0.00000    
     17683 TFA      170      TFA      O1       OD2C2A    1.45190       15.5994           0 -0.350000       2.39900    
     17684 TFA      170      TFA      DO1      DRUD     -1.45190      0.400000           0   0.00000       0.00000    
     17685 TFA      170      TFA      O2       OD2C2A    1.45190       15.5994           0 -0.350000       2.39900    
     17686 TFA      170      TFA      DO2      DRUD     -1.45190      0.400000           0   0.00000       0.00000    
     17687 TFA      170      TFA      LPO11    LPD     -0.310000       0.00000          -1   0.00000       0.00000    
     17688 TFA      170      TFA      LPO12    LPD     -0.310000       0.00000          -1   0.00000       0.00000    
     17689 TFA      170      TFA      LPO21    LPD     -0.310000       0.00000          -1   0.00000       0.00000    
     17690 TFA      170      TFA      LPO22    LPD     -0.310000       0.00000          -1   0.00000       0.00000    
     17691 TFA      171      TFA      C1       CD2O2A    2.58500       11.6110           0 -0.800000      0.899000    
     17692 TFA      171      TFA      DC1      DRUD     -2.19500      0.400000           0   0.00000       0.00000    
     17693 TFA      171      TFA      C2       CD30A    0.450000       12.0110           0   0.00000       0.00000    
     17694 TFA      171      TFA      F1       FDA3      1.92530       18.5980           0 -0.750000       1.30000    
     17695 TFA      171      TFA      DF1      DRUD     -2.12530      0.400000           0   0.00000       0.00000    
     17696 TFA      171      TFA      F2       FDA3      1.92530       18.5980           0 -0.750000       1.30000    
     17697 TFA      171      TFA      DF2      DRUD     -2.12530      0.400000           0   0.00000       0.00000    
     17698 TFA      171      TFA      F3       FDA3      1.92530       18.5980           0 -0.750000       1.30000    
     17699 TFA      171      TFA      DF3      DRUD     -2.12530      0.400000           0   0.00000       0.00000    
     17700 TFA      171      TFA      O1       OD2C2A    1.45190       15.5994           0 -0.350000       2.39900    
     17701 TFA      171      TFA      DO1      DRUD     -1.45190      0.400000           0   0.00000       0.00000    
     17702 TFA      171      TFA      O2       OD2C2A    1.45190       15.5994           0 -0.350000       2.39900    
     17703 TFA      171      TFA      DO2      DRUD     -1.45190      0.400000           0   0.00000       0.00000    
     17704 TFA      171      TFA      LPO11    LPD     -0.310000       0.00000          -1   0.00000       0.00000    
     17705 TFA      171      TFA      LPO12    LPD     -0.310000       0.00000          -1   0.00000       0.00000    
     17706 TFA      171      TFA      LPO21    LPD     -0.310000       0.00000          -1   0.00000       0.00000    
     17707 TFA      171      TFA      LPO22    LPD     -0.310000       0.00000          -1   0.00000       0.00000    
     17708 TFA      172      TFA      C1       CD2O2A    2.58500       11.6110           0 -0.800000      0.899000    
     17709 TFA      172      TFA      DC1      DRUD     -2.19500      0.400000           0   0.00000       0.00000    
     17710 TFA      172      TFA      C2       CD30A    0.450000       12.0110           0   0.00000       0.00000    
     17711 TFA      172      TFA      F1       FDA3      1.92530       18.5980           0 -0.750000       1.30000    
     17712 TFA      172      TFA      DF1      DRUD     -2.12530      0.400000           0   0.00000       0.00000    
     17713 TFA      172      TFA      F2       FDA3      1.92530       18.5980           0 -0.750000       1.30000    
     17714 TFA      172      TFA      DF2      DRUD     -2.12530      0.400000           0   0.00000       0.00000    
     17715 TFA      172      TFA      F3       FDA3      1.92530       18.5980           0 -0.750000       1.30000    
     17716 TFA      172      TFA      DF3      DRUD     -2.12530      0.400000           0   0.00000       0.00000    
     17717 TFA      172      TFA      O1       OD2C2A    1.45190       15.5994           0 -0.350000       2.39900    
     17718 TFA      172      TFA      DO1      DRUD     -1.45190      0.400000           0   0.00000       0.00000    
     17719 TFA      172      TFA      O2       OD2C2A    1.45190       15.5994           0 -0.350000       2.39900    
     17720 TFA      172      TFA      DO2      DRUD     -1.45190      0.400000           0   0.00000       0.00000    
     17721 TFA      172      TFA      LPO11    LPD     -0.310000       0.00000          -1   0.00000       0.00000    
     17722 TFA      172      TFA      LPO12    LPD     -0.310000       0.00000          -1   0.00000       0.00000    
     17723 TFA      172      TFA      LPO21    LPD     -0.310000       0.00000          -1   0.00000       0.00000    
     17724 TFA      172      TFA      LPO22    LPD     -0.310000       0.00000          -1   0.00000       0.00000    
     17725 TFA      173      TFA      C1       CD2O2A    2.58500       11.6110           0 -0.800000      0.899000    
     17726 TFA      173      TFA      DC1      DRUD     -2.19500      0.400000           0   0.00000       0.00000    
     17727 TFA      173      TFA      C2       CD30A    0.450000       12.0110           0   0.00000       0.00000    
     17728 TFA      173      TFA      F1       FDA3      1.92530       18.5980           0 -0.750000       1.30000    
     17729 TFA      173      TFA      DF1      DRUD     -2.12530      0.400000           0   0.00000       0.00000    
     17730 TFA      173      TFA      F2       FDA3      1.92530       18.5980           0 -0.750000       1.30000    
     17731 TFA      173      TFA      DF2      DRUD     -2.12530      0.400000           0   0.00000       0.00000    
     17732 TFA      173      TFA      F3       FDA3      1.92530       18.5980           0 -0.750000       1.30000    
     17733 TFA      173      TFA      DF3      DRUD     -2.12530      0.400000           0   0.00000       0.00000    
     17734 TFA      173      TFA      O1       OD2C2A    1.45190       15.5994           0 -0.350000       2.39900    
     17735 TFA      173      TFA      DO1      DRUD     -1.45190      0.400000           0   0.00000       0.00000    
     17736 TFA      173      TFA      O2       OD2C2A    1.45190       15.5994           0 -0.350000       2.39900    
     17737 TFA      173      TFA      DO2      DRUD     -1.45190      0.400000           0   0.00000       0.00000    
     17738 TFA      173      TFA      LPO11    LPD     -0.310000       0.00000          -1   0.00000       0.00000    
     17739 TFA      173      TFA      LPO12    LPD     -0.310000       0.00000          -1   0.00000       0.00000    
     17740 TFA      173      TFA      LPO21    LPD     -0.310000       0.00000          -1   0.00000       0.00000    
     17741 TFA      173      TFA      LPO22    LPD     -0.310000       0.00000          -1   0.00000       0.00000    
     17742 TFA      174      TFA      C1       CD2O2A    2.58500       11.6110           0 -0.800000      0.899000    
     17743 TFA      174      TFA      DC1      DRUD     -2.19500      0.400000           0   0.00000       0.00000    
     17744 TFA      174      TFA      C2       CD30A    0.450000       12.0110           0   0.00000       0.00000    
     17745 TFA      174      TFA      F1       FDA3      1.92530       18.5980           0 -0.750000       1.30000    
     17746 TFA      174      TFA      DF1      DRUD     -2.12530      0.400000           0   0.00000       0.00000    
     17747 TFA      174      TFA      F2       FDA3      1.92530       18.5980           0 -0.750000       1.30000    
     17748 TFA      174      TFA      DF2      DRUD     -2.12530      0.400000           0   0.00000       0.00000    
     17749 TFA      174      TFA      F3       FDA3      1.92530       18.5980           0 -0.750000       1.30000    
     17750 TFA      174      TFA      DF3      DRUD     -2.12530      0.400000           0   0.00000       0.00000    
     17751 TFA      174      TFA      O1       OD2C2A    1.45190       15.5994           0 -0.350000       2.39900    
     17752 TFA      174      TFA      DO1      DRUD     -1.45190      0.400000           0   0.00000       0.00000    
     17753 TFA      174      TFA      O2       OD2C2A    1.45190       15.5994           0 -0.350000       2.39900    
     17754 TFA      174      TFA      DO2      DRUD     -1.45190      0.400000           0   0.00000       0.00000    
     17755 TFA      174      TFA      LPO11    LPD     -0.310000       0.00000          -1   0.00000       0.00000    
     17756 TFA      174      TFA      LPO12    LPD     -0.310000       0.00000          -1   0.00000       0.00000    
     17757 TFA      174      TFA      LPO21    LPD     -0.310000       0.00000          -1   0.00000       0.00000    
     17758 TFA      174      TFA      LPO22    LPD     -0.310000       0.00000          -1   0.00000       0.00000    
     17759 TFA      175      TFA      C1       CD2O2A    2.58500       11.6110           0 -0.800000      0.899000    
     17760 TFA      175      TFA      DC1      DRUD     -2.19500      0.400000           0   0.00000       0.00000    
     17761 TFA      175      TFA      C2       CD30A    0.450000       12.0110           0   0.00000       0.00000    
     17762 TFA      175      TFA      F1       FDA3      1.92530       18.5980           0 -0.750000       1.30000    
     17763 TFA      175      TFA      DF1      DRUD     -2.12530      0.400000           0   0.00000       0.00000    
     17764 TFA      175      TFA      F2       FDA3      1.92530       18.5980           0 -0.750000       1.30000    
     17765 TFA      175      TFA      DF2      DRUD     -2.12530      0.400000           0   0.00000       0.00000    
     17766 TFA      175      TFA      F3       FDA3      1.92530       18.5980           0 -0.750000       1.30000    
     17767 TFA      175      TFA      DF3      DRUD     -2.12530      0.400000           0   0.00000       0.00000    
     17768 TFA      175      TFA      O1       OD2C2A    1.45190       15.5994           0 -0.350000       2.39900    
     17769 TFA      175      TFA      DO1      DRUD     -1.45190      0.400000           0   0.00000       0.00000    
     17770 TFA      175      TFA      O2       OD2C2A    1.45190       15.5994           0 -0.350000       2.39900    
     17771 TFA      175      TFA      DO2      DRUD     -1.45190      0.400000           0   0.00000       0.00000    
     17772 TFA      175      TFA      LPO11    LPD     -0.310000       0.00000          -1   0.00000       0.00000    
     17773 TFA      175      TFA      LPO12    LPD     -0.310000       0.00000          -1   0.00000       0.00000    
     17774 TFA      175      TFA      LPO21    LPD     -0.310000       0.00000          -1   0.00000       0.00000    
     17775 TFA      175      TFA      LPO22    LPD     -0.310000       0.00000          -1   0.00000       0.00000    
     17776 TFA      176      TFA      C1       CD2O2A    2.58500       11.6110           0 -0.800000      0.899000    
     17777 TFA      176      TFA      DC1      DRUD     -2.19500      0.400000           0   0.00000       0.00000    
     17778 TFA      176      TFA      C2       CD30A    0.450000       12.0110           0   0.00000       0.00000    
     17779 TFA      176      TFA      F1       FDA3      1.92530       18.5980           0 -0.750000       1.30000    
     17780 TFA      176      TFA      DF1      DRUD     -2.12530      0.400000           0   0.00000       0.00000    
     17781 TFA      176      TFA      F2       FDA3      1.92530       18.5980           0 -0.750000       1.30000    
     17782 TFA      176      TFA      DF2      DRUD     -2.12530      0.400000           0   0.00000       0.00000    
     17783 TFA      176      TFA      F3       FDA3      1.92530       18.5980           0 -0.750000       1.30000    
     17784 TFA      176      TFA      DF3      DRUD     -2.12530      0.400000           0   0.00000       0.00000    
     17785 TFA      176      TFA      O1       OD2C2A    1.45190       15.5994           0 -0.350000       2.39900    
     17786 TFA      176      TFA      DO1      DRUD     -1.45190      0.400000           0   0.00000       0.00000    
     17787 TFA      176      TFA      O2       OD2C2A    1.45190       15.5994           0 -0.350000       2.39900    
     17788 TFA      176      TFA      DO2      DRUD     -1.45190      0.400000           0   0.00000       0.00000    
     17789 TFA      176      TFA      LPO11    LPD     -0.310000       0.00000          -1   0.00000       0.00000    
     17790 TFA      176      TFA      LPO12    LPD     -0.310000       0.00000          -1   0.00000       0.00000    
     17791 TFA      176      TFA      LPO21    LPD     -0.310000       0.00000          -1   0.00000       0.00000    
     17792 TFA      176      TFA      LPO22    LPD     -0.310000       0.00000          -1   0.00000       0.00000    
     17793 TFA      177      TFA      C1       CD2O2A    2.58500       11.6110           0 -0.800000      0.899000    
     17794 TFA      177      TFA      DC1      DRUD     -2.19500      0.400000           0   0.00000       0.00000    
     17795 TFA      177      TFA      C2       CD30A    0.450000       12.0110           0   0.00000       0.00000    
     17796 TFA      177      TFA      F1       FDA3      1.92530       18.5980           0 -0.750000       1.30000    
     17797 TFA      177      TFA      DF1      DRUD     -2.12530      0.400000           0   0.00000       0.00000    
     17798 TFA      177      TFA      F2       FDA3      1.92530       18.5980           0 -0.750000       1.30000    
     17799 TFA      177      TFA      DF2      DRUD     -2.12530      0.400000           0   0.00000       0.00000    
     17800 TFA      177      TFA      F3       FDA3      1.92530       18.5980           0 -0.750000       1.30000    
     17801 TFA      177      TFA      DF3      DRUD     -2.12530      0.400000           0   0.00000       0.00000    
     17802 TFA      177      TFA      O1       OD2C2A    1.45190       15.5994           0 -0.350000       2.39900    
     17803 TFA      177      TFA      DO1      DRUD     -1.45190      0.400000           0   0.00000       0.00000    
     17804 TFA      177      TFA      O2       OD2C2A    1.45190       15.5994           0 -0.350000       2.39900    
     17805 TFA      177      TFA      DO2      DRUD     -1.45190      0.400000           0   0.00000       0.00000    
     17806 TFA      177      TFA      LPO11    LPD     -0.310000       0.00000          -1   0.00000       0.00000    
     17807 TFA      177      TFA      LPO12    LPD     -0.310000       0.00000          -1   0.00000       0.00000    
     17808 TFA      177      TFA      LPO21    LPD     -0.310000       0.00000          -1   0.00000       0.00000    
     17809 TFA      177      TFA      LPO22    LPD     -0.310000       0.00000          -1   0.00000       0.00000    
     17810 TFA      178      TFA      C1       CD2O2A    2.58500       11.6110           0 -0.800000      0.899000    
     17811 TFA      178      TFA      DC1      DRUD     -2.19500      0.400000           0   0.00000       0.00000    
     17812 TFA      178      TFA      C2       CD30A    0.450000       12.0110           0   0.00000       0.00000    
     17813 TFA      178      TFA      F1       FDA3      1.92530       18.5980           0 -0.750000       1.30000    
     17814 TFA      178      TFA      DF1      DRUD     -2.12530      0.400000           0   0.00000       0.00000    
     17815 TFA      178      TFA      F2       FDA3      1.92530       18.5980           0 -0.750000       1.30000    
     17816 TFA      178      TFA      DF2      DRUD     -2.12530      0.400000           0   0.00000       0.00000    
     17817 TFA      178      TFA      F3       FDA3      1.92530       18.5980           0 -0.750000       1.30000    
     17818 TFA      178      TFA      DF3      DRUD     -2.12530      0.400000           0   0.00000       0.00000    
     17819 TFA      178      TFA      O1       OD2C2A    1.45190       15.5994           0 -0.350000       2.39900    
     17820 TFA      178      TFA      DO1      DRUD     -1.45190      0.400000           0   0.00000       0.00000    
     17821 TFA      178      TFA      O2       OD2C2A    1.45190       15.5994           0 -0.350000       2.39900    
     17822 TFA      178      TFA      DO2      DRUD     -1.45190      0.400000           0   0.00000       0.00000    
     17823 TFA      178      TFA      LPO11    LPD     -0.310000       0.00000          -1   0.00000       0.00000    
     17824 TFA      178      TFA      LPO12    LPD     -0.310000       0.00000          -1   0.00000       0.00000    
     17825 TFA      178      TFA      LPO21    LPD     -0.310000       0.00000          -1   0.00000       0.00000    
     17826 TFA      178      TFA      LPO22    LPD     -0.310000       0.00000          -1   0.00000       0.00000    
     17827 TFA      179      TFA      C1       CD2O2A    2.58500       11.6110           0 -0.800000      0.899000    
     17828 TFA      179      TFA      DC1      DRUD     -2.19500      0.400000           0   0.00000       0.00000    
     17829 TFA      179      TFA      C2       CD30A    0.450000       12.0110           0   0.00000       0.00000    
     17830 TFA      179      TFA      F1       FDA3      1.92530       18.5980           0 -0.750000       1.30000    
     17831 TFA      179      TFA      DF1      DRUD     -2.12530      0.400000           0   0.00000       0.00000    
     17832 TFA      179      TFA      F2       FDA3      1.92530       18.5980           0 -0.750000       1.30000    
     17833 TFA      179      TFA      DF2      DRUD     -2.12530      0.400000           0   0.00000       0.00000    
     17834 TFA      179      TFA      F3       FDA3      1.92530       18.5980           0 -0.750000       1.30000    
     17835 TFA      179      TFA      DF3      DRUD     -2.12530      0.400000           0   0.00000       0.00000    
     17836 TFA      179      TFA      O1       OD2C2A    1.45190       15.5994           0 -0.350000       2.39900    
     17837 TFA      179      TFA      DO1      DRUD     -1.45190      0.400000           0   0.00000       0.00000    
     17838 TFA      179      TFA      O2       OD2C2A    1.45190       15.5994           0 -0.350000       2.39900    
     17839 TFA      179      TFA      DO2      DRUD     -1.45190      0.400000           0   0.00000       0.00000    
     17840 TFA      179      TFA      LPO11    LPD     -0.310000       0.00000          -1   0.00000       0.00000    
     17841 TFA      179      TFA      LPO12    LPD     -0.310000       0.00000          -1   0.00000       0.00000    
     17842 TFA      179      TFA      LPO21    LPD     -0.310000       0.00000          -1   0.00000       0.00000    
     17843 TFA      179      TFA      LPO22    LPD     -0.310000       0.00000          -1   0.00000       0.00000    
     17844 TFA      180      TFA      C1       CD2O2A    2.58500       11.6110           0 -0.800000      0.899000    
     17845 TFA      180      TFA      DC1      DRUD     -2.19500      0.400000           0   0.00000       0.00000    
     17846 TFA      180      TFA      C2       CD30A    0.450000       12.0110           0   0.00000       0.00000    
     17847 TFA      180      TFA      F1       FDA3      1.92530       18.5980           0 -0.750000       1.30000    
     17848 TFA      180      TFA      DF1      DRUD     -2.12530      0.400000           0   0.00000       0.00000    
     17849 TFA      180      TFA      F2       FDA3      1.92530       18.5980           0 -0.750000       1.30000    
     17850 TFA      180      TFA      DF2      DRUD     -2.12530      0.400000           0   0.00000       0.00000    
     17851 TFA      180      TFA      F3       FDA3      1.92530       18.5980           0 -0.750000       1.30000    
     17852 TFA      180      TFA      DF3      DRUD     -2.12530      0.400000           0   0.00000       0.00000    
     17853 TFA      180      TFA      O1       OD2C2A    1.45190       15.5994           0 -0.350000       2.39900    
     17854 TFA      180      TFA      DO1      DRUD     -1.45190      0.400000           0   0.00000       0.00000    
     17855 TFA      180      TFA      O2       OD2C2A    1.45190       15.5994           0 -0.350000       2.39900    
     17856 TFA      180      TFA      DO2      DRUD     -1.45190      0.400000           0   0.00000       0.00000    
     17857 TFA      180      TFA      LPO11    LPD     -0.310000       0.00000          -1   0.00000       0.00000    
     17858 TFA      180      TFA      LPO12    LPD     -0.310000       0.00000          -1   0.00000       0.00000    
     17859 TFA      180      TFA      LPO21    LPD     -0.310000       0.00000          -1   0.00000       0.00000    
     17860 TFA      180      TFA      LPO22    LPD     -0.310000       0.00000          -1   0.00000       0.00000    
     17861 TFA      181      TFA      C1       CD2O2A    2.58500       11.6110           0 -0.800000      0.899000    
     17862 TFA      181      TFA      DC1      DRUD     -2.19500      0.400000           0   0.00000       0.00000    
     17863 TFA      181      TFA      C2       CD30A    0.450000       12.0110           0   0.00000       0.00000    
     17864 TFA      181      TFA      F1       FDA3      1.92530       18.5980           0 -0.750000       1.30000    
     17865 TFA      181      TFA      DF1      DRUD     -2.12530      0.400000           0   0.00000       0.00000    
     17866 TFA      181      TFA      F2       FDA3      1.92530       18.5980           0 -0.750000       1.30000    
     17867 TFA      181      TFA      DF2      DRUD     -2.12530      0.400000           0   0.00000       0.00000    
     17868 TFA      181      TFA      F3       FDA3      1.92530       18.5980           0 -0.750000       1.30000    
     17869 TFA      181      TFA      DF3      DRUD     -2.12530      0.400000           0   0.00000       0.00000    
     17870 TFA      181      TFA      O1       OD2C2A    1.45190       15.5994           0 -0.350000       2.39900    
     17871 TFA      181      TFA      DO1      DRUD     -1.45190      0.400000           0   0.00000       0.00000    
     17872 TFA      181      TFA      O2       OD2C2A    1.45190       15.5994           0 -0.350000       2.39900    
     17873 TFA      181      TFA      DO2      DRUD     -1.45190      0.400000           0   0.00000       0.00000    
     17874 TFA      181      TFA      LPO11    LPD     -0.310000       0.00000          -1   0.00000       0.00000    
     17875 TFA      181      TFA      LPO12    LPD     -0.310000       0.00000          -1   0.00000       0.00000    
     17876 TFA      181      TFA      LPO21    LPD     -0.310000       0.00000          -1   0.00000       0.00000    
     17877 TFA      181      TFA      LPO22    LPD     -0.310000       0.00000          -1   0.00000       0.00000    
     17878 TFA      182      TFA      C1       CD2O2A    2.58500       11.6110           0 -0.800000      0.899000    
     17879 TFA      182      TFA      DC1      DRUD     -2.19500      0.400000           0   0.00000       0.00000    
     17880 TFA      182      TFA      C2       CD30A    0.450000       12.0110           0   0.00000       0.00000    
     17881 TFA      182      TFA      F1       FDA3      1.92530       18.5980           0 -0.750000       1.30000    
     17882 TFA      182      TFA      DF1      DRUD     -2.12530      0.400000           0   0.00000       0.00000    
     17883 TFA      182      TFA      F2       FDA3      1.92530       18.5980           0 -0.750000       1.30000    
     17884 TFA      182      TFA      DF2      DRUD     -2.12530      0.400000           0   0.00000       0.00000    
     17885 TFA      182      TFA      F3       FDA3      1.92530       18.5980           0 -0.750000       1.30000    
     17886 TFA      182      TFA      DF3      DRUD     -2.12530      0.400000           0   0.00000       0.00000    
     17887 TFA      182      TFA      O1       OD2C2A    1.45190       15.5994           0 -0.350000       2.39900    
     17888 TFA      182      TFA      DO1      DRUD     -1.45190      0.400000           0   0.00000       0.00000    
     17889 TFA      182      TFA      O2       OD2C2A    1.45190       15.5994           0 -0.350000       2.39900    
     17890 TFA      182      TFA      DO2      DRUD     -1.45190      0.400000           0   0.00000       0.00000    
     17891 TFA      182      TFA      LPO11    LPD     -0.310000       0.00000          -1   0.00000       0.00000    
     17892 TFA      182      TFA      LPO12    LPD     -0.310000       0.00000          -1   0.00000       0.00000    
     17893 TFA      182      TFA      LPO21    LPD     -0.310000       0.00000          -1   0.00000       0.00000    
     17894 TFA      182      TFA      LPO22    LPD     -0.310000       0.00000          -1   0.00000       0.00000    
     17895 TFA      183      TFA      C1       CD2O2A    2.58500       11.6110           0 -0.800000      0.899000    
     17896 TFA      183      TFA      DC1      DRUD     -2.19500      0.400000           0   0.00000       0.00000    
     17897 TFA      183      TFA      C2       CD30A    0.450000       12.0110           0   0.00000       0.00000    
     17898 TFA      183      TFA      F1       FDA3      1.92530       18.5980           0 -0.750000       1.30000    
     17899 TFA      183      TFA      DF1      DRUD     -2.12530      0.400000           0   0.00000       0.00000    
     17900 TFA      183      TFA      F2       FDA3      1.92530       18.5980           0 -0.750000       1.30000    
     17901 TFA      183      TFA      DF2      DRUD     -2.12530      0.400000           0   0.00000       0.00000    
     17902 TFA      183      TFA      F3       FDA3      1.92530       18.5980           0 -0.750000       1.30000    
     17903 TFA      183      TFA      DF3      DRUD     -2.12530      0.400000           0   0.00000       0.00000    
     17904 TFA      183      TFA      O1       OD2C2A    1.45190       15.5994           0 -0.350000       2.39900    
     17905 TFA      183      TFA      DO1      DRUD     -1.45190      0.400000           0   0.00000       0.00000    
     17906 TFA      183      TFA      O2       OD2C2A    1.45190       15.5994           0 -0.350000       2.39900    
     17907 TFA      183      TFA      DO2      DRUD     -1.45190      0.400000           0   0.00000       0.00000    
     17908 TFA      183      TFA      LPO11    LPD     -0.310000       0.00000          -1   0.00000       0.00000    
     17909 TFA      183      TFA      LPO12    LPD     -0.310000       0.00000          -1   0.00000       0.00000    
     17910 TFA      183      TFA      LPO21    LPD     -0.310000       0.00000          -1   0.00000       0.00000    
     17911 TFA      183      TFA      LPO22    LPD     -0.310000       0.00000          -1   0.00000       0.00000    
     17912 TFA      184      TFA      C1       CD2O2A    2.58500       11.6110           0 -0.800000      0.899000    
     17913 TFA      184      TFA      DC1      DRUD     -2.19500      0.400000           0   0.00000       0.00000    
     17914 TFA      184      TFA      C2       CD30A    0.450000       12.0110           0   0.00000       0.00000    
     17915 TFA      184      TFA      F1       FDA3      1.92530       18.5980           0 -0.750000       1.30000    
     17916 TFA      184      TFA      DF1      DRUD     -2.12530      0.400000           0   0.00000       0.00000    
     17917 TFA      184      TFA      F2       FDA3      1.92530       18.5980           0 -0.750000       1.30000    
     17918 TFA      184      TFA      DF2      DRUD     -2.12530      0.400000           0   0.00000       0.00000    
     17919 TFA      184      TFA      F3       FDA3      1.92530       18.5980           0 -0.750000       1.30000    
     17920 TFA      184      TFA      DF3      DRUD     -2.12530      0.400000           0   0.00000       0.00000    
     17921 TFA      184      TFA      O1       OD2C2A    1.45190       15.5994           0 -0.350000       2.39900    
     17922 TFA      184      TFA      DO1      DRUD     -1.45190      0.400000           0   0.00000       0.00000    
     17923 TFA      184      TFA      O2       OD2C2A    1.45190       15.5994           0 -0.350000       2.39900    
     17924 TFA      184      TFA      DO2      DRUD     -1.45190      0.400000           0   0.00000       0.00000    
     17925 TFA      184      TFA      LPO11    LPD     -0.310000       0.00000          -1   0.00000       0.00000    
     17926 TFA      184      TFA      LPO12    LPD     -0.310000       0.00000          -1   0.00000       0.00000    
     17927 TFA      184      TFA      LPO21    LPD     -0.310000       0.00000          -1   0.00000       0.00000    
     17928 TFA      184      TFA      LPO22    LPD     -0.310000       0.00000          -1   0.00000       0.00000    
     17929 TFA      185      TFA      C1       CD2O2A    2.58500       11.6110           0 -0.800000      0.899000    
     17930 TFA      185      TFA      DC1      DRUD     -2.19500      0.400000           0   0.00000       0.00000    
     17931 TFA      185      TFA      C2       CD30A    0.450000       12.0110           0   0.00000       0.00000    
     17932 TFA      185      TFA      F1       FDA3      1.92530       18.5980           0 -0.750000       1.30000    
     17933 TFA      185      TFA      DF1      DRUD     -2.12530      0.400000           0   0.00000       0.00000    
     17934 TFA      185      TFA      F2       FDA3      1.92530       18.5980           0 -0.750000       1.30000    
     17935 TFA      185      TFA      DF2      DRUD     -2.12530      0.400000           0   0.00000       0.00000    
     17936 TFA      185      TFA      F3       FDA3      1.92530       18.5980           0 -0.750000       1.30000    
     17937 TFA      185      TFA      DF3      DRUD     -2.12530      0.400000           0   0.00000       0.00000    
     17938 TFA      185      TFA      O1       OD2C2A    1.45190       15.5994           0 -0.350000       2.39900    
     17939 TFA      185      TFA      DO1      DRUD     -1.45190      0.400000           0   0.00000       0.00000    
     17940 TFA      185      TFA      O2       OD2C2A    1.45190       15.5994           0 -0.350000       2.39900    
     17941 TFA      185      TFA      DO2      DRUD     -1.45190      0.400000           0   0.00000       0.00000    
     17942 TFA      185      TFA      LPO11    LPD     -0.310000       0.00000          -1   0.00000       0.00000    
     17943 TFA      185      TFA      LPO12    LPD     -0.310000       0.00000          -1   0.00000       0.00000    
     17944 TFA      185      TFA      LPO21    LPD     -0.310000       0.00000          -1   0.00000       0.00000    
     17945 TFA      185      TFA      LPO22    LPD     -0.310000       0.00000          -1   0.00000       0.00000    
     17946 TFA      186      TFA      C1       CD2O2A    2.58500       11.6110           0 -0.800000      0.899000    
     17947 TFA      186      TFA      DC1      DRUD     -2.19500      0.400000           0   0.00000       0.00000    
     17948 TFA      186      TFA      C2       CD30A    0.450000       12.0110           0   0.00000       0.00000    
     17949 TFA      186      TFA      F1       FDA3      1.92530       18.5980           0 -0.750000       1.30000    
     17950 TFA      186      TFA      DF1      DRUD     -2.12530      0.400000           0   0.00000       0.00000    
     17951 TFA      186      TFA      F2       FDA3      1.92530       18.5980           0 -0.750000       1.30000    
     17952 TFA      186      TFA      DF2      DRUD     -2.12530      0.400000           0   0.00000       0.00000    
     17953 TFA      186      TFA      F3       FDA3      1.92530       18.5980           0 -0.750000       1.30000    
     17954 TFA      186      TFA      DF3      DRUD     -2.12530      0.400000           0   0.00000       0.00000    
     17955 TFA      186      TFA      O1       OD2C2A    1.45190       15.5994           0 -0.350000       2.39900    
     17956 TFA      186      TFA      DO1      DRUD     -1.45190      0.400000           0   0.00000       0.00000    
     17957 TFA      186      TFA      O2       OD2C2A    1.45190       15.5994           0 -0.350000       2.39900    
     17958 TFA      186      TFA      DO2      DRUD     -1.45190      0.400000           0   0.00000       0.00000    
     17959 TFA      186      TFA      LPO11    LPD     -0.310000       0.00000          -1   0.00000       0.00000    
     17960 TFA      186      TFA      LPO12    LPD     -0.310000       0.00000          -1   0.00000       0.00000    
     17961 TFA      186      TFA      LPO21    LPD     -0.310000       0.00000          -1   0.00000       0.00000    
     17962 TFA      186      TFA      LPO22    LPD     -0.310000       0.00000          -1   0.00000       0.00000    
     17963 TFA      187      TFA      C1       CD2O2A    2.58500       11.6110           0 -0.800000      0.899000    
     17964 TFA      187      TFA      DC1      DRUD     -2.19500      0.400000           0   0.00000       0.00000    
     17965 TFA      187      TFA      C2       CD30A    0.450000       12.0110           0   0.00000       0.00000    
     17966 TFA      187      TFA      F1       FDA3      1.92530       18.5980           0 -0.750000       1.30000    
     17967 TFA      187      TFA      DF1      DRUD     -2.12530      0.400000           0   0.00000       0.00000    
     17968 TFA      187      TFA      F2       FDA3      1.92530       18.5980           0 -0.750000       1.30000    
     17969 TFA      187      TFA      DF2      DRUD     -2.12530      0.400000           0   0.00000       0.00000    
     17970 TFA      187      TFA      F3       FDA3      1.92530       18.5980           0 -0.750000       1.30000    
     17971 TFA      187      TFA      DF3      DRUD     -2.12530      0.400000           0   0.00000       0.00000    
     17972 TFA      187      TFA      O1       OD2C2A    1.45190       15.5994           0 -0.350000       2.39900    
     17973 TFA      187      TFA      DO1      DRUD     -1.45190      0.400000           0   0.00000       0.00000    
     17974 TFA      187      TFA      O2       OD2C2A    1.45190       15.5994           0 -0.350000       2.39900    
     17975 TFA      187      TFA      DO2      DRUD     -1.45190      0.400000           0   0.00000       0.00000    
     17976 TFA      187      TFA      LPO11    LPD     -0.310000       0.00000          -1   0.00000       0.00000    
     17977 TFA      187      TFA      LPO12    LPD     -0.310000       0.00000          -1   0.00000       0.00000    
     17978 TFA      187      TFA      LPO21    LPD     -0.310000       0.00000          -1   0.00000       0.00000    
     17979 TFA      187      TFA      LPO22    LPD     -0.310000       0.00000          -1   0.00000       0.00000    
     17980 TFA      188      TFA      C1       CD2O2A    2.58500       11.6110           0 -0.800000      0.899000    
     17981 TFA      188      TFA      DC1      DRUD     -2.19500      0.400000           0   0.00000       0.00000    
     17982 TFA      188      TFA      C2       CD30A    0.450000       12.0110           0   0.00000       0.00000    
     17983 TFA      188      TFA      F1       FDA3      1.92530       18.5980           0 -0.750000       1.30000    
     17984 TFA      188      TFA      DF1      DRUD     -2.12530      0.400000           0   0.00000       0.00000    
     17985 TFA      188      TFA      F2       FDA3      1.92530       18.5980           0 -0.750000       1.30000    
     17986 TFA      188      TFA      DF2      DRUD     -2.12530      0.400000           0   0.00000       0.00000    
     17987 TFA      188      TFA      F3       FDA3      1.92530       18.5980           0 -0.750000       1.30000    
     17988 TFA      188      TFA      DF3      DRUD     -2.12530      0.400000           0   0.00000       0.00000    
     17989 TFA      188      TFA      O1       OD2C2A    1.45190       15.5994           0 -0.350000       2.39900    
     17990 TFA      188      TFA      DO1      DRUD     -1.45190      0.400000           0   0.00000       0.00000    
     17991 TFA      188      TFA      O2       OD2C2A    1.45190       15.5994           0 -0.350000       2.39900    
     17992 TFA      188      TFA      DO2      DRUD     -1.45190      0.400000           0   0.00000       0.00000    
     17993 TFA      188      TFA      LPO11    LPD     -0.310000       0.00000          -1   0.00000       0.00000    
     17994 TFA      188      TFA      LPO12    LPD     -0.310000       0.00000          -1   0.00000       0.00000    
     17995 TFA      188      TFA      LPO21    LPD     -0.310000       0.00000          -1   0.00000       0.00000    
     17996 TFA      188      TFA      LPO22    LPD     -0.310000       0.00000          -1   0.00000       0.00000    
     17997 TFA      189      TFA      C1       CD2O2A    2.58500       11.6110           0 -0.800000      0.899000    
     17998 TFA      189      TFA      DC1      DRUD     -2.19500      0.400000           0   0.00000       0.00000    
     17999 TFA      189      TFA      C2       CD30A    0.450000       12.0110           0   0.00000       0.00000    
     18000 TFA      189      TFA      F1       FDA3      1.92530       18.5980           0 -0.750000       1.30000    
     18001 TFA      189      TFA      DF1      DRUD     -2.12530      0.400000           0   0.00000       0.00000    
     18002 TFA      189      TFA      F2       FDA3      1.92530       18.5980           0 -0.750000       1.30000    
     18003 TFA      189      TFA      DF2      DRUD     -2.12530      0.400000           0   0.00000       0.00000    
     18004 TFA      189      TFA      F3       FDA3      1.92530       18.5980           0 -0.750000       1.30000    
     18005 TFA      189      TFA      DF3      DRUD     -2.12530      0.400000           0   0.00000       0.00000    
     18006 TFA      189      TFA      O1       OD2C2A    1.45190       15.5994           0 -0.350000       2.39900    
     18007 TFA      189      TFA      DO1      DRUD     -1.45190      0.400000           0   0.00000       0.00000    
     18008 TFA      189      TFA      O2       OD2C2A    1.45190       15.5994           0 -0.350000       2.39900    
     18009 TFA      189      TFA      DO2      DRUD     -1.45190      0.400000           0   0.00000       0.00000    
     18010 TFA      189      TFA      LPO11    LPD     -0.310000       0.00000          -1   0.00000       0.00000    
     18011 TFA      189      TFA      LPO12    LPD     -0.310000       0.00000          -1   0.00000       0.00000    
     18012 TFA      189      TFA      LPO21    LPD     -0.310000       0.00000          -1   0.00000       0.00000    
     18013 TFA      189      TFA      LPO22    LPD     -0.310000       0.00000          -1   0.00000       0.00000    
     18014 TFA      190      TFA      C1       CD2O2A    2.58500       11.6110           0 -0.800000      0.899000    
     18015 TFA      190      TFA      DC1      DRUD     -2.19500      0.400000           0   0.00000       0.00000    
     18016 TFA      190      TFA      C2       CD30A    0.450000       12.0110           0   0.00000       0.00000    
     18017 TFA      190      TFA      F1       FDA3      1.92530       18.5980           0 -0.750000       1.30000    
     18018 TFA      190      TFA      DF1      DRUD     -2.12530      0.400000           0   0.00000       0.00000    
     18019 TFA      190      TFA      F2       FDA3      1.92530       18.5980           0 -0.750000       1.30000    
     18020 TFA      190      TFA      DF2      DRUD     -2.12530      0.400000           0   0.00000       0.00000    
     18021 TFA      190      TFA      F3       FDA3      1.92530       18.5980           0 -0.750000       1.30000    
     18022 TFA      190      TFA      DF3      DRUD     -2.12530      0.400000           0   0.00000       0.00000    
     18023 TFA      190      TFA      O1       OD2C2A    1.45190       15.5994           0 -0.350000       2.39900    
     18024 TFA      190      TFA      DO1      DRUD     -1.45190      0.400000           0   0.00000       0.00000    
     18025 TFA      190      TFA      O2       OD2C2A    1.45190       15.5994           0 -0.350000       2.39900    
     18026 TFA      190      TFA      DO2      DRUD     -1.45190      0.400000           0   0.00000       0.00000    
     18027 TFA      190      TFA      LPO11    LPD     -0.310000       0.00000          -1   0.00000       0.00000    
     18028 TFA      190      TFA      LPO12    LPD     -0.310000       0.00000          -1   0.00000       0.00000    
     18029 TFA      190      TFA      LPO21    LPD     -0.310000       0.00000          -1   0.00000       0.00000    
     18030 TFA      190      TFA      LPO22    LPD     -0.310000       0.00000          -1   0.00000       0.00000    
     18031 TFA      191      TFA      C1       CD2O2A    2.58500       11.6110           0 -0.800000      0.899000    
     18032 TFA      191      TFA      DC1      DRUD     -2.19500      0.400000           0   0.00000       0.00000    
     18033 TFA      191      TFA      C2       CD30A    0.450000       12.0110           0   0.00000       0.00000    
     18034 TFA      191      TFA      F1       FDA3      1.92530       18.5980           0 -0.750000       1.30000    
     18035 TFA      191      TFA      DF1      DRUD     -2.12530      0.400000           0   0.00000       0.00000    
     18036 TFA      191      TFA      F2       FDA3      1.92530       18.5980           0 -0.750000       1.30000    
     18037 TFA      191      TFA      DF2      DRUD     -2.12530      0.400000           0   0.00000       0.00000    
     18038 TFA      191      TFA      F3       FDA3      1.92530       18.5980           0 -0.750000       1.30000    
     18039 TFA      191      TFA      DF3      DRUD     -2.12530      0.400000           0   0.00000       0.00000    
     18040 TFA      191      TFA      O1       OD2C2A    1.45190       15.5994           0 -0.350000       2.39900    
     18041 TFA      191      TFA      DO1      DRUD     -1.45190      0.400000           0   0.00000       0.00000    
     18042 TFA      191      TFA      O2       OD2C2A    1.45190       15.5994           0 -0.350000       2.39900    
     18043 TFA      191      TFA      DO2      DRUD     -1.45190      0.400000           0   0.00000       0.00000    
     18044 TFA      191      TFA      LPO11    LPD     -0.310000       0.00000          -1   0.00000       0.00000    
     18045 TFA      191      TFA      LPO12    LPD     -0.310000       0.00000          -1   0.00000       0.00000    
     18046 TFA      191      TFA      LPO21    LPD     -0.310000       0.00000          -1   0.00000       0.00000    
     18047 TFA      191      TFA      LPO22    LPD     -0.310000       0.00000          -1   0.00000       0.00000    
     18048 TFA      192      TFA      C1       CD2O2A    2.58500       11.6110           0 -0.800000      0.899000    
     18049 TFA      192      TFA      DC1      DRUD     -2.19500      0.400000           0   0.00000       0.00000    
     18050 TFA      192      TFA      C2       CD30A    0.450000       12.0110           0   0.00000       0.00000    
     18051 TFA      192      TFA      F1       FDA3      1.92530       18.5980           0 -0.750000       1.30000    
     18052 TFA      192      TFA      DF1      DRUD     -2.12530      0.400000           0   0.00000       0.00000    
     18053 TFA      192      TFA      F2       FDA3      1.92530       18.5980           0 -0.750000       1.30000    
     18054 TFA      192      TFA      DF2      DRUD     -2.12530      0.400000           0   0.00000       0.00000    
     18055 TFA      192      TFA      F3       FDA3      1.92530       18.5980           0 -0.750000       1.30000    
     18056 TFA      192      TFA      DF3      DRUD     -2.12530      0.400000           0   0.00000       0.00000    
     18057 TFA      192      TFA      O1       OD2C2A    1.45190       15.5994           0 -0.350000       2.39900    
     18058 TFA      192      TFA      DO1      DRUD     -1.45190      0.400000           0   0.00000       0.00000    
     18059 TFA      192      TFA      O2       OD2C2A    1.45190       15.5994           0 -0.350000       2.39900    
     18060 TFA      192      TFA      DO2      DRUD     -1.45190      0.400000           0   0.00000       0.00000    
     18061 TFA      192      TFA      LPO11    LPD     -0.310000       0.00000          -1   0.00000       0.00000    
     18062 TFA      192      TFA      LPO12    LPD     -0.310000       0.00000          -1   0.00000       0.00000    
     18063 TFA      192      TFA      LPO21    LPD     -0.310000       0.00000          -1   0.00000       0.00000    
     18064 TFA      192      TFA      LPO22    LPD     -0.310000       0.00000          -1   0.00000       0.00000    
     18065 TFA      193      TFA      C1       CD2O2A    2.58500       11.6110           0 -0.800000      0.899000    
     18066 TFA      193      TFA      DC1      DRUD     -2.19500      0.400000           0   0.00000       0.00000    
     18067 TFA      193      TFA      C2       CD30A    0.450000       12.0110           0   0.00000       0.00000    
     18068 TFA      193      TFA      F1       FDA3      1.92530       18.5980           0 -0.750000       1.30000    
     18069 TFA      193      TFA      DF1      DRUD     -2.12530      0.400000           0   0.00000       0.00000    
     18070 TFA      193      TFA      F2       FDA3      1.92530       18.5980           0 -0.750000       1.30000    
     18071 TFA      193      TFA      DF2      DRUD     -2.12530      0.400000           0   0.00000       0.00000    
     18072 TFA      193      TFA      F3       FDA3      1.92530       18.5980           0 -0.750000       1.30000    
     18073 TFA      193      TFA      DF3      DRUD     -2.12530      0.400000           0   0.00000       0.00000    
     18074 TFA      193      TFA      O1       OD2C2A    1.45190       15.5994           0 -0.350000       2.39900    
     18075 TFA      193      TFA      DO1      DRUD     -1.45190      0.400000           0   0.00000       0.00000    
     18076 TFA      193      TFA      O2       OD2C2A    1.45190       15.5994           0 -0.350000       2.39900    
     18077 TFA      193      TFA      DO2      DRUD     -1.45190      0.400000           0   0.00000       0.00000    
     18078 TFA      193      TFA      LPO11    LPD     -0.310000       0.00000          -1   0.00000       0.00000    
     18079 TFA      193      TFA      LPO12    LPD     -0.310000       0.00000          -1   0.00000       0.00000    
     18080 TFA      193      TFA      LPO21    LPD     -0.310000       0.00000          -1   0.00000       0.00000    
     18081 TFA      193      TFA      LPO22    LPD     -0.310000       0.00000          -1   0.00000       0.00000    
     18082 TFA      194      TFA      C1       CD2O2A    2.58500       11.6110           0 -0.800000      0.899000    
     18083 TFA      194      TFA      DC1      DRUD     -2.19500      0.400000           0   0.00000       0.00000    
     18084 TFA      194      TFA      C2       CD30A    0.450000       12.0110           0   0.00000       0.00000    
     18085 TFA      194      TFA      F1       FDA3      1.92530       18.5980           0 -0.750000       1.30000    
     18086 TFA      194      TFA      DF1      DRUD     -2.12530      0.400000           0   0.00000       0.00000    
     18087 TFA      194      TFA      F2       FDA3      1.92530       18.5980           0 -0.750000       1.30000    
     18088 TFA      194      TFA      DF2      DRUD     -2.12530      0.400000           0   0.00000       0.00000    
     18089 TFA      194      TFA      F3       FDA3      1.92530       18.5980           0 -0.750000       1.30000    
     18090 TFA      194      TFA      DF3      DRUD     -2.12530      0.400000           0   0.00000       0.00000    
     18091 TFA      194      TFA      O1       OD2C2A    1.45190       15.5994           0 -0.350000       2.39900    
     18092 TFA      194      TFA      DO1      DRUD     -1.45190      0.400000           0   0.00000       0.00000    
     18093 TFA      194      TFA      O2       OD2C2A    1.45190       15.5994           0 -0.350000       2.39900    
     18094 TFA      194      TFA      DO2      DRUD     -1.45190      0.400000           0   0.00000       0.00000    
     18095 TFA      194      TFA      LPO11    LPD     -0.310000       0.00000          -1   0.00000       0.00000    
     18096 TFA      194      TFA      LPO12    LPD     -0.310000       0.00000          -1   0.00000       0.00000    
     18097 TFA      194      TFA      LPO21    LPD     -0.310000       0.00000          -1   0.00000       0.00000    
     18098 TFA      194      TFA      LPO22    LPD     -0.310000       0.00000          -1   0.00000       0.00000    
     18099 TFA      195      TFA      C1       CD2O2A    2.58500       11.6110           0 -0.800000      0.899000    
     18100 TFA      195      TFA      DC1      DRUD     -2.19500      0.400000           0   0.00000       0.00000    
     18101 TFA      195      TFA      C2       CD30A    0.450000       12.0110           0   0.00000       0.00000    
     18102 TFA      195      TFA      F1       FDA3      1.92530       18.5980           0 -0.750000       1.30000    
     18103 TFA      195      TFA      DF1      DRUD     -2.12530      0.400000           0   0.00000       0.00000    
     18104 TFA      195      TFA      F2       FDA3      1.92530       18.5980           0 -0.750000       1.30000    
     18105 TFA      195      TFA      DF2      DRUD     -2.12530      0.400000           0   0.00000       0.00000    
     18106 TFA      195      TFA      F3       FDA3      1.92530       18.5980           0 -0.750000       1.30000    
     18107 TFA      195      TFA      DF3      DRUD     -2.12530      0.400000           0   0.00000       0.00000    
     18108 TFA      195      TFA      O1       OD2C2A    1.45190       15.5994           0 -0.350000       2.39900    
     18109 TFA      195      TFA      DO1      DRUD     -1.45190      0.400000           0   0.00000       0.00000    
     18110 TFA      195      TFA      O2       OD2C2A    1.45190       15.5994           0 -0.350000       2.39900    
     18111 TFA      195      TFA      DO2      DRUD     -1.45190      0.400000           0   0.00000       0.00000    
     18112 TFA      195      TFA      LPO11    LPD     -0.310000       0.00000          -1   0.00000       0.00000    
     18113 TFA      195      TFA      LPO12    LPD     -0.310000       0.00000          -1   0.00000       0.00000    
     18114 TFA      195      TFA      LPO21    LPD     -0.310000       0.00000          -1   0.00000       0.00000    
     18115 TFA      195      TFA      LPO22    LPD     -0.310000       0.00000          -1   0.00000       0.00000    
     18116 TFA      196      TFA      C1       CD2O2A    2.58500       11.6110           0 -0.800000      0.899000    
     18117 TFA      196      TFA      DC1      DRUD     -2.19500      0.400000           0   0.00000       0.00000    
     18118 TFA      196      TFA      C2       CD30A    0.450000       12.0110           0   0.00000       0.00000    
     18119 TFA      196      TFA      F1       FDA3      1.92530       18.5980           0 -0.750000       1.30000    
     18120 TFA      196      TFA      DF1      DRUD     -2.12530      0.400000           0   0.00000       0.00000    
     18121 TFA      196      TFA      F2       FDA3      1.92530       18.5980           0 -0.750000       1.30000    
     18122 TFA      196      TFA      DF2      DRUD     -2.12530      0.400000           0   0.00000       0.00000    
     18123 TFA      196      TFA      F3       FDA3      1.92530       18.5980           0 -0.750000       1.30000    
     18124 TFA      196      TFA      DF3      DRUD     -2.12530      0.400000           0   0.00000       0.00000    
     18125 TFA      196      TFA      O1       OD2C2A    1.45190       15.5994           0 -0.350000       2.39900    
     18126 TFA      196      TFA      DO1      DRUD     -1.45190      0.400000           0   0.00000       0.00000    
     18127 TFA      196      TFA      O2       OD2C2A    1.45190       15.5994           0 -0.350000       2.39900    
     18128 TFA      196      TFA      DO2      DRUD     -1.45190      0.400000           0   0.00000       0.00000    
     18129 TFA      196      TFA      LPO11    LPD     -0.310000       0.00000          -1   0.00000       0.00000    
     18130 TFA      196      TFA      LPO12    LPD     -0.310000       0.00000          -1   0.00000       0.00000    
     18131 TFA      196      TFA      LPO21    LPD     -0.310000       0.00000          -1   0.00000       0.00000    
     18132 TFA      196      TFA      LPO22    LPD     -0.310000       0.00000          -1   0.00000       0.00000    
     18133 TFA      197      TFA      C1       CD2O2A    2.58500       11.6110           0 -0.800000      0.899000    
     18134 TFA      197      TFA      DC1      DRUD     -2.19500      0.400000           0   0.00000       0.00000    
     18135 TFA      197      TFA      C2       CD30A    0.450000       12.0110           0   0.00000       0.00000    
     18136 TFA      197      TFA      F1       FDA3      1.92530       18.5980           0 -0.750000       1.30000    
     18137 TFA      197      TFA      DF1      DRUD     -2.12530      0.400000           0   0.00000       0.00000    
     18138 TFA      197      TFA      F2       FDA3      1.92530       18.5980           0 -0.750000       1.30000    
     18139 TFA      197      TFA      DF2      DRUD     -2.12530      0.400000           0   0.00000       0.00000    
     18140 TFA      197      TFA      F3       FDA3      1.92530       18.5980           0 -0.750000       1.30000    
     18141 TFA      197      TFA      DF3      DRUD     -2.12530      0.400000           0   0.00000       0.00000    
     18142 TFA      197      TFA      O1       OD2C2A    1.45190       15.5994           0 -0.350000       2.39900    
     18143 TFA      197      TFA      DO1      DRUD     -1.45190      0.400000           0   0.00000       0.00000    
     18144 TFA      197      TFA      O2       OD2C2A    1.45190       15.5994           0 -0.350000       2.39900    
     18145 TFA      197      TFA      DO2      DRUD     -1.45190      0.400000           0   0.00000       0.00000    
     18146 TFA      197      TFA      LPO11    LPD     -0.310000       0.00000          -1   0.00000       0.00000    
     18147 TFA      197      TFA      LPO12    LPD     -0.310000       0.00000          -1   0.00000       0.00000    
     18148 TFA      197      TFA      LPO21    LPD     -0.310000       0.00000          -1   0.00000       0.00000    
     18149 TFA      197      TFA      LPO22    LPD     -0.310000       0.00000          -1   0.00000       0.00000    
     18150 TFA      198      TFA      C1       CD2O2A    2.58500       11.6110           0 -0.800000      0.899000    
     18151 TFA      198      TFA      DC1      DRUD     -2.19500      0.400000           0   0.00000       0.00000    
     18152 TFA      198      TFA      C2       CD30A    0.450000       12.0110           0   0.00000       0.00000    
     18153 TFA      198      TFA      F1       FDA3      1.92530       18.5980           0 -0.750000       1.30000    
     18154 TFA      198      TFA      DF1      DRUD     -2.12530      0.400000           0   0.00000       0.00000    
     18155 TFA      198      TFA      F2       FDA3      1.92530       18.5980           0 -0.750000       1.30000    
     18156 TFA      198      TFA      DF2      DRUD     -2.12530      0.400000           0   0.00000       0.00000    
     18157 TFA      198      TFA      F3       FDA3      1.92530       18.5980           0 -0.750000       1.30000    
     18158 TFA      198      TFA      DF3      DRUD     -2.12530      0.400000           0   0.00000       0.00000    
     18159 TFA      198      TFA      O1       OD2C2A    1.45190       15.5994           0 -0.350000       2.39900    
     18160 TFA      198      TFA      DO1      DRUD     -1.45190      0.400000           0   0.00000       0.00000    
     18161 TFA      198      TFA      O2       OD2C2A    1.45190       15.5994           0 -0.350000       2.39900    
     18162 TFA      198      TFA      DO2      DRUD     -1.45190      0.400000           0   0.00000       0.00000    
     18163 TFA      198      TFA      LPO11    LPD     -0.310000       0.00000          -1   0.00000       0.00000    
     18164 TFA      198      TFA      LPO12    LPD     -0.310000       0.00000          -1   0.00000       0.00000    
     18165 TFA      198      TFA      LPO21    LPD     -0.310000       0.00000          -1   0.00000       0.00000    
     18166 TFA      198      TFA      LPO22    LPD     -0.310000       0.00000          -1   0.00000       0.00000    
     18167 TFA      199      TFA      C1       CD2O2A    2.58500       11.6110           0 -0.800000      0.899000    
     18168 TFA      199      TFA      DC1      DRUD     -2.19500      0.400000           0   0.00000       0.00000    
     18169 TFA      199      TFA      C2       CD30A    0.450000       12.0110           0   0.00000       0.00000    
     18170 TFA      199      TFA      F1       FDA3      1.92530       18.5980           0 -0.750000       1.30000    
     18171 TFA      199      TFA      DF1      DRUD     -2.12530      0.400000           0   0.00000       0.00000    
     18172 TFA      199      TFA      F2       FDA3      1.92530       18.5980           0 -0.750000       1.30000    
     18173 TFA      199      TFA      DF2      DRUD     -2.12530      0.400000           0   0.00000       0.00000    
     18174 TFA      199      TFA      F3       FDA3      1.92530       18.5980           0 -0.750000       1.30000    
     18175 TFA      199      TFA      DF3      DRUD     -2.12530      0.400000           0   0.00000       0.00000    
     18176 TFA      199      TFA      O1       OD2C2A    1.45190       15.5994           0 -0.350000       2.39900    
     18177 TFA      199      TFA      DO1      DRUD     -1.45190      0.400000           0   0.00000       0.00000    
     18178 TFA      199      TFA      O2       OD2C2A    1.45190       15.5994           0 -0.350000       2.39900    
     18179 TFA      199      TFA      DO2      DRUD     -1.45190      0.400000           0   0.00000       0.00000    
     18180 TFA      199      TFA      LPO11    LPD     -0.310000       0.00000          -1   0.00000       0.00000    
     18181 TFA      199      TFA      LPO12    LPD     -0.310000       0.00000          -1   0.00000       0.00000    
     18182 TFA      199      TFA      LPO21    LPD     -0.310000       0.00000          -1   0.00000       0.00000    
     18183 TFA      199      TFA      LPO22    LPD     -0.310000       0.00000          -1   0.00000       0.00000    
     18184 TFA      200      TFA      C1       CD2O2A    2.58500       11.6110           0 -0.800000      0.899000    
     18185 TFA      200      TFA      DC1      DRUD     -2.19500      0.400000           0   0.00000       0.00000    
     18186 TFA      200      TFA      C2       CD30A    0.450000       12.0110           0   0.00000       0.00000    
     18187 TFA      200      TFA      F1       FDA3      1.92530       18.5980           0 -0.750000       1.30000    
     18188 TFA      200      TFA      DF1      DRUD     -2.12530      0.400000           0   0.00000       0.00000    
     18189 TFA      200      TFA      F2       FDA3      1.92530       18.5980           0 -0.750000       1.30000    
     18190 TFA      200      TFA      DF2      DRUD     -2.12530      0.400000           0   0.00000       0.00000    
     18191 TFA      200      TFA      F3       FDA3      1.92530       18.5980           0 -0.750000       1.30000    
     18192 TFA      200      TFA      DF3      DRUD     -2.12530      0.400000           0   0.00000       0.00000    
     18193 TFA      200      TFA      O1       OD2C2A    1.45190       15.5994           0 -0.350000       2.39900    
     18194 TFA      200      TFA      DO1      DRUD     -1.45190      0.400000           0   0.00000       0.00000    
     18195 TFA      200      TFA      O2       OD2C2A    1.45190       15.5994           0 -0.350000       2.39900    
     18196 TFA      200      TFA      DO2      DRUD     -1.45190      0.400000           0   0.00000       0.00000    
     18197 TFA      200      TFA      LPO11    LPD     -0.310000       0.00000          -1   0.00000       0.00000    
     18198 TFA      200      TFA      LPO12    LPD     -0.310000       0.00000          -1   0.00000       0.00000    
     18199 TFA      200      TFA      LPO21    LPD     -0.310000       0.00000          -1   0.00000       0.00000    
     18200 TFA      200      TFA      LPO22    LPD     -0.310000       0.00000          -1   0.00000       0.00000    

     17700 !NBOND: bonds
         1         2         6         7         8         9        11        12
        14        15        17        18         1         6         1         3
         1         4         1         5         6         8         6        14
         8        11         8        10        11        13        11        17
        17        14        14        16        17        19        20        17
        21        22        26        27        28        29        31        32
        34        35        37        38        21        26        21        23
        21        24        21        25        26        28        26        34
        28        31        28        30        31        33        31        37
        37        34        34        36        37        39        40        37
        41        42        46        47        48        49        51        52
        54        55        57        58        41        46        41        43
        41        44        41        45        46        48        46        54
        48        51        48        50        51        53        51        57
        57        54        54        56        57        59        60        57
        61        62        66        67        68        69        71        72
        74        75        77        78        61        66        61        63
        61        64        61        65        66        68        66        74
        68        71        68        70        71        73        71        77
        77        74        74        76        77        79        80        77
        81        82        86        87        88        89        91        92
        94        95        97        98        81        86        81        83
        81        84        81        85        86        88        86        94
        88        91        88        90        91        93        91        97
        97        94        94        96        97        99       100        97
       101       102       106       107       108       109       111       112
       114       115       117       118       101       106       101       103
       101       104       101       105       106       108       106       114
       108       111       108       110       111       113       111       117
       117       114       114       116       117       119       120       117
       121       122       126       127       128       129       131       132
       134       135       137       138       121       126       121       123
       121       124       121       125       126       128       126       134
       128       131       128       130       131       133       131       137
       137       134       134       136       137       139       140       137
       141       142       146       147       148       149       151       152
       154       155       157       158       141       146       141       143
       141       144       141       145       146       148       146       154
       148       151       148       150       151       153       151       157
       157       154       154       156       157       159       160       157
       161       162       166       167       168       169       171       172
       174       175       177       178       161       166       161       163
       161       164       161       165       166       168       166       174
       168       171       168       170       171       173       171       177
       177       174       174       176       177       179       180       177
       181       182       186       187       188       189       191       192
       194       195       197       198       181       186       181       183
       181       184       181       185       186       188       186       194
       188       191       188       190       191       193       191       197
       197       194       194       196       197       199       200       197
       201       202       206       207       208       209       211       212
       214       215       217       218       201       206       201       203
       201       204       201       205       206       208       206       214
       208       211       208       210       211       213       211       217
       217       214       214       216       217       219       220       217
       221       222       226       227       228       229       231       232
       234       235       237       238       221       226       221       223
       221       224       221       225       226       228       226       234
       228       231       228       230       231       233       231       237
       237       234       234       236       237       239       240       237
       241       242       246       247       248       249       251       252
       254       255       257       258       241       246       241       243
       241       244       241       245       246       248       246       254
       248       251       248       250       251       253       251       257
       257       254       254       256       257       259       260       257
       261       262       266       267       268       269       271       272
       274       275       277       278       261       266       261       263
       261       264       261       265       266       268       266       274
       268       271       268       270       271       273       271       277
       277       274       274       276       277       279       280       277
       281       282       286       287       288       289       291       292
       294       295       297       298       281       286       281       283
       281       284       281       285       286       288       286       294
       288       291       288       290       291       293       291       297
       297       294       294       296       297       299       300       297
       301       302       306       307       308       309       311       312
       314       315       317       318       301       306       301       303
       301       304       301       305       306       308       306       314
       308       311       308       310       311       313       311       317
       317       314       314       316       317       319       320       317
       321       322       326       327       328       329       331       332
       334       335       337       338       321       326       321       323
       321       324       321       325       326       328       326       334
       328       331       328       330       331       333       331       337
       337       334       334       336       337       339       340       337
       341       342       346       347       348       349       351       352
       354       355       357       358       341       346       341       343
       341       344       341       345       346       348       346       354
       348       351       348       350       351       353       351       357
       357       354       354       356       357       359       360       357
       361       362       366       367       368       369       371       372
       374       375       377       378       361       366       361       363
       361       364       361       365       366       368       366       374
       368       371       368       370       371       373       371       377
       377       374       374       376       377       379       380       377
       381       382       386       387       388       389       391       392
       394       395       397       398       381       386       381       383
       381       384       381       385       386       388       386       394
       388       391       388       390       391       393       391       397
       397       394       394       396       397       399       400       397
       401       402       406       407       408       409       411       412
       414       415       417       418       401       406       401       403
       401       404       401       405       406       408       406       414
       408       411       408       410       411       413       411       417
       417       414       414       416       417       419       420       417
       421       422       426       427       428       429       431       432
       434       435       437       438       421       426       421       423
       421       424       421       425       426       428       426       434
       428       431       428       430       431       433       431       437
       437       434       434       436       437       439       440       437
       441       442       446       447       448       449       451       452
       454       455       457       458       441       446       441       443
       441       444       441       445       446       448       446       454
       448       451       448       450       451       453       451       457
       457       454       454       456       457       459       460       457
       461       462       466       467       468       469       471       472
       474       475       477       478       461       466       461       463
       461       464       461       465       466       468       466       474
       468       471       468       470       471       473       471       477
       477       474       474       476       477       479       480       477
       481       482       486       487       488       489       491       492
       494       495       497       498       481       486       481       483
       481       484       481       485       486       488       486       494
       488       491       488       490       491       493       491       497
       497       494       494       496       497       499       500       497
       501       502       506       507       508       509       511       512
       514       515       517       518       501       506       501       503
       501       504       501       505       506       508       506       514
       508       511       508       510       511       513       511       517
       517       514       514       516       517       519       520       517
       521       522       526       527       528       529       531       532
       534       535       537       538       521       526       521       523
       521       524       521       525       526       528       526       534
       528       531       528       530       531       533       531       537
       537       534       534       536       537       539       540       537
       541       542       546       547       548       549       551       552
       554       555       557       558       541       546       541       543
       541       544       541       545       546       548       546       554
       548       551       548       550       551       553       551       557
       557       554       554       556       557       559       560       557
       561       562       566       567       568       569       571       572
       574       575       577       578       561       566       561       563
       561       564       561       565       566       568       566       574
       568       571       568       570       571       573       571       577
       577       574       574       576       577       579       580       577
       581       582       586       587       588       589       591       592
       594       595       597       598       581       586       581       583
       581       584       581       585       586       588       586       594
       588       591       588       590       591       593       591       597
       597       594       594       596       597       599       600       597
       601       602       606       607       608       609       611       612
       614       615       617       618       601       606       601       603
       601       604       601       605       606       608       606       614
       608       611       608       610       611       613       611       617
       617       614       614       616       617       619       620       617
       621       622       626       627       628       629       631       632
       634       635       637       638       621       626       621       623
       621       624       621       625       626       628       626       634
       628       631       628       630       631       633       631       637
       637       634       634       636       637       639       640       637
       641       642       646       647       648       649       651       652
       654       655       657       658       641       646       641       643
       641       644       641       645       646       648       646       654
       648       651       648       650       651       653       651       657
       657       654       654       656       657       659       660       657
       661       662       666       667       668       669       671       672
       674       675       677       678       661       666       661       663
       661       664       661       665       666       668       666       674
       668       671       668       670       671       673       671       677
       677       674       674       676       677       679       680       677
       681       682       686       687       688       689       691       692
       694       695       697       698       681       686       681       683
       681       684       681       685       686       688       686       694
       688       691       688       690       691       693       691       697
       697       694       694       696       697       699       700       697
       701       702       706       707       708       709       711       712
       714       715       717       718       701       706       701       703
       701       704       701       705       706       708       706       714
       708       711       708       710       711       713       711       717
       717       714       714       716       717       719       720       717
       721       722       726       727       728       729       731       732
       734       735       737       738       721       726       721       723
       721       724       721       725       726       728       726       734
       728       731       728       730       731       733       731       737
       737       734       734       736       737       739       740       737
       741       742       746       747       748       749       751       752
       754       755       757       758       741       746       741       743
       741       744       741       745       746       748       746       754
       748       751       748       750       751       753       751       757
       757       754       754       756       757       759       760       757
       761       762       766       767       768       769       771       772
       774       775       777       778       761       766       761       763
       761       764       761       765       766       768       766       774
       768       771       768       770       771       773       771       777
       777       774       774       776       777       779       780       777
       781       782       786       787       788       789       791       792
       794       795       797       798       781       786       781       783
       781       784       781       785       786       788       786       794
       788       791       788       790       791       793       791       797
       797       794       794       796       797       799       800       797
       801       802       806       807       808       809       811       812
       814       815       817       818       801       806       801       803
       801       804       801       805       806       808       806       814
       808       811       808       810       811       813       811       817
       817       814       814       816       817       819       820       817
       821       822       826       827       828       829       831       832
       834       835       837       838       821       826       821       823
       821       824       821       825       826       828       826       834
       828       831       828       830       831       833       831       837
       837       834       834       836       837       839       840       837
       841       842       846       847       848       849       851       852
       854       855       857       858       841       846       841       843
       841       844       841       845       846       848       846       854
       848       851       848       850       851       853       851       857
       857       854       854       856       857       859       860       857
       861       862       866       867       868       869       871       872
       874       875       877       878       861       866       861       863
       861       864       861       865       866       868       866       874
       868       871       868       870       871       873       871       877
       877       874       874       876       877       879       880       877
       881       882       886       887       888       889       891       892
       894       895       897       898       881       886       881       883
       881       884       881       885       886       888       886       894
       888       891       888       890       891       893       891       897
       897       894       894       896       897       899       900       897
       901       902       906       907       908       909       911       912
       914       915       917       918       901       906       901       903
       901       904       901       905       906       908       906       914
       908       911       908       910       911       913       911       917
       917       914       914       916       917       919       920       917
       921       922       926       927       928       929       931       932
       934       935       937       938       921       926       921       923
       921       924       921       925       926       928       926       934
       928       931       928       930       931       933       931       937
       937       934       934       936       937       939       940       937
       941       942       946       947       948       949       951       952
       954       955       957       958       941       946       941       943
       941       944       941       945       946       948       946       954
       948       951       948       950       951       953       951       957
       957       954       954       956       957       959       960       957
       961       962       966       967       968       969       971       972
       974       975       977       978       961       966       961       963
       961       964       961       965       966       968       966       974
       968       971       968       970       971       973       971       977
       977       974       974       976       977       979       980       977
       981       982       986       987       988       989       991       992
       994       995       997       998       981       986       981       983
       981       984       981       985       986       988       986       994
       988       991       988       990       991       993       991       997
       997       994       994       996       997       999      1000       997
      1001      1002      1006      1007      1008      1009      1011      1012
      1014      1015      1017      1018      1001      1006      1001      1003
      1001      1004      1001      1005      1006      1008      1006      1014
      1008      1011      1008      1010      1011      1013      1011      1017
      1017      1014      1014      1016      1017      1019      1020      1017
      1021      1022      1026      1027      1028      1029      1031      1032
      1034      1035      1037      1038      1021      1026      1021      1023
      1021      1024      1021      1025      1026      1028      1026      1034
      1028      1031      1028      1030      1031      1033      1031      1037
      1037      1034      1034      1036      1037      1039      1040      1037
      1041      1042      1046      1047      1048      1049      1051      1052
      1054      1055      1057      1058      1041      1046      1041      1043
      1041      1044      1041      1045      1046      1048      1046      1054
      1048      1051      1048      1050      1051      1053      1051      1057
      1057      1054      1054      1056      1057      1059      1060      1057
      1061      1062      1066      1067      1068      1069      1071      1072
      1074      1075      1077      1078      1061      1066      1061      1063
      1061      1064      1061      1065      1066      1068      1066      1074
      1068      1071      1068      1070      1071      1073      1071      1077
      1077      1074      1074      1076      1077      1079      1080      1077
      1081      1082      1086      1087      1088      1089      1091      1092
      1094      1095      1097      1098      1081      1086      1081      1083
      1081      1084      1081      1085      1086      1088      1086      1094
      1088      1091      1088      1090      1091      1093      1091      1097
      1097      1094      1094      1096      1097      1099      1100      1097
      1101      1102      1106      1107      1108      1109      1111      1112
      1114      1115      1117      1118      1101      1106      1101      1103
      1101      1104      1101      1105      1106      1108      1106      1114
      1108      1111      1108      1110      1111      1113      1111      1117
      1117      1114      1114      1116      1117      1119      1120      1117
      1121      1122      1126      1127      1128      1129      1131      1132
      1134      1135      1137      1138      1121      1126      1121      1123
      1121      1124      1121      1125      1126      1128      1126      1134
      1128      1131      1128      1130      1131      1133      1131      1137
      1137      1134      1134      1136      1137      1139      1140      1137
      1141      1142      1146      1147      1148      1149      1151      1152
      1154      1155      1157      1158      1141      1146      1141      1143
      1141      1144      1141      1145      1146      1148      1146      1154
      1148      1151      1148      1150      1151      1153      1151      1157
      1157      1154      1154      1156      1157      1159      1160      1157
      1161      1162      1166      1167      1168      1169      1171      1172
      1174      1175      1177      1178      1161      1166      1161      1163
      1161      1164      1161      1165      1166      1168      1166      1174
      1168      1171      1168      1170      1171      1173      1171      1177
      1177      1174      1174      1176      1177      1179      1180      1177
      1181      1182      1186      1187      1188      1189      1191      1192
      1194      1195      1197      1198      1181      1186      1181      1183
      1181      1184      1181      1185      1186      1188      1186      1194
      1188      1191      1188      1190      1191      1193      1191      1197
      1197      1194      1194      1196      1197      1199      1200      1197
      1201      1202      1206      1207      1208      1209      1211      1212
      1214      1215      1217      1218      1201      1206      1201      1203
      1201      1204      1201      1205      1206      1208      1206      1214
      1208      1211      1208      1210      1211      1213      1211      1217
      1217      1214      1214      1216      1217      1219      1220      1217
      1221      1222      1226      1227      1228      1229      1231      1232
      1234      1235      1237      1238      1221      1226      1221      1223
      1221      1224      1221      1225      1226      1228      1226      1234
      1228      1231      1228      1230      1231      1233      1231      1237
      1237      1234      1234      1236      1237      1239      1240      1237
      1241      1242      1246      1247      1248      1249      1251      1252
      1254      1255      1257      1258      1241      1246      1241      1243
      1241      1244      1241      1245      1246      1248      1246      1254
      1248      1251      1248      1250      1251      1253      1251      1257
      1257      1254      1254      1256      1257      1259      1260      1257
      1261      1262      1266      1267      1268      1269      1271      1272
      1274      1275      1277      1278      1261      1266      1261      1263
      1261      1264      1261      1265      1266      1268      1266      1274
      1268      1271      1268      1270      1271      1273      1271      1277
      1277      1274      1274      1276      1277      1279      1280      1277
      1281      1282      1286      1287      1288      1289      1291      1292
      1294      1295      1297      1298      1281      1286      1281      1283
      1281      1284      1281      1285      1286      1288      1286      1294
      1288      1291      1288      1290      1291      1293      1291      1297
      1297      1294      1294      1296      1297      1299      1300      1297
      1301      1302      1306      1307      1308      1309      1311      1312
      1314      1315      1317      1318      1301      1306      1301      1303
      1301      1304      1301      1305      1306      1308      1306      1314
      1308      1311      1308      1310      1311      1313      1311      1317
      1317      1314      1314      1316      1317      1319      1320      1317
      1321      1322      1326      1327      1328      1329      1331      1332
      1334      1335      1337      1338      1321      1326      1321      1323
      1321      1324      1321      1325      1326      1328      1326      1334
      1328      1331      1328      1330      1331      1333      1331      1337
      1337      1334      1334      1336      1337      1339      1340      1337
      1341      1342      1346      1347      1348      1349      1351      1352
      1354      1355      1357      1358      1341      1346      1341      1343
      1341      1344      1341      1345      1346      1348      1346      1354
      1348      1351      1348      1350      1351      1353      1351      1357
      1357      1354      1354      1356      1357      1359      1360      1357
      1361      1362      1366      1367      1368      1369      1371      1372
      1374      1375      1377      1378      1361      1366      1361      1363
      1361      1364      1361      1365      1366      1368      1366      1374
      1368      1371      1368      1370      1371      1373      1371      1377
      1377      1374      1374      1376      1377      1379      1380      1377
      1381      1382      1386      1387      1388      1389      1391      1392
      1394      1395      1397      1398      1381      1386      1381      1383
      1381      1384      1381      1385      1386      1388      1386      1394
      1388      1391      1388      1390      1391      1393      1391      1397
      1397      1394      1394      1396      1397      1399      1400      1397
      1401      1402      1406      1407      1408      1409      1411      1412
      1414      1415      1417      1418      1401      1406      1401      1403
      1401      1404      1401      1405      1406      1408      1406      1414
      1408      1411      1408      1410      1411      1413      1411      1417
      1417      1414      1414      1416      1417      1419      1420      1417
      1421      1422      1426      1427      1428      1429      1431      1432
      1434      1435      1437      1438      1421      1426      1421      1423
      1421      1424      1421      1425      1426      1428      1426      1434
      1428      1431      1428      1430      1431      1433      1431      1437
      1437      1434      1434      1436      1437      1439      1440      1437
      1441      1442      1446      1447      1448      1449      1451      1452
      1454      1455      1457      1458      1441      1446      1441      1443
      1441      1444      1441      1445      1446      1448      1446      1454
      1448      1451      1448      1450      1451      1453      1451      1457
      1457      1454      1454      1456      1457      1459      1460      1457
      1461      1462      1466      1467      1468      1469      1471      1472
      1474      1475      1477      1478      1461      1466      1461      1463
      1461      1464      1461      1465      1466      1468      1466      1474
      1468      1471      1468      1470      1471      1473      1471      1477
      1477      1474      1474      1476      1477      1479      1480      1477
      1481      1482      1486      1487      1488      1489      1491      1492
      1494      1495      1497      1498      1481      1486      1481      1483
      1481      1484      1481      1485      1486      1488      1486      1494
      1488      1491      1488      1490      1491      1493      1491      1497
      1497      1494      1494      1496      1497      1499      1500      1497
      1501      1502      1506      1507      1508      1509      1511      1512
      1514      1515      1517      1518      1501      1506      1501      1503
      1501      1504      1501      1505      1506      1508      1506      1514
      1508      1511      1508      1510      1511      1513      1511      1517
      1517      1514      1514      1516      1517      1519      1520      1517
      1521      1522      1526      1527      1528      1529      1531      1532
      1534      1535      1537      1538      1521      1526      1521      1523
      1521      1524      1521      1525      1526      1528      1526      1534
      1528      1531      1528      1530      1531      1533      1531      1537
      1537      1534      1534      1536      1537      1539      1540      1537
      1541      1542      1546      1547      1548      1549      1551      1552
      1554      1555      1557      1558      1541      1546      1541      1543
      1541      1544      1541      1545      1546      1548      1546      1554
      1548      1551      1548      1550      1551      1553      1551      1557
      1557      1554      1554      1556      1557      1559      1560      1557
      1561      1562      1566      1567      1568      1569      1571      1572
      1574      1575      1577      1578      1561      1566      1561      1563
      1561      1564      1561      1565      1566      1568      1566      1574
      1568      1571      1568      1570      1571      1573      1571      1577
      1577      1574      1574      1576      1577      1579      1580      1577
      1581      1582      1586      1587      1588      1589      1591      1592
      1594      1595      1597      1598      1581      1586      1581      1583
      1581      1584      1581      1585      1586      1588      1586      1594
      1588      1591      1588      1590      1591      1593      1591      1597
      1597      1594      1594      1596      1597      1599      1600      1597
      1601      1602      1606      1607      1608      1609      1611      1612
      1614      1615      1617      1618      1601      1606      1601      1603
      1601      1604      1601      1605      1606      1608      1606      1614
      1608      1611      1608      1610      1611      1613      1611      1617
      1617      1614      1614      1616      1617      1619      1620      1617
      1621      1622      1626      1627      1628      1629      1631      1632
      1634      1635      1637      1638      1621      1626      1621      1623
      1621      1624      1621      1625      1626      1628      1626      1634
      1628      1631      1628      1630      1631      1633      1631      1637
      1637      1634      1634      1636      1637      1639      1640      1637
      1641      1642      1646      1647      1648      1649      1651      1652
      1654      1655      1657      1658      1641      1646      1641      1643
      1641      1644      1641      1645      1646      1648      1646      1654
      1648      1651      1648      1650      1651      1653      1651      1657
      1657      1654      1654      1656      1657      1659      1660      1657
      1661      1662      1666      1667      1668      1669      1671      1672
      1674      1675      1677      1678      1661      1666      1661      1663
      1661      1664      1661      1665      1666      1668      1666      1674
      1668      1671      1668      1670      1671      1673      1671      1677
      1677      1674      1674      1676      1677      1679      1680      1677
      1681      1682      1686      1687      1688      1689      1691      1692
      1694      1695      1697      1698      1681      1686      1681      1683
      1681      1684      1681      1685      1686      1688      1686      1694
      1688      1691      1688      1690      1691      1693      1691      1697
      1697      1694      1694      1696      1697      1699      1700      1697
      1701      1702      1706      1707      1708      1709      1711      1712
      1714      1715      1717      1718      1701      1706      1701      1703
      1701      1704      1701      1705      1706      1708      1706      1714
      1708      1711      1708      1710      1711      1713      1711      1717
      1717      1714      1714      1716      1717      1719      1720      1717
      1721      1722      1726      1727      1728      1729      1731      1732
      1734      1735      1737      1738      1721      1726      1721      1723
      1721      1724      1721      1725      1726      1728      1726      1734
      1728      1731      1728      1730      1731      1733      1731      1737
      1737      1734      1734      1736      1737      1739      1740      1737
      1741      1742      1746      1747      1748      1749      1751      1752
      1754      1755      1757      1758      1741      1746      1741      1743
      1741      1744      1741      1745      1746      1748      1746      1754
      1748      1751      1748      1750      1751      1753      1751      1757
      1757      1754      1754      1756      1757      1759      1760      1757
      1761      1762      1766      1767      1768      1769      1771      1772
      1774      1775      1777      1778      1761      1766      1761      1763
      1761      1764      1761      1765      1766      1768      1766      1774
      1768      1771      1768      1770      1771      1773      1771      1777
      1777      1774      1774      1776      1777      1779      1780      1777
      1781      1782      1786      1787      1788      1789      1791      1792
      1794      1795      1797      1798      1781      1786      1781      1783
      1781      1784      1781      1785      1786      1788      1786      1794
      1788      1791      1788      1790      1791      1793      1791      1797
      1797      1794      1794      1796      1797      1799      1800      1797
      1801      1802      1806      1807      1808      1809      1811      1812
      1814      1815      1817      1818      1801      1806      1801      1803
      1801      1804      1801      1805      1806      1808      1806      1814
      1808      1811      1808      1810      1811      1813      1811      1817
      1817      1814      1814      1816      1817      1819      1820      1817
      1821      1822      1826      1827      1828      1829      1831      1832
      1834      1835      1837      1838      1821      1826      1821      1823
      1821      1824      1821      1825      1826      1828      1826      1834
      1828      1831      1828      1830      1831      1833      1831      1837
      1837      1834      1834      1836      1837      1839      1840      1837
      1841      1842      1846      1847      1848      1849      1851      1852
      1854      1855      1857      1858      1841      1846      1841      1843
      1841      1844      1841      1845      1846      1848      1846      1854
      1848      1851      1848      1850      1851      1853      1851      1857
      1857      1854      1854      1856      1857      1859      1860      1857
      1861      1862      1866      1867      1868      1869      1871      1872
      1874      1875      1877      1878      1861      1866      1861      1863
      1861      1864      1861      1865      1866      1868      1866      1874
      1868      1871      1868      1870      1871      1873      1871      1877
      1877      1874      1874      1876      1877      1879      1880      1877
      1881      1882      1886      1887      1888      1889      1891      1892
      1894      1895      1897      1898      1881      1886      1881      1883
      1881      1884      1881      1885      1886      1888      1886      1894
      1888      1891      1888      1890      1891      1893      1891      1897
      1897      1894      1894      1896      1897      1899      1900      1897
      1901      1902      1906      1907      1908      1909      1911      1912
      1914      1915      1917      1918      1901      1906      1901      1903
      1901      1904      1901      1905      1906      1908      1906      1914
      1908      1911      1908      1910      1911      1913      1911      1917
      1917      1914      1914      1916      1917      1919      1920      1917
      1921      1922      1926      1927      1928      1929      1931      1932
      1934      1935      1937      1938      1921      1926      1921      1923
      1921      1924      1921      1925      1926      1928      1926      1934
      1928      1931      1928      1930      1931      1933      1931      1937
      1937      1934      1934      1936      1937      1939      1940      1937
      1941      1942      1946      1947      1948      1949      1951      1952
      1954      1955      1957      1958      1941      1946      1941      1943
      1941      1944      1941      1945      1946      1948      1946      1954
      1948      1951      1948      1950      1951      1953      1951      1957
      1957      1954      1954      1956      1957      1959      1960      1957
      1961      1962      1966      1967      1968      1969      1971      1972
      1974      1975      1977      1978      1961      1966      1961      1963
      1961      1964      1961      1965      1966      1968      1966      1974
      1968      1971      1968      1970      1971      1973      1971      1977
      1977      1974      1974      1976      1977      1979      1980      1977
      1981      1982      1986      1987      1988      1989      1991      1992
      1994      1995      1997      1998      1981      1986      1981      1983
      1981      1984      1981      1985      1986      1988      1986      1994
      1988      1991      1988      1990      1991      1993      1991      1997
      1997      1994      1994      1996      1997      1999      2000      1997
      2001      2002      2006      2007      2008      2009      2011      2012
      2014      2015      2017      2018      2001      2006      2001      2003
      2001      2004      2001      2005      2006      2008      2006      2014
      2008      2011      2008      2010      2011      2013      2011      2017
      2017      2014      2014      2016      2017      2019      2020      2017
      2021      2022      2026      2027      2028      2029      2031      2032
      2034      2035      2037      2038      2021      2026      2021      2023
      2021      2024      2021      2025      2026      2028      2026      2034
      2028      2031      2028      2030      2031      2033      2031      2037
      2037      2034      2034      2036      2037      2039      2040      2037
      2041      2042      2046      2047      2048      2049      2051      2052
      2054      2055      2057      2058      2041      2046      2041      2043
      2041      2044      2041      2045      2046      2048      2046      2054
      2048      2051      2048      2050      2051      2053      2051      2057
      2057      2054      2054      2056      2057      2059      2060      2057
      2061      2062      2066      2067      2068      2069      2071      2072
      2074      2075      2077      2078      2061      2066      2061      2063
      2061      2064      2061      2065      2066      2068      2066      2074
      2068      2071      2068      2070      2071      2073      2071      2077
      2077      2074      2074      2076      2077      2079      2080      2077
      2081      2082      2086      2087      2088      2089      2091      2092
      2094      2095      2097      2098      2081      2086      2081      2083
      2081      2084      2081      2085      2086      2088      2086      2094
      2088      2091      2088      2090      2091      2093      2091      2097
      2097      2094      2094      2096      2097      2099      2100      2097
      2101      2102      2106      2107      2108      2109      2111      2112
      2114      2115      2117      2118      2101      2106      2101      2103
      2101      2104      2101      2105      2106      2108      2106      2114
      2108      2111      2108      2110      2111      2113      2111      2117
      2117      2114      2114      2116      2117      2119      2120      2117
      2121      2122      2126      2127      2128      2129      2131      2132
      2134      2135      2137      2138      2121      2126      2121      2123
      2121      2124      2121      2125      2126      2128      2126      2134
      2128      2131      2128      2130      2131      2133      2131      2137
      2137      2134      2134      2136      2137      2139      2140      2137
      2141      2142      2146      2147      2148      2149      2151      2152
      2154      2155      2157      2158      2141      2146      2141      2143
      2141      2144      2141      2145      2146      2148      2146      2154
      2148      2151      2148      2150      2151      2153      2151      2157
      2157      2154      2154      2156      2157      2159      2160      2157
      2161      2162      2166      2167      2168      2169      2171      2172
      2174      2175      2177      2178      2161      2166      2161      2163
      2161      2164      2161      2165      2166      2168      2166      2174
      2168      2171      2168      2170      2171      2173      2171      2177
      2177      2174      2174      2176      2177      2179      2180      2177
      2181      2182      2186      2187      2188      2189      2191      2192
      2194      2195      2197      2198      2181      2186      2181      2183
      2181      2184      2181      2185      2186      2188      2186      2194
      2188      2191      2188      2190      2191      2193      2191      2197
      2197      2194      2194      2196      2197      2199      2200      2197
      2201      2202      2206      2207      2208      2209      2211      2212
      2214      2215      2217      2218      2201      2206      2201      2203
      2201      2204      2201      2205      2206      2208      2206      2214
      2208      2211      2208      2210      2211      2213      2211      2217
      2217      2214      2214      2216      2217      2219      2220      2217
      2221      2222      2226      2227      2228      2229      2231      2232
      2234      2235      2237      2238      2221      2226      2221      2223
      2221      2224      2221      2225      2226      2228      2226      2234
      2228      2231      2228      2230      2231      2233      2231      2237
      2237      2234      2234      2236      2237      2239      2240      2237
      2241      2242      2246      2247      2248      2249      2251      2252
      2254      2255      2257      2258      2241      2246      2241      2243
      2241      2244      2241      2245      2246      2248      2246      2254
      2248      2251      2248      2250      2251      2253      2251      2257
      2257      2254      2254      2256      2257      2259      2260      2257
      2261      2262      2266      2267      2268      2269      2271      2272
      2274      2275      2277      2278      2261      2266      2261      2263
      2261      2264      2261      2265      2266      2268      2266      2274
      2268      2271      2268      2270      2271      2273      2271      2277
      2277      2274      2274      2276      2277      2279      2280      2277
      2281      2282      2286      2287      2288      2289      2291      2292
      2294      2295      2297      2298      2281      2286      2281      2283
      2281      2284      2281      2285      2286      2288      2286      2294
      2288      2291      2288      2290      2291      2293      2291      2297
      2297      2294      2294      2296      2297      2299      2300      2297
      2301      2302      2306      2307      2308      2309      2311      2312
      2314      2315      2317      2318      2301      2306      2301      2303
      2301      2304      2301      2305      2306      2308      2306      2314
      2308      2311      2308      2310      2311      2313      2311      2317
      2317      2314      2314      2316      2317      2319      2320      2317
      2321      2322      2326      2327      2328      2329      2331      2332
      2334      2335      2337      2338      2321      2326      2321      2323
      2321      2324      2321      2325      2326      2328      2326      2334
      2328      2331      2328      2330      2331      2333      2331      2337
      2337      2334      2334      2336      2337      2339      2340      2337
      2341      2342      2346      2347      2348      2349      2351      2352
      2354      2355      2357      2358      2341      2346      2341      2343
      2341      2344      2341      2345      2346      2348      2346      2354
      2348      2351      2348      2350      2351      2353      2351      2357
      2357      2354      2354      2356      2357      2359      2360      2357
      2361      2362      2366      2367      2368      2369      2371      2372
      2374      2375      2377      2378      2361      2366      2361      2363
      2361      2364      2361      2365      2366      2368      2366      2374
      2368      2371      2368      2370      2371      2373      2371      2377
      2377      2374      2374      2376      2377      2379      2380      2377
      2381      2382      2386      2387      2388      2389      2391      2392
      2394      2395      2397      2398      2381      2386      2381      2383
      2381      2384      2381      2385      2386      2388      2386      2394
      2388      2391      2388      2390      2391      2393      2391      2397
      2397      2394      2394      2396      2397      2399      2400      2397
      2401      2402      2406      2407      2408      2409      2411      2412
      2414      2415      2417      2418      2401      2406      2401      2403
      2401      2404      2401      2405      2406      2408      2406      2414
      2408      2411      2408      2410      2411      2413      2411      2417
      2417      2414      2414      2416      2417      2419      2420      2417
      2421      2422      2426      2427      2428      2429      2431      2432
      2434      2435      2437      2438      2421      2426      2421      2423
      2421      2424      2421      2425      2426      2428      2426      2434
      2428      2431      2428      2430      2431      2433      2431      2437
      2437      2434      2434      2436      2437      2439      2440      2437
      2441      2442      2446      2447      2448      2449      2451      2452
      2454      2455      2457      2458      2441      2446      2441      2443
      2441      2444      2441      2445      2446      2448      2446      2454
      2448      2451      2448      2450      2451      2453      2451      2457
      2457      2454      2454      2456      2457      2459      2460      2457
      2461      2462      2466      2467      2468      2469      2471      2472
      2474      2475      2477      2478      2461      2466      2461      2463
      2461      2464      2461      2465      2466      2468      2466      2474
      2468      2471      2468      2470      2471      2473      2471      2477
      2477      2474      2474      2476      2477      2479      2480      2477
      2481      2482      2486      2487      2488      2489      2491      2492
      2494      2495      2497      2498      2481      2486      2481      2483
      2481      2484      2481      2485      2486      2488      2486      2494
      2488      2491      2488      2490      2491      2493      2491      2497
      2497      2494      2494      2496      2497      2499      2500      2497
      2501      2502      2506      2507      2508      2509      2511      2512
      2514      2515      2517      2518      2501      2506      2501      2503
      2501      2504      2501      2505      2506      2508      2506      2514
      2508      2511      2508      2510      2511      2513      2511      2517
      2517      2514      2514      2516      2517      2519      2520      2517
      2521      2522      2526      2527      2528      2529      2531      2532
      2534      2535      2537      2538      2521      2526      2521      2523
      2521      2524      2521      2525      2526      2528      2526      2534
      2528      2531      2528      2530      2531      2533      2531      2537
      2537      2534      2534      2536      2537      2539      2540      2537
      2541      2542      2546      2547      2548      2549      2551      2552
      2554      2555      2557      2558      2541      2546      2541      2543
      2541      2544      2541      2545      2546      2548      2546      2554
      2548      2551      2548      2550      2551      2553      2551      2557
      2557      2554      2554      2556      2557      2559      2560      2557
      2561      2562      2566      2567      2568      2569      2571      2572
      2574      2575      2577      2578      2561      2566      2561      2563
      2561      2564      2561      2565      2566      2568      2566      2574
      2568      2571      2568      2570      2571      2573      2571      2577
      2577      2574      2574      2576      2577      2579      2580      2577
      2581      2582      2586      2587      2588      2589      2591      2592
      2594      2595      2597      2598      2581      2586      2581      2583
      2581      2584      2581      2585      2586      2588      2586      2594
      2588      2591      2588      2590      2591      2593      2591      2597
      2597      2594      2594      2596      2597      2599      2600      2597
      2601      2602      2606      2607      2608      2609      2611      2612
      2614      2615      2617      2618      2601      2606      2601      2603
      2601      2604      2601      2605      2606      2608      2606      2614
      2608      2611      2608      2610      2611      2613      2611      2617
      2617      2614      2614      2616      2617      2619      2620      2617
      2621      2622      2626      2627      2628      2629      2631      2632
      2634      2635      2637      2638      2621      2626      2621      2623
      2621      2624      2621      2625      2626      2628      2626      2634
      2628      2631      2628      2630      2631      2633      2631      2637
      2637      2634      2634      2636      2637      2639      2640      2637
      2641      2642      2646      2647      2648      2649      2651      2652
      2654      2655      2657      2658      2641      2646      2641      2643
      2641      2644      2641      2645      2646      2648      2646      2654
      2648      2651      2648      2650      2651      2653      2651      2657
      2657      2654      2654      2656      2657      2659      2660      2657
      2661      2662      2666      2667      2668      2669      2671      2672
      2674      2675      2677      2678      2661      2666      2661      2663
      2661      2664      2661      2665      2666      2668      2666      2674
      2668      2671      2668      2670      2671      2673      2671      2677
      2677      2674      2674      2676      2677      2679      2680      2677
      2681      2682      2686      2687      2688      2689      2691      2692
      2694      2695      2697      2698      2681      2686      2681      2683
      2681      2684      2681      2685      2686      2688      2686      2694
      2688      2691      2688      2690      2691      2693      2691      2697
      2697      2694      2694      2696      2697      2699      2700      2697
      2701      2702      2706      2707      2708      2709      2711      2712
      2714      2715      2717      2718      2701      2706      2701      2703
      2701      2704      2701      2705      2706      2708      2706      2714
      2708      2711      2708      2710      2711      2713      2711      2717
      2717      2714      2714      2716      2717      2719      2720      2717
      2721      2722      2726      2727      2728      2729      2731      2732
      2734      2735      2737      2738      2721      2726      2721      2723
      2721      2724      2721      2725      2726      2728      2726      2734
      2728      2731      2728      2730      2731      2733      2731      2737
      2737      2734      2734      2736      2737      2739      2740      2737
      2741      2742      2746      2747      2748      2749      2751      2752
      2754      2755      2757      2758      2741      2746      2741      2743
      2741      2744      2741      2745      2746      2748      2746      2754
      2748      2751      2748      2750      2751      2753      2751      2757
      2757      2754      2754      2756      2757      2759      2760      2757
      2761      2762      2766      2767      2768      2769      2771      2772
      2774      2775      2777      2778      2761      2766      2761      2763
      2761      2764      2761      2765      2766      2768      2766      2774
      2768      2771      2768      2770      2771      2773      2771      2777
      2777      2774      2774      2776      2777      2779      2780      2777
      2781      2782      2786      2787      2788      2789      2791      2792
      2794      2795      2797      2798      2781      2786      2781      2783
      2781      2784      2781      2785      2786      2788      2786      2794
      2788      2791      2788      2790      2791      2793      2791      2797
      2797      2794      2794      2796      2797      2799      2800      2797
      2801      2802      2806      2807      2808      2809      2811      2812
      2814      2815      2817      2818      2801      2806      2801      2803
      2801      2804      2801      2805      2806      2808      2806      2814
      2808      2811      2808      2810      2811      2813      2811      2817
      2817      2814      2814      2816      2817      2819      2820      2817
      2821      2822      2826      2827      2828      2829      2831      2832
      2834      2835      2837      2838      2821      2826      2821      2823
      2821      2824      2821      2825      2826      2828      2826      2834
      2828      2831      2828      2830      2831      2833      2831      2837
      2837      2834      2834      2836      2837      2839      2840      2837
      2841      2842      2846      2847      2848      2849      2851      2852
      2854      2855      2857      2858      2841      2846      2841      2843
      2841      2844      2841      2845      2846      2848      2846      2854
      2848      2851      2848      2850      2851      2853      2851      2857
      2857      2854      2854      2856      2857      2859      2860      2857
      2861      2862      2866      2867      2868      2869      2871      2872
      2874      2875      2877      2878      2861      2866      2861      2863
      2861      2864      2861      2865      2866      2868      2866      2874
      2868      2871      2868      2870      2871      2873      2871      2877
      2877      2874      2874      2876      2877      2879      2880      2877
      2881      2882      2886      2887      2888      2889      2891      2892
      2894      2895      2897      2898      2881      2886      2881      2883
      2881      2884      2881      2885      2886      2888      2886      2894
      2888      2891      2888      2890      2891      2893      2891      2897
      2897      2894      2894      2896      2897      2899      2900      2897
      2901      2902      2906      2907      2908      2909      2911      2912
      2914      2915      2917      2918      2901      2906      2901      2903
      2901      2904      2901      2905      2906      2908      2906      2914
      2908      2911      2908      2910      2911      2913      2911      2917
      2917      2914      2914      2916      2917      2919      2920      2917
      2921      2922      2926      2927      2928      2929      2931      2932
      2934      2935      2937      2938      2921      2926      2921      2923
      2921      2924      2921      2925      2926      2928      2926      2934
      2928      2931      2928      2930      2931      2933      2931      2937
      2937      2934      2934      2936      2937      2939      2940      2937
      2941      2942      2946      2947      2948      2949      2951      2952
      2954      2955      2957      2958      2941      2946      2941      2943
      2941      2944      2941      2945      2946      2948      2946      2954
      2948      2951      2948      2950      2951      2953      2951      2957
      2957      2954      2954      2956      2957      2959      2960      2957
      2961      2962      2966      2967      2968      2969      2971      2972
      2974      2975      2977      2978      2961      2966      2961      2963
      2961      2964      2961      2965      2966      2968      2966      2974
      2968      2971      2968      2970      2971      2973      2971      2977
      2977      2974      2974      2976      2977      2979      2980      2977
      2981      2982      2986      2987      2988      2989      2991      2992
      2994      2995      2997      2998      2981      2986      2981      2983
      2981      2984      2981      2985      2986      2988      2986      2994
      2988      2991      2988      2990      2991      2993      2991      2997
      2997      2994      2994      2996      2997      2999      3000      2997
      3001      3002      3006      3007      3008      3009      3011      3012
      3014      3015      3017      3018      3001      3006      3001      3003
      3001      3004      3001      3005      3006      3008      3006      3014
      3008      3011      3008      3010      3011      3013      3011      3017
      3017      3014      3014      3016      3017      3019      3020      3017
      3021      3022      3026      3027      3028      3029      3031      3032
      3034      3035      3037      3038      3021      3026      3021      3023
      3021      3024      3021      3025      3026      3028      3026      3034
      3028      3031      3028      3030      3031      3033      3031      3037
      3037      3034      3034      3036      3037      3039      3040      3037
      3041      3042      3046      3047      3048      3049      3051      3052
      3054      3055      3057      3058      3041      3046      3041      3043
      3041      3044      3041      3045      3046      3048      3046      3054
      3048      3051      3048      3050      3051      3053      3051      3057
      3057      3054      3054      3056      3057      3059      3060      3057
      3061      3062      3066      3067      3068      3069      3071      3072
      3074      3075      3077      3078      3061      3066      3061      3063
      3061      3064      3061      3065      3066      3068      3066      3074
      3068      3071      3068      3070      3071      3073      3071      3077
      3077      3074      3074      3076      3077      3079      3080      3077
      3081      3082      3086      3087      3088      3089      3091      3092
      3094      3095      3097      3098      3081      3086      3081      3083
      3081      3084      3081      3085      3086      3088      3086      3094
      3088      3091      3088      3090      3091      3093      3091      3097
      3097      3094      3094      3096      3097      3099      3100      3097
      3101      3102      3106      3107      3108      3109      3111      3112
      3114      3115      3117      3118      3101      3106      3101      3103
      3101      3104      3101      3105      3106      3108      3106      3114
      3108      3111      3108      3110      3111      3113      3111      3117
      3117      3114      3114      3116      3117      3119      3120      3117
      3121      3122      3126      3127      3128      3129      3131      3132
      3134      3135      3137      3138      3121      3126      3121      3123
      3121      3124      3121      3125      3126      3128      3126      3134
      3128      3131      3128      3130      3131      3133      3131      3137
      3137      3134      3134      3136      3137      3139      3140      3137
      3141      3142      3146      3147      3148      3149      3151      3152
      3154      3155      3157      3158      3141      3146      3141      3143
      3141      3144      3141      3145      3146      3148      3146      3154
      3148      3151      3148      3150      3151      3153      3151      3157
      3157      3154      3154      3156      3157      3159      3160      3157
      3161      3162      3166      3167      3168      3169      3171      3172
      3174      3175      3177      3178      3161      3166      3161      3163
      3161      3164      3161      3165      3166      3168      3166      3174
      3168      3171      3168      3170      3171      3173      3171      3177
      3177      3174      3174      3176      3177      3179      3180      3177
      3181      3182      3186      3187      3188      3189      3191      3192
      3194      3195      3197      3198      3181      3186      3181      3183
      3181      3184      3181      3185      3186      3188      3186      3194
      3188      3191      3188      3190      3191      3193      3191      3197
      3197      3194      3194      3196      3197      3199      3200      3197
      3201      3202      3206      3207      3208      3209      3211      3212
      3214      3215      3217      3218      3201      3206      3201      3203
      3201      3204      3201      3205      3206      3208      3206      3214
      3208      3211      3208      3210      3211      3213      3211      3217
      3217      3214      3214      3216      3217      3219      3220      3217
      3221      3222      3226      3227      3228      3229      3231      3232
      3234      3235      3237      3238      3221      3226      3221      3223
      3221      3224      3221      3225      3226      3228      3226      3234
      3228      3231      3228      3230      3231      3233      3231      3237
      3237      3234      3234      3236      3237      3239      3240      3237
      3241      3242      3246      3247      3248      3249      3251      3252
      3254      3255      3257      3258      3241      3246      3241      3243
      3241      3244      3241      3245      3246      3248      3246      3254
      3248      3251      3248      3250      3251      3253      3251      3257
      3257      3254      3254      3256      3257      3259      3260      3257
      3261      3262      3266      3267      3268      3269      3271      3272
      3274      3275      3277      3278      3261      3266      3261      3263
      3261      3264      3261      3265      3266      3268      3266      3274
      3268      3271      3268      3270      3271      3273      3271      3277
      3277      3274      3274      3276      3277      3279      3280      3277
      3281      3282      3286      3287      3288      3289      3291      3292
      3294      3295      3297      3298      3281      3286      3281      3283
      3281      3284      3281      3285      3286      3288      3286      3294
      3288      3291      3288      3290      3291      3293      3291      3297
      3297      3294      3294      3296      3297      3299      3300      3297
      3301      3302      3306      3307      3308      3309      3311      3312
      3314      3315      3317      3318      3301      3306      3301      3303
      3301      3304      3301      3305      3306      3308      3306      3314
      3308      3311      3308      3310      3311      3313      3311      3317
      3317      3314      3314      3316      3317      3319      3320      3317
      3321      3322      3326      3327      3328      3329      3331      3332
      3334      3335      3337      3338      3321      3326      3321      3323
      3321      3324      3321      3325      3326      3328      3326      3334
      3328      3331      3328      3330      3331      3333      3331      3337
      3337      3334      3334      3336      3337      3339      3340      3337
      3341      3342      3346      3347      3348      3349      3351      3352
      3354      3355      3357      3358      3341      3346      3341      3343
      3341      3344      3341      3345      3346      3348      3346      3354
      3348      3351      3348      3350      3351      3353      3351      3357
      3357      3354      3354      3356      3357      3359      3360      3357
      3361      3362      3366      3367      3368      3369      3371      3372
      3374      3375      3377      3378      3361      3366      3361      3363
      3361      3364      3361      3365      3366      3368      3366      3374
      3368      3371      3368      3370      3371      3373      3371      3377
      3377      3374      3374      3376      3377      3379      3380      3377
      3381      3382      3386      3387      3388      3389      3391      3392
      3394      3395      3397      3398      3381      3386      3381      3383
      3381      3384      3381      3385      3386      3388      3386      3394
      3388      3391      3388      3390      3391      3393      3391      3397
      3397      3394      3394      3396      3397      3399      3400      3397
      3401      3402      3406      3407      3408      3409      3411      3412
      3414      3415      3417      3418      3401      3406      3401      3403
      3401      3404      3401      3405      3406      3408      3406      3414
      3408      3411      3408      3410      3411      3413      3411      3417
      3417      3414      3414      3416      3417      3419      3420      3417
      3421      3422      3426      3427      3428      3429      3431      3432
      3434      3435      3437      3438      3421      3426      3421      3423
      3421      3424      3421      3425      3426      3428      3426      3434
      3428      3431      3428      3430      3431      3433      3431      3437
      3437      3434      3434      3436      3437      3439      3440      3437
      3441      3442      3446      3447      3448      3449      3451      3452
      3454      3455      3457      3458      3441      3446      3441      3443
      3441      3444      3441      3445      3446      3448      3446      3454
      3448      3451      3448      3450      3451      3453      3451      3457
      3457      3454      3454      3456      3457      3459      3460      3457
      3461      3462      3466      3467      3468      3469      3471      3472
      3474      3475      3477      3478      3461      3466      3461      3463
      3461      3464      3461      3465      3466      3468      3466      3474
      3468      3471      3468      3470      3471      3473      3471      3477
      3477      3474      3474      3476      3477      3479      3480      3477
      3481      3482      3486      3487      3488      3489      3491      3492
      3494      3495      3497      3498      3481      3486      3481      3483
      3481      3484      3481      3485      3486      3488      3486      3494
      3488      3491      3488      3490      3491      3493      3491      3497
      3497      3494      3494      3496      3497      3499      3500      3497
      3501      3502      3506      3507      3508      3509      3511      3512
      3514      3515      3517      3518      3501      3506      3501      3503
      3501      3504      3501      3505      3506      3508      3506      3514
      3508      3511      3508      3510      3511      3513      3511      3517
      3517      3514      3514      3516      3517      3519      3520      3517
      3521      3522      3526      3527      3528      3529      3531      3532
      3534      3535      3537      3538      3521      3526      3521      3523
      3521      3524      3521      3525      3526      3528      3526      3534
      3528      3531      3528      3530      3531      3533      3531      3537
      3537      3534      3534      3536      3537      3539      3540      3537
      3541      3542      3546      3547      3548      3549      3551      3552
      3554      3555      3557      3558      3541      3546      3541      3543
      3541      3544      3541      3545      3546      3548      3546      3554
      3548      3551      3548      3550      3551      3553      3551      3557
      3557      3554      3554      3556      3557      3559      3560      3557
      3561      3562      3566      3567      3568      3569      3571      3572
      3574      3575      3577      3578      3561      3566      3561      3563
      3561      3564      3561      3565      3566      3568      3566      3574
      3568      3571      3568      3570      3571      3573      3571      3577
      3577      3574      3574      3576      3577      3579      3580      3577
      3581      3582      3586      3587      3588      3589      3591      3592
      3594      3595      3597      3598      3581      3586      3581      3583
      3581      3584      3581      3585      3586      3588      3586      3594
      3588      3591      3588      3590      3591      3593      3591      3597
      3597      3594      3594      3596      3597      3599      3600      3597
      3601      3602      3606      3607      3608      3609      3611      3612
      3614      3615      3617      3618      3601      3606      3601      3603
      3601      3604      3601      3605      3606      3608      3606      3614
      3608      3611      3608      3610      3611      3613      3611      3617
      3617      3614      3614      3616      3617      3619      3620      3617
      3621      3622      3626      3627      3628      3629      3631      3632
      3634      3635      3637      3638      3621      3626      3621      3623
      3621      3624      3621      3625      3626      3628      3626      3634
      3628      3631      3628      3630      3631      3633      3631      3637
      3637      3634      3634      3636      3637      3639      3640      3637
      3641      3642      3646      3647      3648      3649      3651      3652
      3654      3655      3657      3658      3641      3646      3641      3643
      3641      3644      3641      3645      3646      3648      3646      3654
      3648      3651      3648      3650      3651      3653      3651      3657
      3657      3654      3654      3656      3657      3659      3660      3657
      3661      3662      3666      3667      3668      3669      3671      3672
      3674      3675      3677      3678      3661      3666      3661      3663
      3661      3664      3661      3665      3666      3668      3666      3674
      3668      3671      3668      3670      3671      3673      3671      3677
      3677      3674      3674      3676      3677      3679      3680      3677
      3681      3682      3686      3687      3688      3689      3691      3692
      3694      3695      3697      3698      3681      3686      3681      3683
      3681      3684      3681      3685      3686      3688      3686      3694
      3688      3691      3688      3690      3691      3693      3691      3697
      3697      3694      3694      3696      3697      3699      3700      3697
      3701      3702      3706      3707      3708      3709      3711      3712
      3714      3715      3717      3718      3701      3706      3701      3703
      3701      3704      3701      3705      3706      3708      3706      3714
      3708      3711      3708      3710      3711      3713      3711      3717
      3717      3714      3714      3716      3717      3719      3720      3717
      3721      3722      3726      3727      3728      3729      3731      3732
      3734      3735      3737      3738      3721      3726      3721      3723
      3721      3724      3721      3725      3726      3728      3726      3734
      3728      3731      3728      3730      3731      3733      3731      3737
      3737      3734      3734      3736      3737      3739      3740      3737
      3741      3742      3746      3747      3748      3749      3751      3752
      3754      3755      3757      3758      3741      3746      3741      3743
      3741      3744      3741      3745      3746      3748      3746      3754
      3748      3751      3748      3750      3751      3753      3751      3757
      3757      3754      3754      3756      3757      3759      3760      3757
      3761      3762      3766      3767      3768      3769      3771      3772
      3774      3775      3777      3778      3761      3766      3761      3763
      3761      3764      3761      3765      3766      3768      3766      3774
      3768      3771      3768      3770      3771      3773      3771      3777
      3777      3774      3774      3776      3777      3779      3780      3777
      3781      3782      3786      3787      3788      3789      3791      3792
      3794      3795      3797      3798      3781      3786      3781      3783
      3781      3784      3781      3785      3786      3788      3786      3794
      3788      3791      3788      3790      3791      3793      3791      3797
      3797      3794      3794      3796      3797      3799      3800      3797
      3801      3802      3806      3807      3808      3809      3811      3812
      3814      3815      3817      3818      3801      3806      3801      3803
      3801      3804      3801      3805      3806      3808      3806      3814
      3808      3811      3808      3810      3811      3813      3811      3817
      3817      3814      3814      3816      3817      3819      3820      3817
      3821      3822      3826      3827      3828      3829      3831      3832
      3834      3835      3837      3838      3821      3826      3821      3823
      3821      3824      3821      3825      3826      3828      3826      3834
      3828      3831      3828      3830      3831      3833      3831      3837
      3837      3834      3834      3836      3837      3839      3840      3837
      3841      3842      3846      3847      3848      3849      3851      3852
      3854      3855      3857      3858      3841      3846      3841      3843
      3841      3844      3841      3845      3846      3848      3846      3854
      3848      3851      3848      3850      3851      3853      3851      3857
      3857      3854      3854      3856      3857      3859      3860      3857
      3861      3862      3866      3867      3868      3869      3871      3872
      3874      3875      3877      3878      3861      3866      3861      3863
      3861      3864      3861      3865      3866      3868      3866      3874
      3868      3871      3868      3870      3871      3873      3871      3877
      3877      3874      3874      3876      3877      3879      3880      3877
      3881      3882      3886      3887      3888      3889      3891      3892
      3894      3895      3897      3898      3881      3886      3881      3883
      3881      3884      3881      3885      3886      3888      3886      3894
      3888      3891      3888      3890      3891      3893      3891      3897
      3897      3894      3894      3896      3897      3899      3900      3897
      3901      3902      3906      3907      3908      3909      3911      3912
      3914      3915      3917      3918      3901      3906      3901      3903
      3901      3904      3901      3905      3906      3908      3906      3914
      3908      3911      3908      3910      3911      3913      3911      3917
      3917      3914      3914      3916      3917      3919      3920      3917
      3921      3922      3926      3927      3928      3929      3931      3932
      3934      3935      3937      3938      3921      3926      3921      3923
      3921      3924      3921      3925      3926      3928      3926      3934
      3928      3931      3928      3930      3931      3933      3931      3937
      3937      3934      3934      3936      3937      3939      3940      3937
      3941      3942      3946      3947      3948      3949      3951      3952
      3954      3955      3957      3958      3941      3946      3941      3943
      3941      3944      3941      3945      3946      3948      3946      3954
      3948      3951      3948      3950      3951      3953      3951      3957
      3957      3954      3954      3956      3957      3959      3960      3957
      3961      3962      3966      3967      3968      3969      3971      3972
      3974      3975      3977      3978      3961      3966      3961      3963
      3961      3964      3961      3965      3966      3968      3966      3974
      3968      3971      3968      3970      3971      3973      3971      3977
      3977      3974      3974      3976      3977      3979      3980      3977
      3981      3982      3986      3987      3988      3989      3991      3992
      3994      3995      3997      3998      3981      3986      3981      3983
      3981      3984      3981      3985      3986      3988      3986      3994
      3988      3991      3988      3990      3991      3993      3991      3997
      3997      3994      3994      3996      3997      3999      4000      3997
      4001      4002      4006      4007      4008      4009      4011      4012
      4014      4015      4017      4018      4001      4006      4001      4003
      4001      4004      4001      4005      4006      4008      4006      4014
      4008      4011      4008      4010      4011      4013      4011      4017
      4017      4014      4014      4016      4017      4019      4020      4017
      4021      4022      4026      4027      4028      4029      4031      4032
      4034      4035      4037      4038      4021      4026      4021      4023
      4021      4024      4021      4025      4026      4028      4026      4034
      4028      4031      4028      4030      4031      4033      4031      4037
      4037      4034      4034      4036      4037      4039      4040      4037
      4041      4042      4046      4047      4048      4049      4051      4052
      4054      4055      4057      4058      4041      4046      4041      4043
      4041      4044      4041      4045      4046      4048      4046      4054
      4048      4051      4048      4050      4051      4053      4051      4057
      4057      4054      4054      4056      4057      4059      4060      4057
      4061      4062      4066      4067      4068      4069      4071      4072
      4074      4075      4077      4078      4061      4066      4061      4063
      4061      4064      4061      4065      4066      4068      4066      4074
      4068      4071      4068      4070      4071      4073      4071      4077
      4077      4074      4074      4076      4077      4079      4080      4077
      4081      4082      4086      4087      4088      4089      4091      4092
      4094      4095      4097      4098      4081      4086      4081      4083
      4081      4084      4081      4085      4086      4088      4086      4094
      4088      4091      4088      4090      4091      4093      4091      4097
      4097      4094      4094      4096      4097      4099      4100      4097
      4101      4102      4106      4107      4108      4109      4111      4112
      4114      4115      4117      4118      4101      4106      4101      4103
      4101      4104      4101      4105      4106      4108      4106      4114
      4108      4111      4108      4110      4111      4113      4111      4117
      4117      4114      4114      4116      4117      4119      4120      4117
      4121      4122      4126      4127      4128      4129      4131      4132
      4134      4135      4137      4138      4121      4126      4121      4123
      4121      4124      4121      4125      4126      4128      4126      4134
      4128      4131      4128      4130      4131      4133      4131      4137
      4137      4134      4134      4136      4137      4139      4140      4137
      4141      4142      4146      4147      4148      4149      4151      4152
      4154      4155      4157      4158      4141      4146      4141      4143
      4141      4144      4141      4145      4146      4148      4146      4154
      4148      4151      4148      4150      4151      4153      4151      4157
      4157      4154      4154      4156      4157      4159      4160      4157
      4161      4162      4166      4167      4168      4169      4171      4172
      4174      4175      4177      4178      4161      4166      4161      4163
      4161      4164      4161      4165      4166      4168      4166      4174
      4168      4171      4168      4170      4171      4173      4171      4177
      4177      4174      4174      4176      4177      4179      4180      4177
      4181      4182      4186      4187      4188      4189      4191      4192
      4194      4195      4197      4198      4181      4186      4181      4183
      4181      4184      4181      4185      4186      4188      4186      4194
      4188      4191      4188      4190      4191      4193      4191      4197
      4197      4194      4194      4196      4197      4199      4200      4197
      4201      4202      4206      4207      4208      4209      4211      4212
      4214      4215      4217      4218      4201      4206      4201      4203
      4201      4204      4201      4205      4206      4208      4206      4214
      4208      4211      4208      4210      4211      4213      4211      4217
      4217      4214      4214      4216      4217      4219      4220      4217
      4221      4222      4226      4227      4228      4229      4231      4232
      4234      4235      4237      4238      4221      4226      4221      4223
      4221      4224      4221      4225      4226      4228      4226      4234
      4228      4231      4228      4230      4231      4233      4231      4237
      4237      4234      4234      4236      4237      4239      4240      4237
      4241      4242      4246      4247      4248      4249      4251      4252
      4254      4255      4257      4258      4241      4246      4241      4243
      4241      4244      4241      4245      4246      4248      4246      4254
      4248      4251      4248      4250      4251      4253      4251      4257
      4257      4254      4254      4256      4257      4259      4260      4257
      4261      4262      4266      4267      4268      4269      4271      4272
      4274      4275      4277      4278      4261      4266      4261      4263
      4261      4264      4261      4265      4266      4268      4266      4274
      4268      4271      4268      4270      4271      4273      4271      4277
      4277      4274      4274      4276      4277      4279      4280      4277
      4281      4282      4286      4287      4288      4289      4291      4292
      4294      4295      4297      4298      4281      4286      4281      4283
      4281      4284      4281      4285      4286      4288      4286      4294
      4288      4291      4288      4290      4291      4293      4291      4297
      4297      4294      4294      4296      4297      4299      4300      4297
      4301      4302      4306      4307      4308      4309      4311      4312
      4314      4315      4317      4318      4301      4306      4301      4303
      4301      4304      4301      4305      4306      4308      4306      4314
      4308      4311      4308      4310      4311      4313      4311      4317
      4317      4314      4314      4316      4317      4319      4320      4317
      4321      4322      4326      4327      4328      4329      4331      4332
      4334      4335      4337      4338      4321      4326      4321      4323
      4321      4324      4321      4325      4326      4328      4326      4334
      4328      4331      4328      4330      4331      4333      4331      4337
      4337      4334      4334      4336      4337      4339      4340      4337
      4341      4342      4346      4347      4348      4349      4351      4352
      4354      4355      4357      4358      4341      4346      4341      4343
      4341      4344      4341      4345      4346      4348      4346      4354
      4348      4351      4348      4350      4351      4353      4351      4357
      4357      4354      4354      4356      4357      4359      4360      4357
      4361      4362      4366      4367      4368      4369      4371      4372
      4374      4375      4377      4378      4361      4366      4361      4363
      4361      4364      4361      4365      4366      4368      4366      4374
      4368      4371      4368      4370      4371      4373      4371      4377
      4377      4374      4374      4376      4377      4379      4380      4377
      4381      4382      4386      4387      4388      4389      4391      4392
      4394      4395      4397      4398      4381      4386      4381      4383
      4381      4384      4381      4385      4386      4388      4386      4394
      4388      4391      4388      4390      4391      4393      4391      4397
      4397      4394      4394      4396      4397      4399      4400      4397
      4401      4402      4406      4407      4408      4409      4411      4412
      4414      4415      4417      4418      4401      4406      4401      4403
      4401      4404      4401      4405      4406      4408      4406      4414
      4408      4411      4408      4410      4411      4413      4411      4417
      4417      4414      4414      4416      4417      4419      4420      4417
      4421      4422      4426      4427      4428      4429      4431      4432
      4434      4435      4437      4438      4421      4426      4421      4423
      4421      4424      4421      4425      4426      4428      4426      4434
      4428      4431      4428      4430      4431      4433      4431      4437
      4437      4434      4434      4436      4437      4439      4440      4437
      4441      4442      4446      4447      4448      4449      4451      4452
      4454      4455      4457      4458      4441      4446      4441      4443
      4441      4444      4441      4445      4446      4448      4446      4454
      4448      4451      4448      4450      4451      4453      4451      4457
      4457      4454      4454      4456      4457      4459      4460      4457
      4461      4462      4466      4467      4468      4469      4471      4472
      4474      4475      4477      4478      4461      4466      4461      4463
      4461      4464      4461      4465      4466      4468      4466      4474
      4468      4471      4468      4470      4471      4473      4471      4477
      4477      4474      4474      4476      4477      4479      4480      4477
      4481      4482      4486      4487      4488      4489      4491      4492
      4494      4495      4497      4498      4481      4486      4481      4483
      4481      4484      4481      4485      4486      4488      4486      4494
      4488      4491      4488      4490      4491      4493      4491      4497
      4497      4494      4494      4496      4497      4499      4500      4497
      4501      4502      4506      4507      4508      4509      4511      4512
      4514      4515      4517      4518      4501      4506      4501      4503
      4501      4504      4501      4505      4506      4508      4506      4514
      4508      4511      4508      4510      4511      4513      4511      4517
      4517      4514      4514      4516      4517      4519      4520      4517
      4521      4522      4526      4527      4528      4529      4531      4532
      4534      4535      4537      4538      4521      4526      4521      4523
      4521      4524      4521      4525      4526      4528      4526      4534
      4528      4531      4528      4530      4531      4533      4531      4537
      4537      4534      4534      4536      4537      4539      4540      4537
      4541      4542      4546      4547      4548      4549      4551      4552
      4554      4555      4557      4558      4541      4546      4541      4543
      4541      4544      4541      4545      4546      4548      4546      4554
      4548      4551      4548      4550      4551      4553      4551      4557
      4557      4554      4554      4556      4557      4559      4560      4557
      4561      4562      4566      4567      4568      4569      4571      4572
      4574      4575      4577      4578      4561      4566      4561      4563
      4561      4564      4561      4565      4566      4568      4566      4574
      4568      4571      4568      4570      4571      4573      4571      4577
      4577      4574      4574      4576      4577      4579      4580      4577
      4581      4582      4586      4587      4588      4589      4591      4592
      4594      4595      4597      4598      4581      4586      4581      4583
      4581      4584      4581      4585      4586      4588      4586      4594
      4588      4591      4588      4590      4591      4593      4591      4597
      4597      4594      4594      4596      4597      4599      4600      4597
      4601      4602      4606      4607      4608      4609      4611      4612
      4614      4615      4617      4618      4601      4606      4601      4603
      4601      4604      4601      4605      4606      4608      4606      4614
      4608      4611      4608      4610      4611      4613      4611      4617
      4617      4614      4614      4616      4617      4619      4620      4617
      4621      4622      4626      4627      4628      4629      4631      4632
      4634      4635      4637      4638      4621      4626      4621      4623
      4621      4624      4621      4625      4626      4628      4626      4634
      4628      4631      4628      4630      4631      4633      4631      4637
      4637      4634      4634      4636      4637      4639      4640      4637
      4641      4642      4646      4647      4648      4649      4651      4652
      4654      4655      4657      4658      4641      4646      4641      4643
      4641      4644      4641      4645      4646      4648      4646      4654
      4648      4651      4648      4650      4651      4653      4651      4657
      4657      4654      4654      4656      4657      4659      4660      4657
      4661      4662      4666      4667      4668      4669      4671      4672
      4674      4675      4677      4678      4661      4666      4661      4663
      4661      4664      4661      4665      4666      4668      4666      4674
      4668      4671      4668      4670      4671      4673      4671      4677
      4677      4674      4674      4676      4677      4679      4680      4677
      4681      4682      4686      4687      4688      4689      4691      4692
      4694      4695      4697      4698      4681      4686      4681      4683
      4681      4684      4681      4685      4686      4688      4686      4694
      4688      4691      4688      4690      4691      4693      4691      4697
      4697      4694      4694      4696      4697      4699      4700      4697
      4701      4702      4706      4707      4708      4709      4711      4712
      4714      4715      4717      4718      4701      4706      4701      4703
      4701      4704      4701      4705      4706      4708      4706      4714
      4708      4711      4708      4710      4711      4713      4711      4717
      4717      4714      4714      4716      4717      4719      4720      4717
      4721      4722      4726      4727      4728      4729      4731      4732
      4734      4735      4737      4738      4721      4726      4721      4723
      4721      4724      4721      4725      4726      4728      4726      4734
      4728      4731      4728      4730      4731      4733      4731      4737
      4737      4734      4734      4736      4737      4739      4740      4737
      4741      4742      4746      4747      4748      4749      4751      4752
      4754      4755      4757      4758      4741      4746      4741      4743
      4741      4744      4741      4745      4746      4748      4746      4754
      4748      4751      4748      4750      4751      4753      4751      4757
      4757      4754      4754      4756      4757      4759      4760      4757
      4761      4762      4766      4767      4768      4769      4771      4772
      4774      4775      4777      4778      4761      4766      4761      4763
      4761      4764      4761      4765      4766      4768      4766      4774
      4768      4771      4768      4770      4771      4773      4771      4777
      4777      4774      4774      4776      4777      4779      4780      4777
      4781      4782      4786      4787      4788      4789      4791      4792
      4794      4795      4797      4798      4781      4786      4781      4783
      4781      4784      4781      4785      4786      4788      4786      4794
      4788      4791      4788      4790      4791      4793      4791      4797
      4797      4794      4794      4796      4797      4799      4800      4797
      4801      4802      4806      4807      4808      4809      4811      4812
      4814      4815      4817      4818      4801      4806      4801      4803
      4801      4804      4801      4805      4806      4808      4806      4814
      4808      4811      4808      4810      4811      4813      4811      4817
      4817      4814      4814      4816      4817      4819      4820      4817
      4821      4822      4826      4827      4828      4829      4831      4832
      4834      4835      4837      4838      4821      4826      4821      4823
      4821      4824      4821      4825      4826      4828      4826      4834
      4828      4831      4828      4830      4831      4833      4831      4837
      4837      4834      4834      4836      4837      4839      4840      4837
      4841      4842      4846      4847      4848      4849      4851      4852
      4854      4855      4857      4858      4841      4846      4841      4843
      4841      4844      4841      4845      4846      4848      4846      4854
      4848      4851      4848      4850      4851      4853      4851      4857
      4857      4854      4854      4856      4857      4859      4860      4857
      4861      4862      4866      4867      4868      4869      4871      4872
      4874      4875      4877      4878      4861      4866      4861      4863
      4861      4864      4861      4865      4866      4868      4866      4874
      4868      4871      4868      4870      4871      4873      4871      4877
      4877      4874      4874      4876      4877      4879      4880      4877
      4881      4882      4886      4887      4888      4889      4891      4892
      4894      4895      4897      4898      4881      4886      4881      4883
      4881      4884      4881      4885      4886      4888      4886      4894
      4888      4891      4888      4890      4891      4893      4891      4897
      4897      4894      4894      4896      4897      4899      4900      4897
      4901      4902      4906      4907      4908      4909      4911      4912
      4914      4915      4917      4918      4901      4906      4901      4903
      4901      4904      4901      4905      4906      4908      4906      4914
      4908      4911      4908      4910      4911      4913      4911      4917
      4917      4914      4914      4916      4917      4919      4920      4917
      4921      4922      4926      4927      4928      4929      4931      4932
      4934      4935      4937      4938      4921      4926      4921      4923
      4921      4924      4921      4925      4926      4928      4926      4934
      4928      4931      4928      4930      4931      4933      4931      4937
      4937      4934      4934      4936      4937      4939      4940      4937
      4941      4942      4946      4947      4948      4949      4951      4952
      4954      4955      4957      4958      4941      4946      4941      4943
      4941      4944      4941      4945      4946      4948      4946      4954
      4948      4951      4948      4950      4951      4953      4951      4957
      4957      4954      4954      4956      4957      4959      4960      4957
      4961      4962      4966      4967      4968      4969      4971      4972
      4974      4975      4977      4978      4961      4966      4961      4963
      4961      4964      4961      4965      4966      4968      4966      4974
      4968      4971      4968      4970      4971      4973      4971      4977
      4977      4974      4974      4976      4977      4979      4980      4977
      4981      4982      4986      4987      4988      4989      4991      4992
      4994      4995      4997      4998      4981      4986      4981      4983
      4981      4984      4981      4985      4986      4988      4986      4994
      4988      4991      4988      4990      4991      4993      4991      4997
      4997      4994      4994      4996      4997      4999      5000      4997
      5001      5002      5006      5007      5008      5009      5011      5012
      5014      5015      5017      5018      5001      5006      5001      5003
      5001      5004      5001      5005      5006      5008      5006      5014
      5008      5011      5008      5010      5011      5013      5011      5017
      5017      5014      5014      5016      5017      5019      5020      5017
      5021      5022      5026      5027      5028      5029      5031      5032
      5034      5035      5037      5038      5021      5026      5021      5023
      5021      5024      5021      5025      5026      5028      5026      5034
      5028      5031      5028      5030      5031      5033      5031      5037
      5037      5034      5034      5036      5037      5039      5040      5037
      5041      5042      5046      5047      5048      5049      5051      5052
      5054      5055      5057      5058      5041      5046      5041      5043
      5041      5044      5041      5045      5046      5048      5046      5054
      5048      5051      5048      5050      5051      5053      5051      5057
      5057      5054      5054      5056      5057      5059      5060      5057
      5061      5062      5066      5067      5068      5069      5071      5072
      5074      5075      5077      5078      5061      5066      5061      5063
      5061      5064      5061      5065      5066      5068      5066      5074
      5068      5071      5068      5070      5071      5073      5071      5077
      5077      5074      5074      5076      5077      5079      5080      5077
      5081      5082      5086      5087      5088      5089      5091      5092
      5094      5095      5097      5098      5081      5086      5081      5083
      5081      5084      5081      5085      5086      5088      5086      5094
      5088      5091      5088      5090      5091      5093      5091      5097
      5097      5094      5094      5096      5097      5099      5100      5097
      5101      5102      5106      5107      5108      5109      5111      5112
      5114      5115      5117      5118      5101      5106      5101      5103
      5101      5104      5101      5105      5106      5108      5106      5114
      5108      5111      5108      5110      5111      5113      5111      5117
      5117      5114      5114      5116      5117      5119      5120      5117
      5121      5122      5126      5127      5128      5129      5131      5132
      5134      5135      5137      5138      5121      5126      5121      5123
      5121      5124      5121      5125      5126      5128      5126      5134
      5128      5131      5128      5130      5131      5133      5131      5137
      5137      5134      5134      5136      5137      5139      5140      5137
      5141      5142      5146      5147      5148      5149      5151      5152
      5154      5155      5157      5158      5141      5146      5141      5143
      5141      5144      5141      5145      5146      5148      5146      5154
      5148      5151      5148      5150      5151      5153      5151      5157
      5157      5154      5154      5156      5157      5159      5160      5157
      5161      5162      5166      5167      5168      5169      5171      5172
      5174      5175      5177      5178      5161      5166      5161      5163
      5161      5164      5161      5165      5166      5168      5166      5174
      5168      5171      5168      5170      5171      5173      5171      5177
      5177      5174      5174      5176      5177      5179      5180      5177
      5181      5182      5186      5187      5188      5189      5191      5192
      5194      5195      5197      5198      5181      5186      5181      5183
      5181      5184      5181      5185      5186      5188      5186      5194
      5188      5191      5188      5190      5191      5193      5191      5197
      5197      5194      5194      5196      5197      5199      5200      5197
      5201      5202      5206      5207      5208      5209      5211      5212
      5214      5215      5217      5218      5201      5206      5201      5203
      5201      5204      5201      5205      5206      5208      5206      5214
      5208      5211      5208      5210      5211      5213      5211      5217
      5217      5214      5214      5216      5217      5219      5220      5217
      5221      5222      5226      5227      5228      5229      5231      5232
      5234      5235      5237      5238      5221      5226      5221      5223
      5221      5224      5221      5225      5226      5228      5226      5234
      5228      5231      5228      5230      5231      5233      5231      5237
      5237      5234      5234      5236      5237      5239      5240      5237
      5241      5242      5246      5247      5248      5249      5251      5252
      5254      5255      5257      5258      5241      5246      5241      5243
      5241      5244      5241      5245      5246      5248      5246      5254
      5248      5251      5248      5250      5251      5253      5251      5257
      5257      5254      5254      5256      5257      5259      5260      5257
      5261      5262      5266      5267      5268      5269      5271      5272
      5274      5275      5277      5278      5261      5266      5261      5263
      5261      5264      5261      5265      5266      5268      5266      5274
      5268      5271      5268      5270      5271      5273      5271      5277
      5277      5274      5274      5276      5277      5279      5280      5277
      5281      5282      5286      5287      5288      5289      5291      5292
      5294      5295      5297      5298      5281      5286      5281      5283
      5281      5284      5281      5285      5286      5288      5286      5294
      5288      5291      5288      5290      5291      5293      5291      5297
      5297      5294      5294      5296      5297      5299      5300      5297
      5301      5302      5306      5307      5308      5309      5311      5312
      5314      5315      5317      5318      5301      5306      5301      5303
      5301      5304      5301      5305      5306      5308      5306      5314
      5308      5311      5308      5310      5311      5313      5311      5317
      5317      5314      5314      5316      5317      5319      5320      5317
      5321      5322      5326      5327      5328      5329      5331      5332
      5334      5335      5337      5338      5321      5326      5321      5323
      5321      5324      5321      5325      5326      5328      5326      5334
      5328      5331      5328      5330      5331      5333      5331      5337
      5337      5334      5334      5336      5337      5339      5340      5337
      5341      5342      5346      5347      5348      5349      5351      5352
      5354      5355      5357      5358      5341      5346      5341      5343
      5341      5344      5341      5345      5346      5348      5346      5354
      5348      5351      5348      5350      5351      5353      5351      5357
      5357      5354      5354      5356      5357      5359      5360      5357
      5361      5362      5366      5367      5368      5369      5371      5372
      5374      5375      5377      5378      5361      5366      5361      5363
      5361      5364      5361      5365      5366      5368      5366      5374
      5368      5371      5368      5370      5371      5373      5371      5377
      5377      5374      5374      5376      5377      5379      5380      5377
      5381      5382      5386      5387      5388      5389      5391      5392
      5394      5395      5397      5398      5381      5386      5381      5383
      5381      5384      5381      5385      5386      5388      5386      5394
      5388      5391      5388      5390      5391      5393      5391      5397
      5397      5394      5394      5396      5397      5399      5400      5397
      5401      5402      5406      5407      5408      5409      5411      5412
      5414      5415      5417      5418      5401      5406      5401      5403
      5401      5404      5401      5405      5406      5408      5406      5414
      5408      5411      5408      5410      5411      5413      5411      5417
      5417      5414      5414      5416      5417      5419      5420      5417
      5421      5422      5426      5427      5428      5429      5431      5432
      5434      5435      5437      5438      5421      5426      5421      5423
      5421      5424      5421      5425      5426      5428      5426      5434
      5428      5431      5428      5430      5431      5433      5431      5437
      5437      5434      5434      5436      5437      5439      5440      5437
      5441      5442      5446      5447      5448      5449      5451      5452
      5454      5455      5457      5458      5441      5446      5441      5443
      5441      5444      5441      5445      5446      5448      5446      5454
      5448      5451      5448      5450      5451      5453      5451      5457
      5457      5454      5454      5456      5457      5459      5460      5457
      5461      5462      5466      5467      5468      5469      5471      5472
      5474      5475      5477      5478      5461      5466      5461      5463
      5461      5464      5461      5465      5466      5468      5466      5474
      5468      5471      5468      5470      5471      5473      5471      5477
      5477      5474      5474      5476      5477      5479      5480      5477
      5481      5482      5486      5487      5488      5489      5491      5492
      5494      5495      5497      5498      5481      5486      5481      5483
      5481      5484      5481      5485      5486      5488      5486      5494
      5488      5491      5488      5490      5491      5493      5491      5497
      5497      5494      5494      5496      5497      5499      5500      5497
      5501      5502      5506      5507      5508      5509      5511      5512
      5514      5515      5517      5518      5501      5506      5501      5503
      5501      5504      5501      5505      5506      5508      5506      5514
      5508      5511      5508      5510      5511      5513      5511      5517
      5517      5514      5514      5516      5517      5519      5520      5517
      5521      5522      5526      5527      5528      5529      5531      5532
      5534      5535      5537      5538      5521      5526      5521      5523
      5521      5524      5521      5525      5526      5528      5526      5534
      5528      5531      5528      5530      5531      5533      5531      5537
      5537      5534      5534      5536      5537      5539      5540      5537
      5541      5542      5546      5547      5548      5549      5551      5552
      5554      5555      5557      5558      5541      5546      5541      5543
      5541      5544      5541      5545      5546      5548      5546      5554
      5548      5551      5548      5550      5551      5553      5551      5557
      5557      5554      5554      5556      5557      5559      5560      5557
      5561      5562      5566      5567      5568      5569      5571      5572
      5574      5575      5577      5578      5561      5566      5561      5563
      5561      5564      5561      5565      5566      5568      5566      5574
      5568      5571      5568      5570      5571      5573      5571      5577
      5577      5574      5574      5576      5577      5579      5580      5577
      5581      5582      5586      5587      5588      5589      5591      5592
      5594      5595      5597      5598      5581      5586      5581      5583
      5581      5584      5581      5585      5586      5588      5586      5594
      5588      5591      5588      5590      5591      5593      5591      5597
      5597      5594      5594      5596      5597      5599      5600      5597
      5601      5602      5606      5607      5608      5609      5611      5612
      5614      5615      5617      5618      5601      5606      5601      5603
      5601      5604      5601      5605      5606      5608      5606      5614
      5608      5611      5608      5610      5611      5613      5611      5617
      5617      5614      5614      5616      5617      5619      5620      5617
      5621      5622      5626      5627      5628      5629      5631      5632
      5634      5635      5637      5638      5621      5626      5621      5623
      5621      5624      5621      5625      5626      5628      5626      5634
      5628      5631      5628      5630      5631      5633      5631      5637
      5637      5634      5634      5636      5637      5639      5640      5637
      5641      5642      5646      5647      5648      5649      5651      5652
      5654      5655      5657      5658      5641      5646      5641      5643
      5641      5644      5641      5645      5646      5648      5646      5654
      5648      5651      5648      5650      5651      5653      5651      5657
      5657      5654      5654      5656      5657      5659      5660      5657
      5661      5662      5666      5667      5668      5669      5671      5672
      5674      5675      5677      5678      5661      5666      5661      5663
      5661      5664      5661      5665      5666      5668      5666      5674
      5668      5671      5668      5670      5671      5673      5671      5677
      5677      5674      5674      5676      5677      5679      5680      5677
      5681      5682      5686      5687      5688      5689      5691      5692
      5694      5695      5697      5698      5681      5686      5681      5683
      5681      5684      5681      5685      5686      5688      5686      5694
      5688      5691      5688      5690      5691      5693      5691      5697
      5697      5694      5694      5696      5697      5699      5700      5697
      5701      5702      5706      5707      5708      5709      5711      5712
      5714      5715      5717      5718      5701      5706      5701      5703
      5701      5704      5701      5705      5706      5708      5706      5714
      5708      5711      5708      5710      5711      5713      5711      5717
      5717      5714      5714      5716      5717      5719      5720      5717
      5721      5722      5726      5727      5728      5729      5731      5732
      5734      5735      5737      5738      5721      5726      5721      5723
      5721      5724      5721      5725      5726      5728      5726      5734
      5728      5731      5728      5730      5731      5733      5731      5737
      5737      5734      5734      5736      5737      5739      5740      5737
      5741      5742      5746      5747      5748      5749      5751      5752
      5754      5755      5757      5758      5741      5746      5741      5743
      5741      5744      5741      5745      5746      5748      5746      5754
      5748      5751      5748      5750      5751      5753      5751      5757
      5757      5754      5754      5756      5757      5759      5760      5757
      5761      5762      5766      5767      5768      5769      5771      5772
      5774      5775      5777      5778      5761      5766      5761      5763
      5761      5764      5761      5765      5766      5768      5766      5774
      5768      5771      5768      5770      5771      5773      5771      5777
      5777      5774      5774      5776      5777      5779      5780      5777
      5781      5782      5786      5787      5788      5789      5791      5792
      5794      5795      5797      5798      5781      5786      5781      5783
      5781      5784      5781      5785      5786      5788      5786      5794
      5788      5791      5788      5790      5791      5793      5791      5797
      5797      5794      5794      5796      5797      5799      5800      5797
      5801      5802      5803      5804      5808      5809      5810      5811
      5803      5801      5801      5808      5801      5810      5803      5805
      5803      5806      5803      5807      5810      5812      5808      5813
      5808      5814      5810      5815      5810      5816      5817      5818
      5819      5820      5824      5825      5826      5827      5819      5817
      5817      5824      5817      5826      5819      5821      5819      5822
      5819      5823      5826      5828      5824      5829      5824      5830
      5826      5831      5826      5832      5833      5834      5835      5836
      5840      5841      5842      5843      5835      5833      5833      5840
      5833      5842      5835      5837      5835      5838      5835      5839
      5842      5844      5840      5845      5840      5846      5842      5847
      5842      5848      5849      5850      5851      5852      5856      5857
      5858      5859      5851      5849      5849      5856      5849      5858
      5851      5853      5851      5854      5851      5855      5858      5860
      5856      5861      5856      5862      5858      5863      5858      5864
      5865      5866      5867      5868      5872      5873      5874      5875
      5867      5865      5865      5872      5865      5874      5867      5869
      5867      5870      5867      5871      5874      5876      5872      5877
      5872      5878      5874      5879      5874      5880      5881      5882
      5883      5884      5888      5889      5890      5891      5883      5881
      5881      5888      5881      5890      5883      5885      5883      5886
      5883      5887      5890      5892      5888      5893      5888      5894
      5890      5895      5890      5896      5897      5898      5899      5900
      5904      5905      5906      5907      5899      5897      5897      5904
      5897      5906      5899      5901      5899      5902      5899      5903
      5906      5908      5904      5909      5904      5910      5906      5911
      5906      5912      5913      5914      5915      5916      5920      5921
      5922      5923      5915      5913      5913      5920      5913      5922
      5915      5917      5915      5918      5915      5919      5922      5924
      5920      5925      5920      5926      5922      5927      5922      5928
      5929      5930      5931      5932      5936      5937      5938      5939
      5931      5929      5929      5936      5929      5938      5931      5933
      5931      5934      5931      5935      5938      5940      5936      5941
      5936      5942      5938      5943      5938      5944      5945      5946
      5947      5948      5952      5953      5954      5955      5947      5945
      5945      5952      5945      5954      5947      5949      5947      5950
      5947      5951      5954      5956      5952      5957      5952      5958
      5954      5959      5954      5960      5961      5962      5963      5964
      5968      5969      5970      5971      5963      5961      5961      5968
      5961      5970      5963      5965      5963      5966      5963      5967
      5970      5972      5968      5973      5968      5974      5970      5975
      5970      5976      5977      5978      5979      5980      5984      5985
      5986      5987      5979      5977      5977      5984      5977      5986
      5979      5981      5979      5982      5979      5983      5986      5988
      5984      5989      5984      5990      5986      5991      5986      5992
      5993      5994      5995      5996      6000      6001      6002      6003
      5995      5993      5993      6000      5993      6002      5995      5997
      5995      5998      5995      5999      6002      6004      6000      6005
      6000      6006      6002      6007      6002      6008      6009      6010
      6011      6012      6016      6017      6018      6019      6011      6009
      6009      6016      6009      6018      6011      6013      6011      6014
      6011      6015      6018      6020      6016      6021      6016      6022
      6018      6023      6018      6024      6025      6026      6027      6028
      6032      6033      6034      6035      6027      6025      6025      6032
      6025      6034      6027      6029      6027      6030      6027      6031
      6034      6036      6032      6037      6032      6038      6034      6039
      6034      6040      6041      6042      6043      6044      6048      6049
      6050      6051      6043      6041      6041      6048      6041      6050
      6043      6045      6043      6046      6043      6047      6050      6052
      6048      6053      6048      6054      6050      6055      6050      6056
      6057      6058      6059      6060      6064      6065      6066      6067
      6059      6057      6057      6064      6057      6066      6059      6061
      6059      6062      6059      6063      6066      6068      6064      6069
      6064      6070      6066      6071      6066      6072      6073      6074
      6075      6076      6080      6081      6082      6083      6075      6073
      6073      6080      6073      6082      6075      6077      6075      6078
      6075      6079      6082      6084      6080      6085      6080      6086
      6082      6087      6082      6088      6089      6090      6091      6092
      6096      6097      6098      6099      6091      6089      6089      6096
      6089      6098      6091      6093      6091      6094      6091      6095
      6098      6100      6096      6101      6096      6102      6098      6103
      6098      6104      6105      6106      6107      6108      6112      6113
      6114      6115      6107      6105      6105      6112      6105      6114
      6107      6109      6107      6110      6107      6111      6114      6116
      6112      6117      6112      6118      6114      6119      6114      6120
      6121      6122      6123      6124      6128      6129      6130      6131
      6123      6121      6121      6128      6121      6130      6123      6125
      6123      6126      6123      6127      6130      6132      6128      6133
      6128      6134      6130      6135      6130      6136      6137      6138
      6139      6140      6144      6145      6146      6147      6139      6137
      6137      6144      6137      6146      6139      6141      6139      6142
      6139      6143      6146      6148      6144      6149      6144      6150
      6146      6151      6146      6152      6153      6154      6155      6156
      6160      6161      6162      6163      6155      6153      6153      6160
      6153      6162      6155      6157      6155      6158      6155      6159
      6162      6164      6160      6165      6160      6166      6162      6167
      6162      6168      6169      6170      6171      6172      6176      6177
      6178      6179      6171      6169      6169      6176      6169      6178
      6171      6173      6171      6174      6171      6175      6178      6180
      6176      6181      6176      6182      6178      6183      6178      6184
      6185      6186      6187      6188      6192      6193      6194      6195
      6187      6185      6185      6192      6185      6194      6187      6189
      6187      6190      6187      6191      6194      6196      6192      6197
      6192      6198      6194      6199      6194      6200      6201      6202
      6203      6204      6208      6209      6210      6211      6203      6201
      6201      6208      6201      6210      6203      6205      6203      6206
      6203      6207      6210      6212      6208      6213      6208      6214
      6210      6215      6210      6216      6217      6218      6219      6220
      6224      6225      6226      6227      6219      6217      6217      6224
      6217      6226      6219      6221      6219      6222      6219      6223
      6226      6228      6224      6229      6224      6230      6226      6231
      6226      6232      6233      6234      6235      6236      6240      6241
      6242      6243      6235      6233      6233      6240      6233      6242
      6235      6237      6235      6238      6235      6239      6242      6244
      6240      6245      6240      6246      6242      6247      6242      6248
      6249      6250      6251      6252      6256      6257      6258      6259
      6251      6249      6249      6256      6249      6258      6251      6253
      6251      6254      6251      6255      6258      6260      6256      6261
      6256      6262      6258      6263      6258      6264      6265      6266
      6267      6268      6272      6273      6274      6275      6267      6265
      6265      6272      6265      6274      6267      6269      6267      6270
      6267      6271      6274      6276      6272      6277      6272      6278
      6274      6279      6274      6280      6281      6282      6283      6284
      6288      6289      6290      6291      6283      6281      6281      6288
      6281      6290      6283      6285      6283      6286      6283      6287
      6290      6292      6288      6293      6288      6294      6290      6295
      6290      6296      6297      6298      6299      6300      6304      6305
      6306      6307      6299      6297      6297      6304      6297      6306
      6299      6301      6299      6302      6299      6303      6306      6308
      6304      6309      6304      6310      6306      6311      6306      6312
      6313      6314      6315      6316      6320      6321      6322      6323
      6315      6313      6313      6320      6313      6322      6315      6317
      6315      6318      6315      6319      6322      6324      6320      6325
      6320      6326      6322      6327      6322      6328      6329      6330
      6331      6332      6336      6337      6338      6339      6331      6329
      6329      6336      6329      6338      6331      6333      6331      6334
      6331      6335      6338      6340      6336      6341      6336      6342
      6338      6343      6338      6344      6345      6346      6347      6348
      6352      6353      6354      6355      6347      6345      6345      6352
      6345      6354      6347      6349      6347      6350      6347      6351
      6354      6356      6352      6357      6352      6358      6354      6359
      6354      6360      6361      6362      6363      6364      6368      6369
      6370      6371      6363      6361      6361      6368      6361      6370
      6363      6365      6363      6366      6363      6367      6370      6372
      6368      6373      6368      6374      6370      6375      6370      6376
      6377      6378      6379      6380      6384      6385      6386      6387
      6379      6377      6377      6384      6377      6386      6379      6381
      6379      6382      6379      6383      6386      6388      6384      6389
      6384      6390      6386      6391      6386      6392      6393      6394
      6395      6396      6400      6401      6402      6403      6395      6393
      6393      6400      6393      6402      6395      6397      6395      6398
      6395      6399      6402      6404      6400      6405      6400      6406
      6402      6407      6402      6408      6409      6410      6411      6412
      6416      6417      6418      6419      6411      6409      6409      6416
      6409      6418      6411      6413      6411      6414      6411      6415
      6418      6420      6416      6421      6416      6422      6418      6423
      6418      6424      6425      6426      6427      6428      6432      6433
      6434      6435      6427      6425      6425      6432      6425      6434
      6427      6429      6427      6430      6427      6431      6434      6436
      6432      6437      6432      6438      6434      6439      6434      6440
      6441      6442      6443      6444      6448      6449      6450      6451
      6443      6441      6441      6448      6441      6450      6443      6445
      6443      6446      6443      6447      6450      6452      6448      6453
      6448      6454      6450      6455      6450      6456      6457      6458
      6459      6460      6464      6465      6466      6467      6459      6457
      6457      6464      6457      6466      6459      6461      6459      6462
      6459      6463      6466      6468      6464      6469      6464      6470
      6466      6471      6466      6472      6473      6474      6475      6476
      6480      6481      6482      6483      6475      6473      6473      6480
      6473      6482      6475      6477      6475      6478      6475      6479
      6482      6484      6480      6485      6480      6486      6482      6487
      6482      6488      6489      6490      6491      6492      6496      6497
      6498      6499      6491      6489      6489      6496      6489      6498
      6491      6493      6491      6494      6491      6495      6498      6500
      6496      6501      6496      6502      6498      6503      6498      6504
      6505      6506      6507      6508      6512      6513      6514      6515
      6507      6505      6505      6512      6505      6514      6507      6509
      6507      6510      6507      6511      6514      6516      6512      6517
      6512      6518      6514      6519      6514      6520      6521      6522
      6523      6524      6528      6529      6530      6531      6523      6521
      6521      6528      6521      6530      6523      6525      6523      6526
      6523      6527      6530      6532      6528      6533      6528      6534
      6530      6535      6530      6536      6537      6538      6539      6540
      6544      6545      6546      6547      6539      6537      6537      6544
      6537      6546      6539      6541      6539      6542      6539      6543
      6546      6548      6544      6549      6544      6550      6546      6551
      6546      6552      6553      6554      6555      6556      6560      6561
      6562      6563      6555      6553      6553      6560      6553      6562
      6555      6557      6555      6558      6555      6559      6562      6564
      6560      6565      6560      6566      6562      6567      6562      6568
      6569      6570      6571      6572      6576      6577      6578      6579
      6571      6569      6569      6576      6569      6578      6571      6573
      6571      6574      6571      6575      6578      6580      6576      6581
      6576      6582      6578      6583      6578      6584      6585      6586
      6587      6588      6592      6593      6594      6595      6587      6585
      6585      6592      6585      6594      6587      6589      6587      6590
      6587      6591      6594      6596      6592      6597      6592      6598
      6594      6599      6594      6600      6601      6602      6603      6604
      6608      6609      6610      6611      6603      6601      6601      6608
      6601      6610      6603      6605      6603      6606      6603      6607
      6610      6612      6608      6613      6608      6614      6610      6615
      6610      6616      6617      6618      6619      6620      6624      6625
      6626      6627      6619      6617      6617      6624      6617      6626
      6619      6621      6619      6622      6619      6623      6626      6628
      6624      6629      6624      6630      6626      6631      6626      6632
      6633      6634      6635      6636      6640      6641      6642      6643
      6635      6633      6633      6640      6633      6642      6635      6637
      6635      6638      6635      6639      6642      6644      6640      6645
      6640      6646      6642      6647      6642      6648      6649      6650
      6651      6652      6656      6657      6658      6659      6651      6649
      6649      6656      6649      6658      6651      6653      6651      6654
      6651      6655      6658      6660      6656      6661      6656      6662
      6658      6663      6658      6664      6665      6666      6667      6668
      6672      6673      6674      6675      6667      6665      6665      6672
      6665      6674      6667      6669      6667      6670      6667      6671
      6674      6676      6672      6677      6672      6678      6674      6679
      6674      6680      6681      6682      6683      6684      6688      6689
      6690      6691      6683      6681      6681      6688      6681      6690
      6683      6685      6683      6686      6683      6687      6690      6692
      6688      6693      6688      6694      6690      6695      6690      6696
      6697      6698      6699      6700      6704      6705      6706      6707
      6699      6697      6697      6704      6697      6706      6699      6701
      6699      6702      6699      6703      6706      6708      6704      6709
      6704      6710      6706      6711      6706      6712      6713      6714
      6715      6716      6720      6721      6722      6723      6715      6713
      6713      6720      6713      6722      6715      6717      6715      6718
      6715      6719      6722      6724      6720      6725      6720      6726
      6722      6727      6722      6728      6729      6730      6731      6732
      6736      6737      6738      6739      6731      6729      6729      6736
      6729      6738      6731      6733      6731      6734      6731      6735
      6738      6740      6736      6741      6736      6742      6738      6743
      6738      6744      6745      6746      6747      6748      6752      6753
      6754      6755      6747      6745      6745      6752      6745      6754
      6747      6749      6747      6750      6747      6751      6754      6756
      6752      6757      6752      6758      6754      6759      6754      6760
      6761      6762      6763      6764      6768      6769      6770      6771
      6763      6761      6761      6768      6761      6770      6763      6765
      6763      6766      6763      6767      6770      6772      6768      6773
      6768      6774      6770      6775      6770      6776      6777      6778
      6779      6780      6784      6785      6786      6787      6779      6777
      6777      6784      6777      6786      6779      6781      6779      6782
      6779      6783      6786      6788      6784      6789      6784      6790
      6786      6791      6786      6792      6793      6794      6795      6796
      6800      6801      6802      6803      6795      6793      6793      6800
      6793      6802      6795      6797      6795      6798      6795      6799
      6802      6804      6800      6805      6800      6806      6802      6807
      6802      6808      6809      6810      6811      6812      6816      6817
      6818      6819      6811      6809      6809      6816      6809      6818
      6811      6813      6811      6814      6811      6815      6818      6820
      6816      6821      6816      6822      6818      6823      6818      6824
      6825      6826      6827      6828      6832      6833      6834      6835
      6827      6825      6825      6832      6825      6834      6827      6829
      6827      6830      6827      6831      6834      6836      6832      6837
      6832      6838      6834      6839      6834      6840      6841      6842
      6843      6844      6848      6849      6850      6851      6843      6841
      6841      6848      6841      6850      6843      6845      6843      6846
      6843      6847      6850      6852      6848      6853      6848      6854
      6850      6855      6850      6856      6857      6858      6859      6860
      6864      6865      6866      6867      6859      6857      6857      6864
      6857      6866      6859      6861      6859      6862      6859      6863
      6866      6868      6864      6869      6864      6870      6866      6871
      6866      6872      6873      6874      6875      6876      6880      6881
      6882      6883      6875      6873      6873      6880      6873      6882
      6875      6877      6875      6878      6875      6879      6882      6884
      6880      6885      6880      6886      6882      6887      6882      6888
      6889      6890      6891      6892      6896      6897      6898      6899
      6891      6889      6889      6896      6889      6898      6891      6893
      6891      6894      6891      6895      6898      6900      6896      6901
      6896      6902      6898      6903      6898      6904      6905      6906
      6907      6908      6912      6913      6914      6915      6907      6905
      6905      6912      6905      6914      6907      6909      6907      6910
      6907      6911      6914      6916      6912      6917      6912      6918
      6914      6919      6914      6920      6921      6922      6923      6924
      6928      6929      6930      6931      6923      6921      6921      6928
      6921      6930      6923      6925      6923      6926      6923      6927
      6930      6932      6928      6933      6928      6934      6930      6935
      6930      6936      6937      6938      6939      6940      6944      6945
      6946      6947      6939      6937      6937      6944      6937      6946
      6939      6941      6939      6942      6939      6943      6946      6948
      6944      6949      6944      6950      6946      6951      6946      6952
      6953      6954      6955      6956      6960      6961      6962      6963
      6955      6953      6953      6960      6953      6962      6955      6957
      6955      6958      6955      6959      6962      6964      6960      6965
      6960      6966      6962      6967      6962      6968      6969      6970
      6971      6972      6976      6977      6978      6979      6971      6969
      6969      6976      6969      6978      6971      6973      6971      6974
      6971      6975      6978      6980      6976      6981      6976      6982
      6978      6983      6978      6984      6985      6986      6987      6988
      6992      6993      6994      6995      6987      6985      6985      6992
      6985      6994      6987      6989      6987      6990      6987      6991
      6994      6996      6992      6997      6992      6998      6994      6999
      6994      7000      7001      7002      7003      7004      7008      7009
      7010      7011      7003      7001      7001      7008      7001      7010
      7003      7005      7003      7006      7003      7007      7010      7012
      7008      7013      7008      7014      7010      7015      7010      7016
      7017      7018      7019      7020      7024      7025      7026      7027
      7019      7017      7017      7024      7017      7026      7019      7021
      7019      7022      7019      7023      7026      7028      7024      7029
      7024      7030      7026      7031      7026      7032      7033      7034
      7035      7036      7040      7041      7042      7043      7035      7033
      7033      7040      7033      7042      7035      7037      7035      7038
      7035      7039      7042      7044      7040      7045      7040      7046
      7042      7047      7042      7048      7049      7050      7051      7052
      7056      7057      7058      7059      7051      7049      7049      7056
      7049      7058      7051      7053      7051      7054      7051      7055
      7058      7060      7056      7061      7056      7062      7058      7063
      7058      7064      7065      7066      7067      7068      7072      7073
      7074      7075      7067      7065      7065      7072      7065      7074
      7067      7069      7067      7070      7067      7071      7074      7076
      7072      7077      7072      7078      7074      7079      7074      7080
      7081      7082      7083      7084      7088      7089      7090      7091
      7083      7081      7081      7088      7081      7090      7083      7085
      7083      7086      7083      7087      7090      7092      7088      7093
      7088      7094      7090      7095      7090      7096      7097      7098
      7099      7100      7104      7105      7106      7107      7099      7097
      7097      7104      7097      7106      7099      7101      7099      7102
      7099      7103      7106      7108      7104      7109      7104      7110
      7106      7111      7106      7112      7113      7114      7115      7116
      7120      7121      7122      7123      7115      7113      7113      7120
      7113      7122      7115      7117      7115      7118      7115      7119
      7122      7124      7120      7125      7120      7126      7122      7127
      7122      7128      7129      7130      7131      7132      7136      7137
      7138      7139      7131      7129      7129      7136      7129      7138
      7131      7133      7131      7134      7131      7135      7138      7140
      7136      7141      7136      7142      7138      7143      7138      7144
      7145      7146      7147      7148      7152      7153      7154      7155
      7147      7145      7145      7152      7145      7154      7147      7149
      7147      7150      7147      7151      7154      7156      7152      7157
      7152      7158      7154      7159      7154      7160      7161      7162
      7163      7164      7168      7169      7170      7171      7163      7161
      7161      7168      7161      7170      7163      7165      7163      7166
      7163      7167      7170      7172      7168      7173      7168      7174
      7170      7175      7170      7176      7177      7178      7179      7180
      7184      7185      7186      7187      7179      7177      7177      7184
      7177      7186      7179      7181      7179      7182      7179      7183
      7186      7188      7184      7189      7184      7190      7186      7191
      7186      7192      7193      7194      7195      7196      7200      7201
      7202      7203      7195      7193      7193      7200      7193      7202
      7195      7197      7195      7198      7195      7199      7202      7204
      7200      7205      7200      7206      7202      7207      7202      7208
      7209      7210      7211      7212      7216      7217      7218      7219
      7211      7209      7209      7216      7209      7218      7211      7213
      7211      7214      7211      7215      7218      7220      7216      7221
      7216      7222      7218      7223      7218      7224      7225      7226
      7227      7228      7232      7233      7234      7235      7227      7225
      7225      7232      7225      7234      7227      7229      7227      7230
      7227      7231      7234      7236      7232      7237      7232      7238
      7234      7239      7234      7240      7241      7242      7246      7247
      7248      7249      7251      7252      7254      7255      7257      7258
      7241      7246      7241      7243      7241      7244      7241      7245
      7246      7248      7246      7254      7248      7251      7248      7250
      7251      7253      7251      7257      7257      7254      7254      7256
      7257      7259      7260      7257      7261      7262      7266      7267
      7268      7269      7271      7272      7274      7275      7277      7278
      7261      7266      7261      7263      7261      7264      7261      7265
      7266      7268      7266      7274      7268      7271      7268      7270
      7271      7273      7271      7277      7277      7274      7274      7276
      7277      7279      7280      7277      7281      7282      7286      7287
      7288      7289      7291      7292      7294      7295      7297      7298
      7281      7286      7281      7283      7281      7284      7281      7285
      7286      7288      7286      7294      7288      7291      7288      7290
      7291      7293      7291      7297      7297      7294      7294      7296
      7297      7299      7300      7297      7301      7302      7306      7307
      7308      7309      7311      7312      7314      7315      7317      7318
      7301      7306      7301      7303      7301      7304      7301      7305
      7306      7308      7306      7314      7308      7311      7308      7310
      7311      7313      7311      7317      7317      7314      7314      7316
      7317      7319      7320      7317      7321      7322      7326      7327
      7328      7329      7331      7332      7334      7335      7337      7338
      7321      7326      7321      7323      7321      7324      7321      7325
      7326      7328      7326      7334      7328      7331      7328      7330
      7331      7333      7331      7337      7337      7334      7334      7336
      7337      7339      7340      7337      7341      7342      7346      7347
      7348      7349      7351      7352      7354      7355      7357      7358
      7341      7346      7341      7343      7341      7344      7341      7345
      7346      7348      7346      7354      7348      7351      7348      7350
      7351      7353      7351      7357      7357      7354      7354      7356
      7357      7359      7360      7357      7361      7362      7366      7367
      7368      7369      7371      7372      7374      7375      7377      7378
      7361      7366      7361      7363      7361      7364      7361      7365
      7366      7368      7366      7374      7368      7371      7368      7370
      7371      7373      7371      7377      7377      7374      7374      7376
      7377      7379      7380      7377      7381      7382      7386      7387
      7388      7389      7391      7392      7394      7395      7397      7398
      7381      7386      7381      7383      7381      7384      7381      7385
      7386      7388      7386      7394      7388      7391      7388      7390
      7391      7393      7391      7397      7397      7394      7394      7396
      7397      7399      7400      7397      7401      7402      7406      7407
      7408      7409      7411      7412      7414      7415      7417      7418
      7401      7406      7401      7403      7401      7404      7401      7405
      7406      7408      7406      7414      7408      7411      7408      7410
      7411      7413      7411      7417      7417      7414      7414      7416
      7417      7419      7420      7417      7421      7422      7426      7427
      7428      7429      7431      7432      7434      7435      7437      7438
      7421      7426      7421      7423      7421      7424      7421      7425
      7426      7428      7426      7434      7428      7431      7428      7430
      7431      7433      7431      7437      7437      7434      7434      7436
      7437      7439      7440      7437      7441      7442      7446      7447
      7448      7449      7451      7452      7454      7455      7457      7458
      7441      7446      7441      7443      7441      7444      7441      7445
      7446      7448      7446      7454      7448      7451      7448      7450
      7451      7453      7451      7457      7457      7454      7454      7456
      7457      7459      7460      7457      7461      7462      7466      7467
      7468      7469      7471      7472      7474      7475      7477      7478
      7461      7466      7461      7463      7461      7464      7461      7465
      7466      7468      7466      7474      7468      7471      7468      7470
      7471      7473      7471      7477      7477      7474      7474      7476
      7477      7479      7480      7477      7481      7482      7486      7487
      7488      7489      7491      7492      7494      7495      7497      7498
      7481      7486      7481      7483      7481      7484      7481      7485
      7486      7488      7486      7494      7488      7491      7488      7490
      7491      7493      7491      7497      7497      7494      7494      7496
      7497      7499      7500      7497      7501      7502      7506      7507
      7508      7509      7511      7512      7514      7515      7517      7518
      7501      7506      7501      7503      7501      7504      7501      7505
      7506      7508      7506      7514      7508      7511      7508      7510
      7511      7513      7511      7517      7517      7514      7514      7516
      7517      7519      7520      7517      7521      7522      7526      7527
      7528      7529      7531      7532      7534      7535      7537      7538
      7521      7526      7521      7523      7521      7524      7521      7525
      7526      7528      7526      7534      7528      7531      7528      7530
      7531      7533      7531      7537      7537      7534      7534      7536
      7537      7539      7540      7537      7541      7542      7546      7547
      7548      7549      7551      7552      7554      7555      7557      7558
      7541      7546      7541      7543      7541      7544      7541      7545
      7546      7548      7546      7554      7548      7551      7548      7550
      7551      7553      7551      7557      7557      7554      7554      7556
      7557      7559      7560      7557      7561      7562      7566      7567
      7568      7569      7571      7572      7574      7575      7577      7578
      7561      7566      7561      7563      7561      7564      7561      7565
      7566      7568      7566      7574      7568      7571      7568      7570
      7571      7573      7571      7577      7577      7574      7574      7576
      7577      7579      7580      7577      7581      7582      7586      7587
      7588      7589      7591      7592      7594      7595      7597      7598
      7581      7586      7581      7583      7581      7584      7581      7585
      7586      7588      7586      7594      7588      7591      7588      7590
      7591      7593      7591      7597      7597      7594      7594      7596
      7597      7599      7600      7597      7601      7602      7606      7607
      7608      7609      7611      7612      7614      7615      7617      7618
      7601      7606      7601      7603      7601      7604      7601      7605
      7606      7608      7606      7614      7608      7611      7608      7610
      7611      7613      7611      7617      7617      7614      7614      7616
      7617      7619      7620      7617      7621      7622      7626      7627
      7628      7629      7631      7632      7634      7635      7637      7638
      7621      7626      7621      7623      7621      7624      7621      7625
      7626      7628      7626      7634      7628      7631      7628      7630
      7631      7633      7631      7637      7637      7634      7634      7636
      7637      7639      7640      7637      7641      7642      7646      7647
      7648      7649      7651      7652      7654      7655      7657      7658
      7641      7646      7641      7643      7641      7644      7641      7645
      7646      7648      7646      7654      7648      7651      7648      7650
      7651      7653      7651      7657      7657      7654      7654      7656
      7657      7659      7660      7657      7661      7662      7666      7667
      7668      7669      7671      7672      7674      7675      7677      7678
      7661      7666      7661      7663      7661      7664      7661      7665
      7666      7668      7666      7674      7668      7671      7668      7670
      7671      7673      7671      7677      7677      7674      7674      7676
      7677      7679      7680      7677      7681      7682      7686      7687
      7688      7689      7691      7692      7694      7695      7697      7698
      7681      7686      7681      7683      7681      7684      7681      7685
      7686      7688      7686      7694      7688      7691      7688      7690
      7691      7693      7691      7697      7697      7694      7694      7696
      7697      7699      7700      7697      7701      7702      7706      7707
      7708      7709      7711      7712      7714      7715      7717      7718
      7701      7706      7701      7703      7701      7704      7701      7705
      7706      7708      7706      7714      7708      7711      7708      7710
      7711      7713      7711      7717      7717      7714      7714      7716
      7717      7719      7720      7717      7721      7722      7726      7727
      7728      7729      7731      7732      7734      7735      7737      7738
      7721      7726      7721      7723      7721      7724      7721      7725
      7726      7728      7726      7734      7728      7731      7728      7730
      7731      7733      7731      7737      7737      7734      7734      7736
      7737      7739      7740      7737      7741      7742      7746      7747
      7748      7749      7751      7752      7754      7755      7757      7758
      7741      7746      7741      7743      7741      7744      7741      7745
      7746      7748      7746      7754      7748      7751      7748      7750
      7751      7753      7751      7757      7757      7754      7754      7756
      7757      7759      7760      7757      7761      7762      7766      7767
      7768      7769      7771      7772      7774      7775      7777      7778
      7761      7766      7761      7763      7761      7764      7761      7765
      7766      7768      7766      7774      7768      7771      7768      7770
      7771      7773      7771      7777      7777      7774      7774      7776
      7777      7779      7780      7777      7781      7782      7786      7787
      7788      7789      7791      7792      7794      7795      7797      7798
      7781      7786      7781      7783      7781      7784      7781      7785
      7786      7788      7786      7794      7788      7791      7788      7790
      7791      7793      7791      7797      7797      7794      7794      7796
      7797      7799      7800      7797      7801      7802      7806      7807
      7808      7809      7811      7812      7814      7815      7817      7818
      7801      7806      7801      7803      7801      7804      7801      7805
      7806      7808      7806      7814      7808      7811      7808      7810
      7811      7813      7811      7817      7817      7814      7814      7816
      7817      7819      7820      7817      7821      7822      7826      7827
      7828      7829      7831      7832      7834      7835      7837      7838
      7821      7826      7821      7823      7821      7824      7821      7825
      7826      7828      7826      7834      7828      7831      7828      7830
      7831      7833      7831      7837      7837      7834      7834      7836
      7837      7839      7840      7837      7841      7842      7846      7847
      7848      7849      7851      7852      7854      7855      7857      7858
      7841      7846      7841      7843      7841      7844      7841      7845
      7846      7848      7846      7854      7848      7851      7848      7850
      7851      7853      7851      7857      7857      7854      7854      7856
      7857      7859      7860      7857      7861      7862      7866      7867
      7868      7869      7871      7872      7874      7875      7877      7878
      7861      7866      7861      7863      7861      7864      7861      7865
      7866      7868      7866      7874      7868      7871      7868      7870
      7871      7873      7871      7877      7877      7874      7874      7876
      7877      7879      7880      7877      7881      7882      7886      7887
      7888      7889      7891      7892      7894      7895      7897      7898
      7881      7886      7881      7883      7881      7884      7881      7885
      7886      7888      7886      7894      7888      7891      7888      7890
      7891      7893      7891      7897      7897      7894      7894      7896
      7897      7899      7900      7897      7901      7902      7906      7907
      7908      7909      7911      7912      7914      7915      7917      7918
      7901      7906      7901      7903      7901      7904      7901      7905
      7906      7908      7906      7914      7908      7911      7908      7910
      7911      7913      7911      7917      7917      7914      7914      7916
      7917      7919      7920      7917      7921      7922      7926      7927
      7928      7929      7931      7932      7934      7935      7937      7938
      7921      7926      7921      7923      7921      7924      7921      7925
      7926      7928      7926      7934      7928      7931      7928      7930
      7931      7933      7931      7937      7937      7934      7934      7936
      7937      7939      7940      7937      7941      7942      7946      7947
      7948      7949      7951      7952      7954      7955      7957      7958
      7941      7946      7941      7943      7941      7944      7941      7945
      7946      7948      7946      7954      7948      7951      7948      7950
      7951      7953      7951      7957      7957      7954      7954      7956
      7957      7959      7960      7957      7961      7962      7966      7967
      7968      7969      7971      7972      7974      7975      7977      7978
      7961      7966      7961      7963      7961      7964      7961      7965
      7966      7968      7966      7974      7968      7971      7968      7970
      7971      7973      7971      7977      7977      7974      7974      7976
      7977      7979      7980      7977      7981      7982      7986      7987
      7988      7989      7991      7992      7994      7995      7997      7998
      7981      7986      7981      7983      7981      7984      7981      7985
      7986      7988      7986      7994      7988      7991      7988      7990
      7991      7993      7991      7997      7997      7994      7994      7996
      7997      7999      8000      7997      8001      8002      8006      8007
      8008      8009      8011      8012      8014      8015      8017      8018
      8001      8006      8001      8003      8001      8004      8001      8005
      8006      8008      8006      8014      8008      8011      8008      8010
      8011      8013      8011      8017      8017      8014      8014      8016
      8017      8019      8020      8017      8021      8022      8026      8027
      8028      8029      8031      8032      8034      8035      8037      8038
      8021      8026      8021      8023      8021      8024      8021      8025
      8026      8028      8026      8034      8028      8031      8028      8030
      8031      8033      8031      8037      8037      8034      8034      8036
      8037      8039      8040      8037      8041      8042      8046      8047
      8048      8049      8051      8052      8054      8055      8057      8058
      8041      8046      8041      8043      8041      8044      8041      8045
      8046      8048      8046      8054      8048      8051      8048      8050
      8051      8053      8051      8057      8057      8054      8054      8056
      8057      8059      8060      8057      8061      8062      8066      8067
      8068      8069      8071      8072      8074      8075      8077      8078
      8061      8066      8061      8063      8061      8064      8061      8065
      8066      8068      8066      8074      8068      8071      8068      8070
      8071      8073      8071      8077      8077      8074      8074      8076
      8077      8079      8080      8077      8081      8082      8086      8087
      8088      8089      8091      8092      8094      8095      8097      8098
      8081      8086      8081      8083      8081      8084      8081      8085
      8086      8088      8086      8094      8088      8091      8088      8090
      8091      8093      8091      8097      8097      8094      8094      8096
      8097      8099      8100      8097      8101      8102      8106      8107
      8108      8109      8111      8112      8114      8115      8117      8118
      8101      8106      8101      8103      8101      8104      8101      8105
      8106      8108      8106      8114      8108      8111      8108      8110
      8111      8113      8111      8117      8117      8114      8114      8116
      8117      8119      8120      8117      8121      8122      8126      8127
      8128      8129      8131      8132      8134      8135      8137      8138
      8121      8126      8121      8123      8121      8124      8121      8125
      8126      8128      8126      8134      8128      8131      8128      8130
      8131      8133      8131      8137      8137      8134      8134      8136
      8137      8139      8140      8137      8141      8142      8146      8147
      8148      8149      8151      8152      8154      8155      8157      8158
      8141      8146      8141      8143      8141      8144      8141      8145
      8146      8148      8146      8154      8148      8151      8148      8150
      8151      8153      8151      8157      8157      8154      8154      8156
      8157      8159      8160      8157      8161      8162      8166      8167
      8168      8169      8171      8172      8174      8175      8177      8178
      8161      8166      8161      8163      8161      8164      8161      8165
      8166      8168      8166      8174      8168      8171      8168      8170
      8171      8173      8171      8177      8177      8174      8174      8176
      8177      8179      8180      8177      8181      8182      8186      8187
      8188      8189      8191      8192      8194      8195      8197      8198
      8181      8186      8181      8183      8181      8184      8181      8185
      8186      8188      8186      8194      8188      8191      8188      8190
      8191      8193      8191      8197      8197      8194      8194      8196
      8197      8199      8200      8197      8201      8202      8206      8207
      8208      8209      8211      8212      8214      8215      8217      8218
      8201      8206      8201      8203      8201      8204      8201      8205
      8206      8208      8206      8214      8208      8211      8208      8210
      8211      8213      8211      8217      8217      8214      8214      8216
      8217      8219      8220      8217      8221      8222      8226      8227
      8228      8229      8231      8232      8234      8235      8237      8238
      8221      8226      8221      8223      8221      8224      8221      8225
      8226      8228      8226      8234      8228      8231      8228      8230
      8231      8233      8231      8237      8237      8234      8234      8236
      8237      8239      8240      8237      8241      8242      8246      8247
      8248      8249      8251      8252      8254      8255      8257      8258
      8241      8246      8241      8243      8241      8244      8241      8245
      8246      8248      8246      8254      8248      8251      8248      8250
      8251      8253      8251      8257      8257      8254      8254      8256
      8257      8259      8260      8257      8261      8262      8266      8267
      8268      8269      8271      8272      8274      8275      8277      8278
      8261      8266      8261      8263      8261      8264      8261      8265
      8266      8268      8266      8274      8268      8271      8268      8270
      8271      8273      8271      8277      8277      8274      8274      8276
      8277      8279      8280      8277      8281      8282      8286      8287
      8288      8289      8291      8292      8294      8295      8297      8298
      8281      8286      8281      8283      8281      8284      8281      8285
      8286      8288      8286      8294      8288      8291      8288      8290
      8291      8293      8291      8297      8297      8294      8294      8296
      8297      8299      8300      8297      8301      8302      8306      8307
      8308      8309      8311      8312      8314      8315      8317      8318
      8301      8306      8301      8303      8301      8304      8301      8305
      8306      8308      8306      8314      8308      8311      8308      8310
      8311      8313      8311      8317      8317      8314      8314      8316
      8317      8319      8320      8317      8321      8322      8326      8327
      8328      8329      8331      8332      8334      8335      8337      8338
      8321      8326      8321      8323      8321      8324      8321      8325
      8326      8328      8326      8334      8328      8331      8328      8330
      8331      8333      8331      8337      8337      8334      8334      8336
      8337      8339      8340      8337      8341      8342      8346      8347
      8348      8349      8351      8352      8354      8355      8357      8358
      8341      8346      8341      8343      8341      8344      8341      8345
      8346      8348      8346      8354      8348      8351      8348      8350
      8351      8353      8351      8357      8357      8354      8354      8356
      8357      8359      8360      8357      8361      8362      8366      8367
      8368      8369      8371      8372      8374      8375      8377      8378
      8361      8366      8361      8363      8361      8364      8361      8365
      8366      8368      8366      8374      8368      8371      8368      8370
      8371      8373      8371      8377      8377      8374      8374      8376
      8377      8379      8380      8377      8381      8382      8386      8387
      8388      8389      8391      8392      8394      8395      8397      8398
      8381      8386      8381      8383      8381      8384      8381      8385
      8386      8388      8386      8394      8388      8391      8388      8390
      8391      8393      8391      8397      8397      8394      8394      8396
      8397      8399      8400      8397      8401      8402      8406      8407
      8408      8409      8411      8412      8414      8415      8417      8418
      8401      8406      8401      8403      8401      8404      8401      8405
      8406      8408      8406      8414      8408      8411      8408      8410
      8411      8413      8411      8417      8417      8414      8414      8416
      8417      8419      8420      8417      8421      8422      8426      8427
      8428      8429      8431      8432      8434      8435      8437      8438
      8421      8426      8421      8423      8421      8424      8421      8425
      8426      8428      8426      8434      8428      8431      8428      8430
      8431      8433      8431      8437      8437      8434      8434      8436
      8437      8439      8440      8437      8441      8442      8446      8447
      8448      8449      8451      8452      8454      8455      8457      8458
      8441      8446      8441      8443      8441      8444      8441      8445
      8446      8448      8446      8454      8448      8451      8448      8450
      8451      8453      8451      8457      8457      8454      8454      8456
      8457      8459      8460      8457      8461      8462      8466      8467
      8468      8469      8471      8472      8474      8475      8477      8478
      8461      8466      8461      8463      8461      8464      8461      8465
      8466      8468      8466      8474      8468      8471      8468      8470
      8471      8473      8471      8477      8477      8474      8474      8476
      8477      8479      8480      8477      8481      8482      8486      8487
      8488      8489      8491      8492      8494      8495      8497      8498
      8481      8486      8481      8483      8481      8484      8481      8485
      8486      8488      8486      8494      8488      8491      8488      8490
      8491      8493      8491      8497      8497      8494      8494      8496
      8497      8499      8500      8497      8501      8502      8506      8507
      8508      8509      8511      8512      8514      8515      8517      8518
      8501      8506      8501      8503      8501      8504      8501      8505
      8506      8508      8506      8514      8508      8511      8508      8510
      8511      8513      8511      8517      8517      8514      8514      8516
      8517      8519      8520      8517      8521      8522      8526      8527
      8528      8529      8531      8532      8534      8535      8537      8538
      8521      8526      8521      8523      8521      8524      8521      8525
      8526      8528      8526      8534      8528      8531      8528      8530
      8531      8533      8531      8537      8537      8534      8534      8536
      8537      8539      8540      8537      8541      8542      8546      8547
      8548      8549      8551      8552      8554      8555      8557      8558
      8541      8546      8541      8543      8541      8544      8541      8545
      8546      8548      8546      8554      8548      8551      8548      8550
      8551      8553      8551      8557      8557      8554      8554      8556
      8557      8559      8560      8557      8561      8562      8566      8567
      8568      8569      8571      8572      8574      8575      8577      8578
      8561      8566      8561      8563      8561      8564      8561      8565
      8566      8568      8566      8574      8568      8571      8568      8570
      8571      8573      8571      8577      8577      8574      8574      8576
      8577      8579      8580      8577      8581      8582      8586      8587
      8588      8589      8591      8592      8594      8595      8597      8598
      8581      8586      8581      8583      8581      8584      8581      8585
      8586      8588      8586      8594      8588      8591      8588      8590
      8591      8593      8591      8597      8597      8594      8594      8596
      8597      8599      8600      8597      8601      8602      8606      8607
      8608      8609      8611      8612      8614      8615      8617      8618
      8601      8606      8601      8603      8601      8604      8601      8605
      8606      8608      8606      8614      8608      8611      8608      8610
      8611      8613      8611      8617      8617      8614      8614      8616
      8617      8619      8620      8617      8621      8622      8626      8627
      8628      8629      8631      8632      8634      8635      8637      8638
      8621      8626      8621      8623      8621      8624      8621      8625
      8626      8628      8626      8634      8628      8631      8628      8630
      8631      8633      8631      8637      8637      8634      8634      8636
      8637      8639      8640      8637      8641      8642      8646      8647
      8648      8649      8651      8652      8654      8655      8657      8658
      8641      8646      8641      8643      8641      8644      8641      8645
      8646      8648      8646      8654      8648      8651      8648      8650
      8651      8653      8651      8657      8657      8654      8654      8656
      8657      8659      8660      8657      8661      8662      8666      8667
      8668      8669      8671      8672      8674      8675      8677      8678
      8661      8666      8661      8663      8661      8664      8661      8665
      8666      8668      8666      8674      8668      8671      8668      8670
      8671      8673      8671      8677      8677      8674      8674      8676
      8677      8679      8680      8677      8681      8682      8686      8687
      8688      8689      8691      8692      8694      8695      8697      8698
      8681      8686      8681      8683      8681      8684      8681      8685
      8686      8688      8686      8694      8688      8691      8688      8690
      8691      8693      8691      8697      8697      8694      8694      8696
      8697      8699      8700      8697      8701      8702      8706      8707
      8708      8709      8711      8712      8714      8715      8717      8718
      8701      8706      8701      8703      8701      8704      8701      8705
      8706      8708      8706      8714      8708      8711      8708      8710
      8711      8713      8711      8717      8717      8714      8714      8716
      8717      8719      8720      8717      8721      8722      8726      8727
      8728      8729      8731      8732      8734      8735      8737      8738
      8721      8726      8721      8723      8721      8724      8721      8725
      8726      8728      8726      8734      8728      8731      8728      8730
      8731      8733      8731      8737      8737      8734      8734      8736
      8737      8739      8740      8737      8741      8742      8746      8747
      8748      8749      8751      8752      8754      8755      8757      8758
      8741      8746      8741      8743      8741      8744      8741      8745
      8746      8748      8746      8754      8748      8751      8748      8750
      8751      8753      8751      8757      8757      8754      8754      8756
      8757      8759      8760      8757      8761      8762      8766      8767
      8768      8769      8771      8772      8774      8775      8777      8778
      8761      8766      8761      8763      8761      8764      8761      8765
      8766      8768      8766      8774      8768      8771      8768      8770
      8771      8773      8771      8777      8777      8774      8774      8776
      8777      8779      8780      8777      8781      8782      8786      8787
      8788      8789      8791      8792      8794      8795      8797      8798
      8781      8786      8781      8783      8781      8784      8781      8785
      8786      8788      8786      8794      8788      8791      8788      8790
      8791      8793      8791      8797      8797      8794      8794      8796
      8797      8799      8800      8797      8801      8802      8806      8807
      8808      8809      8811      8812      8814      8815      8817      8818
      8801      8806      8801      8803      8801      8804      8801      8805
      8806      8808      8806      8814      8808      8811      8808      8810
      8811      8813      8811      8817      8817      8814      8814      8816
      8817      8819      8820      8817      8821      8822      8826      8827
      8828      8829      8831      8832      8834      8835      8837      8838
      8821      8826      8821      8823      8821      8824      8821      8825
      8826      8828      8826      8834      8828      8831      8828      8830
      8831      8833      8831      8837      8837      8834      8834      8836
      8837      8839      8840      8837      8841      8842      8846      8847
      8848      8849      8851      8852      8854      8855      8857      8858
      8841      8846      8841      8843      8841      8844      8841      8845
      8846      8848      8846      8854      8848      8851      8848      8850
      8851      8853      8851      8857      8857      8854      8854      8856
      8857      8859      8860      8857      8861      8862      8866      8867
      8868      8869      8871      8872      8874      8875      8877      8878
      8861      8866      8861      8863      8861      8864      8861      8865
      8866      8868      8866      8874      8868      8871      8868      8870
      8871      8873      8871      8877      8877      8874      8874      8876
      8877      8879      8880      8877      8881      8882      8886      8887
      8888      8889      8891      8892      8894      8895      8897      8898
      8881      8886      8881      8883      8881      8884      8881      8885
      8886      8888      8886      8894      8888      8891      8888      8890
      8891      8893      8891      8897      8897      8894      8894      8896
      8897      8899      8900      8897      8901      8902      8906      8907
      8908      8909      8911      8912      8914      8915      8917      8918
      8901      8906      8901      8903      8901      8904      8901      8905
      8906      8908      8906      8914      8908      8911      8908      8910
      8911      8913      8911      8917      8917      8914      8914      8916
      8917      8919      8920      8917      8921      8922      8926      8927
      8928      8929      8931      8932      8934      8935      8937      8938
      8921      8926      8921      8923      8921      8924      8921      8925
      8926      8928      8926      8934      8928      8931      8928      8930
      8931      8933      8931      8937      8937      8934      8934      8936
      8937      8939      8940      8937      8941      8942      8946      8947
      8948      8949      8951      8952      8954      8955      8957      8958
      8941      8946      8941      8943      8941      8944      8941      8945
      8946      8948      8946      8954      8948      8951      8948      8950
      8951      8953      8951      8957      8957      8954      8954      8956
      8957      8959      8960      8957      8961      8962      8966      8967
      8968      8969      8971      8972      8974      8975      8977      8978
      8961      8966      8961      8963      8961      8964      8961      8965
      8966      8968      8966      8974      8968      8971      8968      8970
      8971      8973      8971      8977      8977      8974      8974      8976
      8977      8979      8980      8977      8981      8982      8986      8987
      8988      8989      8991      8992      8994      8995      8997      8998
      8981      8986      8981      8983      8981      8984      8981      8985
      8986      8988      8986      8994      8988      8991      8988      8990
      8991      8993      8991      8997      8997      8994      8994      8996
      8997      8999      9000      8997      9001      9002      9006      9007
      9008      9009      9011      9012      9014      9015      9017      9018
      9001      9006      9001      9003      9001      9004      9001      9005
      9006      9008      9006      9014      9008      9011      9008      9010
      9011      9013      9011      9017      9017      9014      9014      9016
      9017      9019      9020      9017      9021      9022      9026      9027
      9028      9029      9031      9032      9034      9035      9037      9038
      9021      9026      9021      9023      9021      9024      9021      9025
      9026      9028      9026      9034      9028      9031      9028      9030
      9031      9033      9031      9037      9037      9034      9034      9036
      9037      9039      9040      9037      9041      9042      9046      9047
      9048      9049      9051      9052      9054      9055      9057      9058
      9041      9046      9041      9043      9041      9044      9041      9045
      9046      9048      9046      9054      9048      9051      9048      9050
      9051      9053      9051      9057      9057      9054      9054      9056
      9057      9059      9060      9057      9061      9062      9066      9067
      9068      9069      9071      9072      9074      9075      9077      9078
      9061      9066      9061      9063      9061      9064      9061      9065
      9066      9068      9066      9074      9068      9071      9068      9070
      9071      9073      9071      9077      9077      9074      9074      9076
      9077      9079      9080      9077      9081      9082      9086      9087
      9088      9089      9091      9092      9094      9095      9097      9098
      9081      9086      9081      9083      9081      9084      9081      9085
      9086      9088      9086      9094      9088      9091      9088      9090
      9091      9093      9091      9097      9097      9094      9094      9096
      9097      9099      9100      9097      9101      9102      9106      9107
      9108      9109      9111      9112      9114      9115      9117      9118
      9101      9106      9101      9103      9101      9104      9101      9105
      9106      9108      9106      9114      9108      9111      9108      9110
      9111      9113      9111      9117      9117      9114      9114      9116
      9117      9119      9120      9117      9121      9122      9126      9127
      9128      9129      9131      9132      9134      9135      9137      9138
      9121      9126      9121      9123      9121      9124      9121      9125
      9126      9128      9126      9134      9128      9131      9128      9130
      9131      9133      9131      9137      9137      9134      9134      9136
      9137      9139      9140      9137      9141      9142      9146      9147
      9148      9149      9151      9152      9154      9155      9157      9158
      9141      9146      9141      9143      9141      9144      9141      9145
      9146      9148      9146      9154      9148      9151      9148      9150
      9151      9153      9151      9157      9157      9154      9154      9156
      9157      9159      9160      9157      9161      9162      9166      9167
      9168      9169      9171      9172      9174      9175      9177      9178
      9161      9166      9161      9163      9161      9164      9161      9165
      9166      9168      9166      9174      9168      9171      9168      9170
      9171      9173      9171      9177      9177      9174      9174      9176
      9177      9179      9180      9177      9181      9182      9186      9187
      9188      9189      9191      9192      9194      9195      9197      9198
      9181      9186      9181      9183      9181      9184      9181      9185
      9186      9188      9186      9194      9188      9191      9188      9190
      9191      9193      9191      9197      9197      9194      9194      9196
      9197      9199      9200      9197      9201      9202      9206      9207
      9208      9209      9211      9212      9214      9215      9217      9218
      9201      9206      9201      9203      9201      9204      9201      9205
      9206      9208      9206      9214      9208      9211      9208      9210
      9211      9213      9211      9217      9217      9214      9214      9216
      9217      9219      9220      9217      9221      9222      9226      9227
      9228      9229      9231      9232      9234      9235      9237      9238
      9221      9226      9221      9223      9221      9224      9221      9225
      9226      9228      9226      9234      9228      9231      9228      9230
      9231      9233      9231      9237      9237      9234      9234      9236
      9237      9239      9240      9237      9241      9242      9246      9247
      9248      9249      9251      9252      9254      9255      9257      9258
      9241      9246      9241      9243      9241      9244      9241      9245
      9246      9248      9246      9254      9248      9251      9248      9250
      9251      9253      9251      9257      9257      9254      9254      9256
      9257      9259      9260      9257      9261      9262      9266      9267
      9268      9269      9271      9272      9274      9275      9277      9278
      9261      9266      9261      9263      9261      9264      9261      9265
      9266      9268      9266      9274      9268      9271      9268      9270
      9271      9273      9271      9277      9277      9274      9274      9276
      9277      9279      9280      9277      9281      9282      9286      9287
      9288      9289      9291      9292      9294      9295      9297      9298
      9281      9286      9281      9283      9281      9284      9281      9285
      9286      9288      9286      9294      9288      9291      9288      9290
      9291      9293      9291      9297      9297      9294      9294      9296
      9297      9299      9300      9297      9301      9302      9306      9307
      9308      9309      9311      9312      9314      9315      9317      9318
      9301      9306      9301      9303      9301      9304      9301      9305
      9306      9308      9306      9314      9308      9311      9308      9310
      9311      9313      9311      9317      9317      9314      9314      9316
      9317      9319      9320      9317      9321      9322      9326      9327
      9328      9329      9331      9332      9334      9335      9337      9338
      9321      9326      9321      9323      9321      9324      9321      9325
      9326      9328      9326      9334      9328      9331      9328      9330
      9331      9333      9331      9337      9337      9334      9334      9336
      9337      9339      9340      9337      9341      9342      9346      9347
      9348      9349      9351      9352      9354      9355      9357      9358
      9341      9346      9341      9343      9341      9344      9341      9345
      9346      9348      9346      9354      9348      9351      9348      9350
      9351      9353      9351      9357      9357      9354      9354      9356
      9357      9359      9360      9357      9361      9362      9366      9367
      9368      9369      9371      9372      9374      9375      9377      9378
      9361      9366      9361      9363      9361      9364      9361      9365
      9366      9368      9366      9374      9368      9371      9368      9370
      9371      9373      9371      9377      9377      9374      9374      9376
      9377      9379      9380      9377      9381      9382      9386      9387
      9388      9389      9391      9392      9394      9395      9397      9398
      9381      9386      9381      9383      9381      9384      9381      9385
      9386      9388      9386      9394      9388      9391      9388      9390
      9391      9393      9391      9397      9397      9394      9394      9396
      9397      9399      9400      9397      9401      9402      9406      9407
      9408      9409      9411      9412      9414      9415      9417      9418
      9401      9406      9401      9403      9401      9404      9401      9405
      9406      9408      9406      9414      9408      9411      9408      9410
      9411      9413      9411      9417      9417      9414      9414      9416
      9417      9419      9420      9417      9421      9422      9426      9427
      9428      9429      9431      9432      9434      9435      9437      9438
      9421      9426      9421      9423      9421      9424      9421      9425
      9426      9428      9426      9434      9428      9431      9428      9430
      9431      9433      9431      9437      9437      9434      9434      9436
      9437      9439      9440      9437      9441      9442      9446      9447
      9448      9449      9451      9452      9454      9455      9457      9458
      9441      9446      9441      9443      9441      9444      9441      9445
      9446      9448      9446      9454      9448      9451      9448      9450
      9451      9453      9451      9457      9457      9454      9454      9456
      9457      9459      9460      9457      9461      9462      9466      9467
      9468      9469      9471      9472      9474      9475      9477      9478
      9461      9466      9461      9463      9461      9464      9461      9465
      9466      9468      9466      9474      9468      9471      9468      9470
      9471      9473      9471      9477      9477      9474      9474      9476
      9477      9479      9480      9477      9481      9482      9486      9487
      9488      9489      9491      9492      9494      9495      9497      9498
      9481      9486      9481      9483      9481      9484      9481      9485
      9486      9488      9486      9494      9488      9491      9488      9490
      9491      9493      9491      9497      9497      9494      9494      9496
      9497      9499      9500      9497      9501      9502      9506      9507
      9508      9509      9511      9512      9514      9515      9517      9518
      9501      9506      9501      9503      9501      9504      9501      9505
      9506      9508      9506      9514      9508      9511      9508      9510
      9511      9513      9511      9517      9517      9514      9514      9516
      9517      9519      9520      9517      9521      9522      9526      9527
      9528      9529      9531      9532      9534      9535      9537      9538
      9521      9526      9521      9523      9521      9524      9521      9525
      9526      9528      9526      9534      9528      9531      9528      9530
      9531      9533      9531      9537      9537      9534      9534      9536
      9537      9539      9540      9537      9541      9542      9546      9547
      9548      9549      9551      9552      9554      9555      9557      9558
      9541      9546      9541      9543      9541      9544      9541      9545
      9546      9548      9546      9554      9548      9551      9548      9550
      9551      9553      9551      9557      9557      9554      9554      9556
      9557      9559      9560      9557      9561      9562      9566      9567
      9568      9569      9571      9572      9574      9575      9577      9578
      9561      9566      9561      9563      9561      9564      9561      9565
      9566      9568      9566      9574      9568      9571      9568      9570
      9571      9573      9571      9577      9577      9574      9574      9576
      9577      9579      9580      9577      9581      9582      9586      9587
      9588      9589      9591      9592      9594      9595      9597      9598
      9581      9586      9581      9583      9581      9584      9581      9585
      9586      9588      9586      9594      9588      9591      9588      9590
      9591      9593      9591      9597      9597      9594      9594      9596
      9597      9599      9600      9597      9601      9602      9606      9607
      9608      9609      9611      9612      9614      9615      9617      9618
      9601      9606      9601      9603      9601      9604      9601      9605
      9606      9608      9606      9614      9608      9611      9608      9610
      9611      9613      9611      9617      9617      9614      9614      9616
      9617      9619      9620      9617      9621      9622      9626      9627
      9628      9629      9631      9632      9634      9635      9637      9638
      9621      9626      9621      9623      9621      9624      9621      9625
      9626      9628      9626      9634      9628      9631      9628      9630
      9631      9633      9631      9637      9637      9634      9634      9636
      9637      9639      9640      9637      9641      9642      9646      9647
      9648      9649      9651      9652      9654      9655      9657      9658
      9641      9646      9641      9643      9641      9644      9641      9645
      9646      9648      9646      9654      9648      9651      9648      9650
      9651      9653      9651      9657      9657      9654      9654      9656
      9657      9659      9660      9657      9661      9662      9666      9667
      9668      9669      9671      9672      9674      9675      9677      9678
      9661      9666      9661      9663      9661      9664      9661      9665
      9666      9668      9666      9674      9668      9671      9668      9670
      9671      9673      9671      9677      9677      9674      9674      9676
      9677      9679      9680      9677      9681      9682      9686      9687
      9688      9689      9691      9692      9694      9695      9697      9698
      9681      9686      9681      9683      9681      9684      9681      9685
      9686      9688      9686      9694      9688      9691      9688      9690
      9691      9693      9691      9697      9697      9694      9694      9696
      9697      9699      9700      9697      9701      9702      9706      9707
      9708      9709      9711      9712      9714      9715      9717      9718
      9701      9706      9701      9703      9701      9704      9701      9705
      9706      9708      9706      9714      9708      9711      9708      9710
      9711      9713      9711      9717      9717      9714      9714      9716
      9717      9719      9720      9717      9721      9722      9726      9727
      9728      9729      9731      9732      9734      9735      9737      9738
      9721      9726      9721      9723      9721      9724      9721      9725
      9726      9728      9726      9734      9728      9731      9728      9730
      9731      9733      9731      9737      9737      9734      9734      9736
      9737      9739      9740      9737      9741      9742      9746      9747
      9748      9749      9751      9752      9754      9755      9757      9758
      9741      9746      9741      9743      9741      9744      9741      9745
      9746      9748      9746      9754      9748      9751      9748      9750
      9751      9753      9751      9757      9757      9754      9754      9756
      9757      9759      9760      9757      9761      9762      9766      9767
      9768      9769      9771      9772      9774      9775      9777      9778
      9761      9766      9761      9763      9761      9764      9761      9765
      9766      9768      9766      9774      9768      9771      9768      9770
      9771      9773      9771      9777      9777      9774      9774      9776
      9777      9779      9780      9777      9781      9782      9786      9787
      9788      9789      9791      9792      9794      9795      9797      9798
      9781      9786      9781      9783      9781      9784      9781      9785
      9786      9788      9786      9794      9788      9791      9788      9790
      9791      9793      9791      9797      9797      9794      9794      9796
      9797      9799      9800      9797      9801      9802      9806      9807
      9808      9809      9811      9812      9814      9815      9817      9818
      9801      9806      9801      9803      9801      9804      9801      9805
      9806      9808      9806      9814      9808      9811      9808      9810
      9811      9813      9811      9817      9817      9814      9814      9816
      9817      9819      9820      9817      9821      9822      9826      9827
      9828      9829      9831      9832      9834      9835      9837      9838
      9821      9826      9821      9823      9821      9824      9821      9825
      9826      9828      9826      9834      9828      9831      9828      9830
      9831      9833      9831      9837      9837      9834      9834      9836
      9837      9839      9840      9837      9841      9842      9846      9847
      9848      9849      9851      9852      9854      9855      9857      9858
      9841      9846      9841      9843      9841      9844      9841      9845
      9846      9848      9846      9854      9848      9851      9848      9850
      9851      9853      9851      9857      9857      9854      9854      9856
      9857      9859      9860      9857      9861      9862      9866      9867
      9868      9869      9871      9872      9874      9875      9877      9878
      9861      9866      9861      9863      9861      9864      9861      9865
      9866      9868      9866      9874      9868      9871      9868      9870
      9871      9873      9871      9877      9877      9874      9874      9876
      9877      9879      9880      9877      9881      9882      9886      9887
      9888      9889      9891      9892      9894      9895      9897      9898
      9881      9886      9881      9883      9881      9884      9881      9885
      9886      9888      9886      9894      9888      9891      9888      9890
      9891      9893      9891      9897      9897      9894      9894      9896
      9897      9899      9900      9897      9901      9902      9906      9907
      9908      9909      9911      9912      9914      9915      9917      9918
      9901      9906      9901      9903      9901      9904      9901      9905
      9906      9908      9906      9914      9908      9911      9908      9910
      9911      9913      9911      9917      9917      9914      9914      9916
      9917      9919      9920      9917      9921      9922      9926      9927
      9928      9929      9931      9932      9934      9935      9937      9938
      9921      9926      9921      9923      9921      9924      9921      9925
      9926      9928      9926      9934      9928      9931      9928      9930
      9931      9933      9931      9937      9937      9934      9934      9936
      9937      9939      9940      9937      9941      9942      9946      9947
      9948      9949      9951      9952      9954      9955      9957      9958
      9941      9946      9941      9943      9941      9944      9941      9945
      9946      9948      9946      9954      9948      9951      9948      9950
      9951      9953      9951      9957      9957      9954      9954      9956
      9957      9959      9960      9957      9961      9962      9966      9967
      9968      9969      9971      9972      9974      9975      9977      9978
      9961      9966      9961      9963      9961      9964      9961      9965
      9966      9968      9966      9974      9968      9971      9968      9970
      9971      9973      9971      9977      9977      9974      9974      9976
      9977      9979      9980      9977      9981      9982      9986      9987
      9988      9989      9991      9992      9994      9995      9997      9998
      9981      9986      9981      9983      9981      9984      9981      9985
      9986      9988      9986      9994      9988      9991      9988      9990
      9991      9993      9991      9997      9997      9994      9994      9996
      9997      9999     10000      9997     10001     10002     10006     10007
     10008     10009     10011     10012     10014     10015     10017     10018
     10001     10006     10001     10003     10001     10004     10001     10005
     10006     10008     10006     10014     10008     10011     10008     10010
     10011     10013     10011     10017     10017     10014     10014     10016
     10017     10019     10020     10017     10021     10022     10026     10027
     10028     10029     10031     10032     10034     10035     10037     10038
     10021     10026     10021     10023     10021     10024     10021     10025
     10026     10028     10026     10034     10028     10031     10028     10030
     10031     10033     10031     10037     10037     10034     10034     10036
     10037     10039     10040     10037     10041     10042     10046     10047
     10048     10049     10051     10052     10054     10055     10057     10058
     10041     10046     10041     10043     10041     10044     10041     10045
     10046     10048     10046     10054     10048     10051     10048     10050
     10051     10053     10051     10057     10057     10054     10054     10056
     10057     10059     10060     10057     10061     10062     10066     10067
     10068     10069     10071     10072     10074     10075     10077     10078
     10061     10066     10061     10063     10061     10064     10061     10065
     10066     10068     10066     10074     10068     10071     10068     10070
     10071     10073     10071     10077     10077     10074     10074     10076
     10077     10079     10080     10077     10081     10082     10086     10087
     10088     10089     10091     10092     10094     10095     10097     10098
     10081     10086     10081     10083     10081     10084     10081     10085
     10086     10088     10086     10094     10088     10091     10088     10090
     10091     10093     10091     10097     10097     10094     10094     10096
     10097     10099     10100     10097     10101     10102     10106     10107
     10108     10109     10111     10112     10114     10115     10117     10118
     10101     10106     10101     10103     10101     10104     10101     10105
     10106     10108     10106     10114     10108     10111     10108     10110
     10111     10113     10111     10117     10117     10114     10114     10116
     10117     10119     10120     10117     10121     10122     10126     10127
     10128     10129     10131     10132     10134     10135     10137     10138
     10121     10126     10121     10123     10121     10124     10121     10125
     10126     10128     10126     10134     10128     10131     10128     10130
     10131     10133     10131     10137     10137     10134     10134     10136
     10137     10139     10140     10137     10141     10142     10146     10147
     10148     10149     10151     10152     10154     10155     10157     10158
     10141     10146     10141     10143     10141     10144     10141     10145
     10146     10148     10146     10154     10148     10151     10148     10150
     10151     10153     10151     10157     10157     10154     10154     10156
     10157     10159     10160     10157     10161     10162     10166     10167
     10168     10169     10171     10172     10174     10175     10177     10178
     10161     10166     10161     10163     10161     10164     10161     10165
     10166     10168     10166     10174     10168     10171     10168     10170
     10171     10173     10171     10177     10177     10174     10174     10176
     10177     10179     10180     10177     10181     10182     10186     10187
     10188     10189     10191     10192     10194     10195     10197     10198
     10181     10186     10181     10183     10181     10184     10181     10185
     10186     10188     10186     10194     10188     10191     10188     10190
     10191     10193     10191     10197     10197     10194     10194     10196
     10197     10199     10200     10197     10201     10202     10206     10207
     10208     10209     10211     10212     10214     10215     10217     10218
     10201     10206     10201     10203     10201     10204     10201     10205
     10206     10208     10206     10214     10208     10211     10208     10210
     10211     10213     10211     10217     10217     10214     10214     10216
     10217     10219     10220     10217     10221     10222     10226     10227
     10228     10229     10231     10232     10234     10235     10237     10238
     10221     10226     10221     10223     10221     10224     10221     10225
     10226     10228     10226     10234     10228     10231     10228     10230
     10231     10233     10231     10237     10237     10234     10234     10236
     10237     10239     10240     10237     10241     10242     10246     10247
     10248     10249     10251     10252     10254     10255     10257     10258
     10241     10246     10241     10243     10241     10244     10241     10245
     10246     10248     10246     10254     10248     10251     10248     10250
     10251     10253     10251     10257     10257     10254     10254     10256
     10257     10259     10260     10257     10261     10262     10266     10267
     10268     10269     10271     10272     10274     10275     10277     10278
     10261     10266     10261     10263     10261     10264     10261     10265
     10266     10268     10266     10274     10268     10271     10268     10270
     10271     10273     10271     10277     10277     10274     10274     10276
     10277     10279     10280     10277     10281     10282     10286     10287
     10288     10289     10291     10292     10294     10295     10297     10298
     10281     10286     10281     10283     10281     10284     10281     10285
     10286     10288     10286     10294     10288     10291     10288     10290
     10291     10293     10291     10297     10297     10294     10294     10296
     10297     10299     10300     10297     10301     10302     10306     10307
     10308     10309     10311     10312     10314     10315     10317     10318
     10301     10306     10301     10303     10301     10304     10301     10305
     10306     10308     10306     10314     10308     10311     10308     10310
     10311     10313     10311     10317     10317     10314     10314     10316
     10317     10319     10320     10317     10321     10322     10326     10327
     10328     10329     10331     10332     10334     10335     10337     10338
     10321     10326     10321     10323     10321     10324     10321     10325
     10326     10328     10326     10334     10328     10331     10328     10330
     10331     10333     10331     10337     10337     10334     10334     10336
     10337     10339     10340     10337     10341     10342     10346     10347
     10348     10349     10351     10352     10354     10355     10357     10358
     10341     10346     10341     10343     10341     10344     10341     10345
     10346     10348     10346     10354     10348     10351     10348     10350
     10351     10353     10351     10357     10357     10354     10354     10356
     10357     10359     10360     10357     10361     10362     10366     10367
     10368     10369     10371     10372     10374     10375     10377     10378
     10361     10366     10361     10363     10361     10364     10361     10365
     10366     10368     10366     10374     10368     10371     10368     10370
     10371     10373     10371     10377     10377     10374     10374     10376
     10377     10379     10380     10377     10381     10382     10386     10387
     10388     10389     10391     10392     10394     10395     10397     10398
     10381     10386     10381     10383     10381     10384     10381     10385
     10386     10388     10386     10394     10388     10391     10388     10390
     10391     10393     10391     10397     10397     10394     10394     10396
     10397     10399     10400     10397     10401     10402     10406     10407
     10408     10409     10411     10412     10414     10415     10417     10418
     10401     10406     10401     10403     10401     10404     10401     10405
     10406     10408     10406     10414     10408     10411     10408     10410
     10411     10413     10411     10417     10417     10414     10414     10416
     10417     10419     10420     10417     10421     10422     10426     10427
     10428     10429     10431     10432     10434     10435     10437     10438
     10421     10426     10421     10423     10421     10424     10421     10425
     10426     10428     10426     10434     10428     10431     10428     10430
     10431     10433     10431     10437     10437     10434     10434     10436
     10437     10439     10440     10437     10441     10442     10446     10447
     10448     10449     10451     10452     10454     10455     10457     10458
     10441     10446     10441     10443     10441     10444     10441     10445
     10446     10448     10446     10454     10448     10451     10448     10450
     10451     10453     10451     10457     10457     10454     10454     10456
     10457     10459     10460     10457     10461     10462     10466     10467
     10468     10469     10471     10472     10474     10475     10477     10478
     10461     10466     10461     10463     10461     10464     10461     10465
     10466     10468     10466     10474     10468     10471     10468     10470
     10471     10473     10471     10477     10477     10474     10474     10476
     10477     10479     10480     10477     10481     10482     10486     10487
     10488     10489     10491     10492     10494     10495     10497     10498
     10481     10486     10481     10483     10481     10484     10481     10485
     10486     10488     10486     10494     10488     10491     10488     10490
     10491     10493     10491     10497     10497     10494     10494     10496
     10497     10499     10500     10497     10501     10502     10506     10507
     10508     10509     10511     10512     10514     10515     10517     10518
     10501     10506     10501     10503     10501     10504     10501     10505
     10506     10508     10506     10514     10508     10511     10508     10510
     10511     10513     10511     10517     10517     10514     10514     10516
     10517     10519     10520     10517     10521     10522     10526     10527
     10528     10529     10531     10532     10534     10535     10537     10538
     10521     10526     10521     10523     10521     10524     10521     10525
     10526     10528     10526     10534     10528     10531     10528     10530
     10531     10533     10531     10537     10537     10534     10534     10536
     10537     10539     10540     10537     10541     10542     10546     10547
     10548     10549     10551     10552     10554     10555     10557     10558
     10541     10546     10541     10543     10541     10544     10541     10545
     10546     10548     10546     10554     10548     10551     10548     10550
     10551     10553     10551     10557     10557     10554     10554     10556
     10557     10559     10560     10557     10561     10562     10566     10567
     10568     10569     10571     10572     10574     10575     10577     10578
     10561     10566     10561     10563     10561     10564     10561     10565
     10566     10568     10566     10574     10568     10571     10568     10570
     10571     10573     10571     10577     10577     10574     10574     10576
     10577     10579     10580     10577     10581     10582     10586     10587
     10588     10589     10591     10592     10594     10595     10597     10598
     10581     10586     10581     10583     10581     10584     10581     10585
     10586     10588     10586     10594     10588     10591     10588     10590
     10591     10593     10591     10597     10597     10594     10594     10596
     10597     10599     10600     10597     10601     10602     10606     10607
     10608     10609     10611     10612     10614     10615     10617     10618
     10601     10606     10601     10603     10601     10604     10601     10605
     10606     10608     10606     10614     10608     10611     10608     10610
     10611     10613     10611     10617     10617     10614     10614     10616
     10617     10619     10620     10617     10621     10622     10626     10627
     10628     10629     10631     10632     10634     10635     10637     10638
     10621     10626     10621     10623     10621     10624     10621     10625
     10626     10628     10626     10634     10628     10631     10628     10630
     10631     10633     10631     10637     10637     10634     10634     10636
     10637     10639     10640     10637     10641     10642     10646     10647
     10648     10649     10651     10652     10654     10655     10657     10658
     10641     10646     10641     10643     10641     10644     10641     10645
     10646     10648     10646     10654     10648     10651     10648     10650
     10651     10653     10651     10657     10657     10654     10654     10656
     10657     10659     10660     10657     10661     10662     10666     10667
     10668     10669     10671     10672     10674     10675     10677     10678
     10661     10666     10661     10663     10661     10664     10661     10665
     10666     10668     10666     10674     10668     10671     10668     10670
     10671     10673     10671     10677     10677     10674     10674     10676
     10677     10679     10680     10677     10681     10682     10686     10687
     10688     10689     10691     10692     10694     10695     10697     10698
     10681     10686     10681     10683     10681     10684     10681     10685
     10686     10688     10686     10694     10688     10691     10688     10690
     10691     10693     10691     10697     10697     10694     10694     10696
     10697     10699     10700     10697     10701     10702     10706     10707
     10708     10709     10711     10712     10714     10715     10717     10718
     10701     10706     10701     10703     10701     10704     10701     10705
     10706     10708     10706     10714     10708     10711     10708     10710
     10711     10713     10711     10717     10717     10714     10714     10716
     10717     10719     10720     10717     10721     10722     10726     10727
     10728     10729     10731     10732     10734     10735     10737     10738
     10721     10726     10721     10723     10721     10724     10721     10725
     10726     10728     10726     10734     10728     10731     10728     10730
     10731     10733     10731     10737     10737     10734     10734     10736
     10737     10739     10740     10737     10741     10742     10746     10747
     10748     10749     10751     10752     10754     10755     10757     10758
     10741     10746     10741     10743     10741     10744     10741     10745
     10746     10748     10746     10754     10748     10751     10748     10750
     10751     10753     10751     10757     10757     10754     10754     10756
     10757     10759     10760     10757     10761     10762     10766     10767
     10768     10769     10771     10772     10774     10775     10777     10778
     10761     10766     10761     10763     10761     10764     10761     10765
     10766     10768     10766     10774     10768     10771     10768     10770
     10771     10773     10771     10777     10777     10774     10774     10776
     10777     10779     10780     10777     10781     10782     10786     10787
     10788     10789     10791     10792     10794     10795     10797     10798
     10781     10786     10781     10783     10781     10784     10781     10785
     10786     10788     10786     10794     10788     10791     10788     10790
     10791     10793     10791     10797     10797     10794     10794     10796
     10797     10799     10800     10797     10801     10802     10806     10807
     10808     10809     10811     10812     10814     10815     10817     10818
     10801     10806     10801     10803     10801     10804     10801     10805
     10806     10808     10806     10814     10808     10811     10808     10810
     10811     10813     10811     10817     10817     10814     10814     10816
     10817     10819     10820     10817     10821     10822     10826     10827
     10828     10829     10831     10832     10834     10835     10837     10838
     10821     10826     10821     10823     10821     10824     10821     10825
     10826     10828     10826     10834     10828     10831     10828     10830
     10831     10833     10831     10837     10837     10834     10834     10836
     10837     10839     10840     10837     10841     10842     10846     10847
     10848     10849     10851     10852     10854     10855     10857     10858
     10841     10846     10841     10843     10841     10844     10841     10845
     10846     10848     10846     10854     10848     10851     10848     10850
     10851     10853     10851     10857     10857     10854     10854     10856
     10857     10859     10860     10857     10861     10862     10866     10867
     10868     10869     10871     10872     10874     10875     10877     10878
     10861     10866     10861     10863     10861     10864     10861     10865
     10866     10868     10866     10874     10868     10871     10868     10870
     10871     10873     10871     10877     10877     10874     10874     10876
     10877     10879     10880     10877     10881     10882     10886     10887
     10888     10889     10891     10892     10894     10895     10897     10898
     10881     10886     10881     10883     10881     10884     10881     10885
     10886     10888     10886     10894     10888     10891     10888     10890
     10891     10893     10891     10897     10897     10894     10894     10896
     10897     10899     10900     10897     10901     10902     10906     10907
     10908     10909     10911     10912     10914     10915     10917     10918
     10901     10906     10901     10903     10901     10904     10901     10905
     10906     10908     10906     10914     10908     10911     10908     10910
     10911     10913     10911     10917     10917     10914     10914     10916
     10917     10919     10920     10917     10921     10922     10926     10927
     10928     10929     10931     10932     10934     10935     10937     10938
     10921     10926     10921     10923     10921     10924     10921     10925
     10926     10928     10926     10934     10928     10931     10928     10930
     10931     10933     10931     10937     10937     10934     10934     10936
     10937     10939     10940     10937     10941     10942     10946     10947
     10948     10949     10951     10952     10954     10955     10957     10958
     10941     10946     10941     10943     10941     10944     10941     10945
     10946     10948     10946     10954     10948     10951     10948     10950
     10951     10953     10951     10957     10957     10954     10954     10956
     10957     10959     10960     10957     10961     10962     10966     10967
     10968     10969     10971     10972     10974     10975     10977     10978
     10961     10966     10961     10963     10961     10964     10961     10965
     10966     10968     10966     10974     10968     10971     10968     10970
     10971     10973     10971     10977     10977     10974     10974     10976
     10977     10979     10980     10977     10981     10982     10986     10987
     10988     10989     10991     10992     10994     10995     10997     10998
     10981     10986     10981     10983     10981     10984     10981     10985
     10986     10988     10986     10994     10988     10991     10988     10990
     10991     10993     10991     10997     10997     10994     10994     10996
     10997     10999     11000     10997     11001     11002     11006     11007
     11008     11009     11011     11012     11014     11015     11017     11018
     11001     11006     11001     11003     11001     11004     11001     11005
     11006     11008     11006     11014     11008     11011     11008     11010
     11011     11013     11011     11017     11017     11014     11014     11016
     11017     11019     11020     11017     11021     11022     11026     11027
     11028     11029     11031     11032     11034     11035     11037     11038
     11021     11026     11021     11023     11021     11024     11021     11025
     11026     11028     11026     11034     11028     11031     11028     11030
     11031     11033     11031     11037     11037     11034     11034     11036
     11037     11039     11040     11037     11041     11042     11046     11047
     11048     11049     11051     11052     11054     11055     11057     11058
     11041     11046     11041     11043     11041     11044     11041     11045
     11046     11048     11046     11054     11048     11051     11048     11050
     11051     11053     11051     11057     11057     11054     11054     11056
     11057     11059     11060     11057     11061     11062     11066     11067
     11068     11069     11071     11072     11074     11075     11077     11078
     11061     11066     11061     11063     11061     11064     11061     11065
     11066     11068     11066     11074     11068     11071     11068     11070
     11071     11073     11071     11077     11077     11074     11074     11076
     11077     11079     11080     11077     11081     11082     11086     11087
     11088     11089     11091     11092     11094     11095     11097     11098
     11081     11086     11081     11083     11081     11084     11081     11085
     11086     11088     11086     11094     11088     11091     11088     11090
     11091     11093     11091     11097     11097     11094     11094     11096
     11097     11099     11100     11097     11101     11102     11106     11107
     11108     11109     11111     11112     11114     11115     11117     11118
     11101     11106     11101     11103     11101     11104     11101     11105
     11106     11108     11106     11114     11108     11111     11108     11110
     11111     11113     11111     11117     11117     11114     11114     11116
     11117     11119     11120     11117     11121     11122     11126     11127
     11128     11129     11131     11132     11134     11135     11137     11138
     11121     11126     11121     11123     11121     11124     11121     11125
     11126     11128     11126     11134     11128     11131     11128     11130
     11131     11133     11131     11137     11137     11134     11134     11136
     11137     11139     11140     11137     11141     11142     11146     11147
     11148     11149     11151     11152     11154     11155     11157     11158
     11141     11146     11141     11143     11141     11144     11141     11145
     11146     11148     11146     11154     11148     11151     11148     11150
     11151     11153     11151     11157     11157     11154     11154     11156
     11157     11159     11160     11157     11161     11162     11166     11167
     11168     11169     11171     11172     11174     11175     11177     11178
     11161     11166     11161     11163     11161     11164     11161     11165
     11166     11168     11166     11174     11168     11171     11168     11170
     11171     11173     11171     11177     11177     11174     11174     11176
     11177     11179     11180     11177     11181     11182     11186     11187
     11188     11189     11191     11192     11194     11195     11197     11198
     11181     11186     11181     11183     11181     11184     11181     11185
     11186     11188     11186     11194     11188     11191     11188     11190
     11191     11193     11191     11197     11197     11194     11194     11196
     11197     11199     11200     11197     11201     11202     11206     11207
     11208     11209     11211     11212     11214     11215     11217     11218
     11201     11206     11201     11203     11201     11204     11201     11205
     11206     11208     11206     11214     11208     11211     11208     11210
     11211     11213     11211     11217     11217     11214     11214     11216
     11217     11219     11220     11217     11221     11222     11226     11227
     11228     11229     11231     11232     11234     11235     11237     11238
     11221     11226     11221     11223     11221     11224     11221     11225
     11226     11228     11226     11234     11228     11231     11228     11230
     11231     11233     11231     11237     11237     11234     11234     11236
     11237     11239     11240     11237     11241     11242     11246     11247
     11248     11249     11251     11252     11254     11255     11257     11258
     11241     11246     11241     11243     11241     11244     11241     11245
     11246     11248     11246     11254     11248     11251     11248     11250
     11251     11253     11251     11257     11257     11254     11254     11256
     11257     11259     11260     11257     11261     11262     11266     11267
     11268     11269     11271     11272     11274     11275     11277     11278
     11261     11266     11261     11263     11261     11264     11261     11265
     11266     11268     11266     11274     11268     11271     11268     11270
     11271     11273     11271     11277     11277     11274     11274     11276
     11277     11279     11280     11277     11281     11282     11286     11287
     11288     11289     11291     11292     11294     11295     11297     11298
     11281     11286     11281     11283     11281     11284     11281     11285
     11286     11288     11286     11294     11288     11291     11288     11290
     11291     11293     11291     11297     11297     11294     11294     11296
     11297     11299     11300     11297     11301     11302     11306     11307
     11308     11309     11311     11312     11314     11315     11317     11318
     11301     11306     11301     11303     11301     11304     11301     11305
     11306     11308     11306     11314     11308     11311     11308     11310
     11311     11313     11311     11317     11317     11314     11314     11316
     11317     11319     11320     11317     11321     11322     11326     11327
     11328     11329     11331     11332     11334     11335     11337     11338
     11321     11326     11321     11323     11321     11324     11321     11325
     11326     11328     11326     11334     11328     11331     11328     11330
     11331     11333     11331     11337     11337     11334     11334     11336
     11337     11339     11340     11337     11341     11342     11346     11347
     11348     11349     11351     11352     11354     11355     11357     11358
     11341     11346     11341     11343     11341     11344     11341     11345
     11346     11348     11346     11354     11348     11351     11348     11350
     11351     11353     11351     11357     11357     11354     11354     11356
     11357     11359     11360     11357     11361     11362     11366     11367
     11368     11369     11371     11372     11374     11375     11377     11378
     11361     11366     11361     11363     11361     11364     11361     11365
     11366     11368     11366     11374     11368     11371     11368     11370
     11371     11373     11371     11377     11377     11374     11374     11376
     11377     11379     11380     11377     11381     11382     11386     11387
     11388     11389     11391     11392     11394     11395     11397     11398
     11381     11386     11381     11383     11381     11384     11381     11385
     11386     11388     11386     11394     11388     11391     11388     11390
     11391     11393     11391     11397     11397     11394     11394     11396
     11397     11399     11400     11397     11401     11402     11406     11407
     11408     11409     11411     11412     11414     11415     11417     11418
     11401     11406     11401     11403     11401     11404     11401     11405
     11406     11408     11406     11414     11408     11411     11408     11410
     11411     11413     11411     11417     11417     11414     11414     11416
     11417     11419     11420     11417     11421     11422     11426     11427
     11428     11429     11431     11432     11434     11435     11437     11438
     11421     11426     11421     11423     11421     11424     11421     11425
     11426     11428     11426     11434     11428     11431     11428     11430
     11431     11433     11431     11437     11437     11434     11434     11436
     11437     11439     11440     11437     11441     11442     11443     11444
     11448     11449     11450     11451     11443     11441     11441     11448
     11441     11450     11443     11445     11443     11446     11443     11447
     11450     11452     11448     11453     11448     11454     11450     11455
     11450     11456     11457     11458     11459     11460     11464     11465
     11466     11467     11459     11457     11457     11464     11457     11466
     11459     11461     11459     11462     11459     11463     11466     11468
     11464     11469     11464     11470     11466     11471     11466     11472
     11473     11474     11475     11476     11480     11481     11482     11483
     11475     11473     11473     11480     11473     11482     11475     11477
     11475     11478     11475     11479     11482     11484     11480     11485
     11480     11486     11482     11487     11482     11488     11489     11490
     11491     11492     11496     11497     11498     11499     11491     11489
     11489     11496     11489     11498     11491     11493     11491     11494
     11491     11495     11498     11500     11496     11501     11496     11502
     11498     11503     11498     11504     11505     11506     11507     11508
     11512     11513     11514     11515     11507     11505     11505     11512
     11505     11514     11507     11509     11507     11510     11507     11511
     11514     11516     11512     11517     11512     11518     11514     11519
     11514     11520     11521     11522     11523     11524     11528     11529
     11530     11531     11523     11521     11521     11528     11521     11530
     11523     11525     11523     11526     11523     11527     11530     11532
     11528     11533     11528     11534     11530     11535     11530     11536
     11537     11538     11539     11540     11544     11545     11546     11547
     11539     11537     11537     11544     11537     11546     11539     11541
     11539     11542     11539     11543     11546     11548     11544     11549
     11544     11550     11546     11551     11546     11552     11553     11554
     11555     11556     11560     11561     11562     11563     11555     11553
     11553     11560     11553     11562     11555     11557     11555     11558
     11555     11559     11562     11564     11560     11565     11560     11566
     11562     11567     11562     11568     11569     11570     11571     11572
     11576     11577     11578     11579     11571     11569     11569     11576
     11569     11578     11571     11573     11571     11574     11571     11575
     11578     11580     11576     11581     11576     11582     11578     11583
     11578     11584     11585     11586     11587     11588     11592     11593
     11594     11595     11587     11585     11585     11592     11585     11594
     11587     11589     11587     11590     11587     11591     11594     11596
     11592     11597     11592     11598     11594     11599     11594     11600
     11601     11602     11603     11604     11608     11609     11610     11611
     11603     11601     11601     11608     11601     11610     11603     11605
     11603     11606     11603     11607     11610     11612     11608     11613
     11608     11614     11610     11615     11610     11616     11617     11618
     11619     11620     11624     11625     11626     11627     11619     11617
     11617     11624     11617     11626     11619     11621     11619     11622
     11619     11623     11626     11628     11624     11629     11624     11630
     11626     11631     11626     11632     11633     11634     11635     11636
     11640     11641     11642     11643     11635     11633     11633     11640
     11633     11642     11635     11637     11635     11638     11635     11639
     11642     11644     11640     11645     11640     11646     11642     11647
     11642     11648     11649     11650     11651     11652     11656     11657
     11658     11659     11651     11649     11649     11656     11649     11658
     11651     11653     11651     11654     11651     11655     11658     11660
     11656     11661     11656     11662     11658     11663     11658     11664
     11665     11666     11667     11668     11672     11673     11674     11675
     11667     11665     11665     11672     11665     11674     11667     11669
     11667     11670     11667     11671     11674     11676     11672     11677
     11672     11678     11674     11679     11674     11680     11681     11682
     11683     11684     11688     11689     11690     11691     11683     11681
     11681     11688     11681     11690     11683     11685     11683     11686
     11683     11687     11690     11692     11688     11693     11688     11694
     11690     11695     11690     11696     11697     11698     11699     11700
     11704     11705     11706     11707     11699     11697     11697     11704
     11697     11706     11699     11701     11699     11702     11699     11703
     11706     11708     11704     11709     11704     11710     11706     11711
     11706     11712     11713     11714     11715     11716     11720     11721
     11722     11723     11715     11713     11713     11720     11713     11722
     11715     11717     11715     11718     11715     11719     11722     11724
     11720     11725     11720     11726     11722     11727     11722     11728
     11729     11730     11731     11732     11736     11737     11738     11739
     11731     11729     11729     11736     11729     11738     11731     11733
     11731     11734     11731     11735     11738     11740     11736     11741
     11736     11742     11738     11743     11738     11744     11745     11746
     11747     11748     11752     11753     11754     11755     11747     11745
     11745     11752     11745     11754     11747     11749     11747     11750
     11747     11751     11754     11756     11752     11757     11752     11758
     11754     11759     11754     11760     11761     11762     11763     11764
     11768     11769     11770     11771     11763     11761     11761     11768
     11761     11770     11763     11765     11763     11766     11763     11767
     11770     11772     11768     11773     11768     11774     11770     11775
     11770     11776     11777     11778     11779     11780     11784     11785
     11786     11787     11779     11777     11777     11784     11777     11786
     11779     11781     11779     11782     11779     11783     11786     11788
     11784     11789     11784     11790     11786     11791     11786     11792
     11793     11794     11795     11796     11800     11801     11802     11803
     11795     11793     11793     11800     11793     11802     11795     11797
     11795     11798     11795     11799     11802     11804     11800     11805
     11800     11806     11802     11807     11802     11808     11809     11810
     11811     11812     11816     11817     11818     11819     11811     11809
     11809     11816     11809     11818     11811     11813     11811     11814
     11811     11815     11818     11820     11816     11821     11816     11822
     11818     11823     11818     11824     11825     11826     11827     11828
     11832     11833     11834     11835     11827     11825     11825     11832
     11825     11834     11827     11829     11827     11830     11827     11831
     11834     11836     11832     11837     11832     11838     11834     11839
     11834     11840     11841     11842     11843     11844     11848     11849
     11850     11851     11843     11841     11841     11848     11841     11850
     11843     11845     11843     11846     11843     11847     11850     11852
     11848     11853     11848     11854     11850     11855     11850     11856
     11857     11858     11859     11860     11864     11865     11866     11867
     11859     11857     11857     11864     11857     11866     11859     11861
     11859     11862     11859     11863     11866     11868     11864     11869
     11864     11870     11866     11871     11866     11872     11873     11874
     11875     11876     11880     11881     11882     11883     11875     11873
     11873     11880     11873     11882     11875     11877     11875     11878
     11875     11879     11882     11884     11880     11885     11880     11886
     11882     11887     11882     11888     11889     11890     11891     11892
     11896     11897     11898     11899     11891     11889     11889     11896
     11889     11898     11891     11893     11891     11894     11891     11895
     11898     11900     11896     11901     11896     11902     11898     11903
     11898     11904     11905     11906     11907     11908     11912     11913
     11914     11915     11907     11905     11905     11912     11905     11914
     11907     11909     11907     11910     11907     11911     11914     11916
     11912     11917     11912     11918     11914     11919     11914     11920
     11921     11922     11923     11924     11928     11929     11930     11931
     11923     11921     11921     11928     11921     11930     11923     11925
     11923     11926     11923     11927     11930     11932     11928     11933
     11928     11934     11930     11935     11930     11936     11937     11938
     11939     11940     11944     11945     11946     11947     11939     11937
     11937     11944     11937     11946     11939     11941     11939     11942
     11939     11943     11946     11948     11944     11949     11944     11950
     11946     11951     11946     11952     11953     11954     11955     11956
     11960     11961     11962     11963     11955     11953     11953     11960
     11953     11962     11955     11957     11955     11958     11955     11959
     11962     11964     11960     11965     11960     11966     11962     11967
     11962     11968     11969     11970     11971     11972     11976     11977
     11978     11979     11971     11969     11969     11976     11969     11978
     11971     11973     11971     11974     11971     11975     11978     11980
     11976     11981     11976     11982     11978     11983     11978     11984
     11985     11986     11987     11988     11992     11993     11994     11995
     11987     11985     11985     11992     11985     11994     11987     11989
     11987     11990     11987     11991     11994     11996     11992     11997
     11992     11998     11994     11999     11994     12000     12001     12002
     12003     12004     12008     12009     12010     12011     12003     12001
     12001     12008     12001     12010     12003     12005     12003     12006
     12003     12007     12010     12012     12008     12013     12008     12014
     12010     12015     12010     12016     12017     12018     12019     12020
     12024     12025     12026     12027     12019     12017     12017     12024
     12017     12026     12019     12021     12019     12022     12019     12023
     12026     12028     12024     12029     12024     12030     12026     12031
     12026     12032     12033     12034     12035     12036     12040     12041
     12042     12043     12035     12033     12033     12040     12033     12042
     12035     12037     12035     12038     12035     12039     12042     12044
     12040     12045     12040     12046     12042     12047     12042     12048
     12049     12050     12051     12052     12056     12057     12058     12059
     12051     12049     12049     12056     12049     12058     12051     12053
     12051     12054     12051     12055     12058     12060     12056     12061
     12056     12062     12058     12063     12058     12064     12065     12066
     12067     12068     12072     12073     12074     12075     12067     12065
     12065     12072     12065     12074     12067     12069     12067     12070
     12067     12071     12074     12076     12072     12077     12072     12078
     12074     12079     12074     12080     12081     12082     12083     12084
     12088     12089     12090     12091     12083     12081     12081     12088
     12081     12090     12083     12085     12083     12086     12083     12087
     12090     12092     12088     12093     12088     12094     12090     12095
     12090     12096     12097     12098     12099     12100     12104     12105
     12106     12107     12099     12097     12097     12104     12097     12106
     12099     12101     12099     12102     12099     12103     12106     12108
     12104     12109     12104     12110     12106     12111     12106     12112
     12113     12114     12115     12116     12120     12121     12122     12123
     12115     12113     12113     12120     12113     12122     12115     12117
     12115     12118     12115     12119     12122     12124     12120     12125
     12120     12126     12122     12127     12122     12128     12129     12130
     12131     12132     12136     12137     12138     12139     12131     12129
     12129     12136     12129     12138     12131     12133     12131     12134
     12131     12135     12138     12140     12136     12141     12136     12142
     12138     12143     12138     12144     12145     12146     12147     12148
     12152     12153     12154     12155     12147     12145     12145     12152
     12145     12154     12147     12149     12147     12150     12147     12151
     12154     12156     12152     12157     12152     12158     12154     12159
     12154     12160     12161     12162     12163     12164     12168     12169
     12170     12171     12163     12161     12161     12168     12161     12170
     12163     12165     12163     12166     12163     12167     12170     12172
     12168     12173     12168     12174     12170     12175     12170     12176
     12177     12178     12179     12180     12184     12185     12186     12187
     12179     12177     12177     12184     12177     12186     12179     12181
     12179     12182     12179     12183     12186     12188     12184     12189
     12184     12190     12186     12191     12186     12192     12193     12194
     12195     12196     12200     12201     12202     12203     12195     12193
     12193     12200     12193     12202     12195     12197     12195     12198
     12195     12199     12202     12204     12200     12205     12200     12206
     12202     12207     12202     12208     12209     12210     12211     12212
     12216     12217     12218     12219     12211     12209     12209     12216
     12209     12218     12211     12213     12211     12214     12211     12215
     12218     12220     12216     12221     12216     12222     12218     12223
     12218     12224     12225     12226     12227     12228     12232     12233
     12234     12235     12227     12225     12225     12232     12225     12234
     12227     12229     12227     12230     12227     12231     12234     12236
     12232     12237     12232     12238     12234     12239     12234     12240
     12241     12242     12243     12244     12248     12249     12250     12251
     12243     12241     12241     12248     12241     12250     12243     12245
     12243     12246     12243     12247     12250     12252     12248     12253
     12248     12254     12250     12255     12250     12256     12257     12258
     12259     12260     12264     12265     12266     12267     12259     12257
     12257     12264     12257     12266     12259     12261     12259     12262
     12259     12263     12266     12268     12264     12269     12264     12270
     12266     12271     12266     12272     12273     12274     12275     12276
     12280     12281     12282     12283     12275     12273     12273     12280
     12273     12282     12275     12277     12275     12278     12275     12279
     12282     12284     12280     12285     12280     12286     12282     12287
     12282     12288     12289     12290     12291     12292     12296     12297
     12298     12299     12291     12289     12289     12296     12289     12298
     12291     12293     12291     12294     12291     12295     12298     12300
     12296     12301     12296     12302     12298     12303     12298     12304
     12305     12306     12307     12308     12312     12313     12314     12315
     12307     12305     12305     12312     12305     12314     12307     12309
     12307     12310     12307     12311     12314     12316     12312     12317
     12312     12318     12314     12319     12314     12320     12321     12322
     12323     12324     12328     12329     12330     12331     12323     12321
     12321     12328     12321     12330     12323     12325     12323     12326
     12323     12327     12330     12332     12328     12333     12328     12334
     12330     12335     12330     12336     12337     12338     12339     12340
     12344     12345     12346     12347     12339     12337     12337     12344
     12337     12346     12339     12341     12339     12342     12339     12343
     12346     12348     12344     12349     12344     12350     12346     12351
     12346     12352     12353     12354     12355     12356     12360     12361
     12362     12363     12355     12353     12353     12360     12353     12362
     12355     12357     12355     12358     12355     12359     12362     12364
     12360     12365     12360     12366     12362     12367     12362     12368
     12369     12370     12371     12372     12376     12377     12378     12379
     12371     12369     12369     12376     12369     12378     12371     12373
     12371     12374     12371     12375     12378     12380     12376     12381
     12376     12382     12378     12383     12378     12384     12385     12386
     12387     12388     12392     12393     12394     12395     12387     12385
     12385     12392     12385     12394     12387     12389     12387     12390
     12387     12391     12394     12396     12392     12397     12392     12398
     12394     12399     12394     12400     12401     12402     12403     12404
     12408     12409     12410     12411     12403     12401     12401     12408
     12401     12410     12403     12405     12403     12406     12403     12407
     12410     12412     12408     12413     12408     12414     12410     12415
     12410     12416     12417     12418     12419     12420     12424     12425
     12426     12427     12419     12417     12417     12424     12417     12426
     12419     12421     12419     12422     12419     12423     12426     12428
     12424     12429     12424     12430     12426     12431     12426     12432
     12433     12434     12435     12436     12440     12441     12442     12443
     12435     12433     12433     12440     12433     12442     12435     12437
     12435     12438     12435     12439     12442     12444     12440     12445
     12440     12446     12442     12447     12442     12448     12449     12450
     12451     12452     12456     12457     12458     12459     12451     12449
     12449     12456     12449     12458     12451     12453     12451     12454
     12451     12455     12458     12460     12456     12461     12456     12462
     12458     12463     12458     12464     12465     12466     12467     12468
     12472     12473     12474     12475     12467     12465     12465     12472
     12465     12474     12467     12469     12467     12470     12467     12471
     12474     12476     12472     12477     12472     12478     12474     12479
     12474     12480     12481     12482     12483     12484     12488     12489
     12490     12491     12483     12481     12481     12488     12481     12490
     12483     12485     12483     12486     12483     12487     12490     12492
     12488     12493     12488     12494     12490     12495     12490     12496
     12497     12498     12499     12500     12504     12505     12506     12507
     12499     12497     12497     12504     12497     12506     12499     12501
     12499     12502     12499     12503     12506     12508     12504     12509
     12504     12510     12506     12511     12506     12512     12513     12514
     12515     12516     12520     12521     12522     12523     12515     12513
     12513     12520     12513     12522     12515     12517     12515     12518
     12515     12519     12522     12524     12520     12525     12520     12526
     12522     12527     12522     12528     12529     12530     12531     12532
     12536     12537     12538     12539     12531     12529     12529     12536
     12529     12538     12531     12533     12531     12534     12531     12535
     12538     12540     12536     12541     12536     12542     12538     12543
     12538     12544     12545     12546     12547     12548     12552     12553
     12554     12555     12547     12545     12545     12552     12545     12554
     12547     12549     12547     12550     12547     12551     12554     12556
     12552     12557     12552     12558     12554     12559     12554     12560
     12561     12562     12563     12564     12568     12569     12570     12571
     12563     12561     12561     12568     12561     12570     12563     12565
     12563     12566     12563     12567     12570     12572     12568     12573
     12568     12574     12570     12575     12570     12576     12577     12578
     12579     12580     12584     12585     12586     12587     12579     12577
     12577     12584     12577     12586     12579     12581     12579     12582
     12579     12583     12586     12588     12584     12589     12584     12590
     12586     12591     12586     12592     12593     12594     12595     12596
     12600     12601     12602     12603     12595     12593     12593     12600
     12593     12602     12595     12597     12595     12598     12595     12599
     12602     12604     12600     12605     12600     12606     12602     12607
     12602     12608     12609     12610     12611     12612     12616     12617
     12618     12619     12611     12609     12609     12616     12609     12618
     12611     12613     12611     12614     12611     12615     12618     12620
     12616     12621     12616     12622     12618     12623     12618     12624
     12625     12626     12627     12628     12632     12633     12634     12635
     12627     12625     12625     12632     12625     12634     12627     12629
     12627     12630     12627     12631     12634     12636     12632     12637
     12632     12638     12634     12639     12634     12640     12641     12642
     12643     12644     12648     12649     12650     12651     12643     12641
     12641     12648     12641     12650     12643     12645     12643     12646
     12643     12647     12650     12652     12648     12653     12648     12654
     12650     12655     12650     12656     12657     12658     12659     12660
     12664     12665     12666     12667     12659     12657     12657     12664
     12657     12666     12659     12661     12659     12662     12659     12663
     12666     12668     12664     12669     12664     12670     12666     12671
     12666     12672     12673     12674     12675     12676     12680     12681
     12682     12683     12675     12673     12673     12680     12673     12682
     12675     12677     12675     12678     12675     12679     12682     12684
     12680     12685     12680     12686     12682     12687     12682     12688
     12689     12690     12691     12692     12696     12697     12698     12699
     12691     12689     12689     12696     12689     12698     12691     12693
     12691     12694     12691     12695     12698     12700     12696     12701
     12696     12702     12698     12703     12698     12704     12705     12706
     12707     12708     12712     12713     12714     12715     12707     12705
     12705     12712     12705     12714     12707     12709     12707     12710
     12707     12711     12714     12716     12712     12717     12712     12718
     12714     12719     12714     12720     12721     12722     12723     12724
     12728     12729     12730     12731     12723     12721     12721     12728
     12721     12730     12723     12725     12723     12726     12723     12727
     12730     12732     12728     12733     12728     12734     12730     12735
     12730     12736     12737     12738     12739     12740     12744     12745
     12746     12747     12739     12737     12737     12744     12737     12746
     12739     12741     12739     12742     12739     12743     12746     12748
     12744     12749     12744     12750     12746     12751     12746     12752
     12753     12754     12755     12756     12760     12761     12762     12763
     12755     12753     12753     12760     12753     12762     12755     12757
     12755     12758     12755     12759     12762     12764     12760     12765
     12760     12766     12762     12767     12762     12768     12769     12770
     12771     12772     12776     12777     12778     12779     12771     12769
     12769     12776     12769     12778     12771     12773     12771     12774
     12771     12775     12778     12780     12776     12781     12776     12782
     12778     12783     12778     12784     12785     12786     12787     12788
     12792     12793     12794     12795     12787     12785     12785     12792
     12785     12794     12787     12789     12787     12790     12787     12791
     12794     12796     12792     12797     12792     12798     12794     12799
     12794     12800     12801     12802     12803     12804     12808     12809
     12810     12811     12803     12801     12801     12808     12801     12810
     12803     12805     12803     12806     12803     12807     12810     12812
     12808     12813     12808     12814     12810     12815     12810     12816
     12817     12818     12819     12820     12824     12825     12826     12827
     12819     12817     12817     12824     12817     12826     12819     12821
     12819     12822     12819     12823     12826     12828     12824     12829
     12824     12830     12826     12831     12826     12832     12833     12834
     12835     12836     12840     12841     12842     12843     12835     12833
     12833     12840     12833     12842     12835     12837     12835     12838
     12835     12839     12842     12844     12840     12845     12840     12846
     12842     12847     12842     12848     12849     12850     12851     12852
     12856     12857     12858     12859     12851     12849     12849     12856
     12849     12858     12851     12853     12851     12854     12851     12855
     12858     12860     12856     12861     12856     12862     12858     12863
     12858     12864     12865     12866     12867     12868     12872     12873
     12874     12875     12867     12865     12865     12872     12865     12874
     12867     12869     12867     12870     12867     12871     12874     12876
     12872     12877     12872     12878     12874     12879     12874     12880
     12881     12882     12883     12884     12888     12889     12890     12891
     12883     12881     12881     12888     12881     12890     12883     12885
     12883     12886     12883     12887     12890     12892     12888     12893
     12888     12894     12890     12895     12890     12896     12897     12898
     12899     12900     12904     12905     12906     12907     12899     12897
     12897     12904     12897     12906     12899     12901     12899     12902
     12899     12903     12906     12908     12904     12909     12904     12910
     12906     12911     12906     12912     12913     12914     12915     12916
     12920     12921     12922     12923     12915     12913     12913     12920
     12913     12922     12915     12917     12915     12918     12915     12919
     12922     12924     12920     12925     12920     12926     12922     12927
     12922     12928     12929     12930     12931     12932     12936     12937
     12938     12939     12931     12929     12929     12936     12929     12938
     12931     12933     12931     12934     12931     12935     12938     12940
     12936     12941     12936     12942     12938     12943     12938     12944
     12945     12946     12947     12948     12952     12953     12954     12955
     12947     12945     12945     12952     12945     12954     12947     12949
     12947     12950     12947     12951     12954     12956     12952     12957
     12952     12958     12954     12959     12954     12960     12961     12962
     12963     12964     12968     12969     12970     12971     12963     12961
     12961     12968     12961     12970     12963     12965     12963     12966
     12963     12967     12970     12972     12968     12973     12968     12974
     12970     12975     12970     12976     12977     12978     12979     12980
     12984     12985     12986     12987     12979     12977     12977     12984
     12977     12986     12979     12981     12979     12982     12979     12983
     12986     12988     12984     12989     12984     12990     12986     12991
     12986     12992     12993     12994     12995     12996     13000     13001
     13002     13003     12995     12993     12993     13000     12993     13002
     12995     12997     12995     12998     12995     12999     13002     13004
     13000     13005     13000     13006     13002     13007     13002     13008
     13009     13010     13011     13012     13016     13017     13018     13019
     13011     13009     13009     13016     13009     13018     13011     13013
     13011     13014     13011     13015     13018     13020     13016     13021
     13016     13022     13018     13023     13018     13024     13025     13026
     13027     13028     13032     13033     13034     13035     13027     13025
     13025     13032     13025     13034     13027     13029     13027     13030
     13027     13031     13034     13036     13032     13037     13032     13038
     13034     13039     13034     13040     13041     13042     13043     13044
     13048     13049     13050     13051     13043     13041     13041     13048
     13041     13050     13043     13045     13043     13046     13043     13047
     13050     13052     13048     13053     13048     13054     13050     13055
     13050     13056     13057     13058     13059     13060     13064     13065
     13066     13067     13059     13057     13057     13064     13057     13066
     13059     13061     13059     13062     13059     13063     13066     13068
     13064     13069     13064     13070     13066     13071     13066     13072
     13073     13074     13075     13076     13080     13081     13082     13083
     13075     13073     13073     13080     13073     13082     13075     13077
     13075     13078     13075     13079     13082     13084     13080     13085
     13080     13086     13082     13087     13082     13088     13089     13090
     13091     13092     13096     13097     13098     13099     13091     13089
     13089     13096     13089     13098     13091     13093     13091     13094
     13091     13095     13098     13100     13096     13101     13096     13102
     13098     13103     13098     13104     13105     13106     13107     13108
     13112     13113     13114     13115     13107     13105     13105     13112
     13105     13114     13107     13109     13107     13110     13107     13111
     13114     13116     13112     13117     13112     13118     13114     13119
     13114     13120     13121     13122     13123     13124     13128     13129
     13130     13131     13123     13121     13121     13128     13121     13130
     13123     13125     13123     13126     13123     13127     13130     13132
     13128     13133     13128     13134     13130     13135     13130     13136
     13137     13138     13139     13140     13144     13145     13146     13147
     13139     13137     13137     13144     13137     13146     13139     13141
     13139     13142     13139     13143     13146     13148     13144     13149
     13144     13150     13146     13151     13146     13152     13153     13154
     13155     13156     13160     13161     13162     13163     13155     13153
     13153     13160     13153     13162     13155     13157     13155     13158
     13155     13159     13162     13164     13160     13165     13160     13166
     13162     13167     13162     13168     13169     13170     13171     13172
     13176     13177     13178     13179     13171     13169     13169     13176
     13169     13178     13171     13173     13171     13174     13171     13175
     13178     13180     13176     13181     13176     13182     13178     13183
     13178     13184     13185     13186     13187     13188     13192     13193
     13194     13195     13187     13185     13185     13192     13185     13194
     13187     13189     13187     13190     13187     13191     13194     13196
     13192     13197     13192     13198     13194     13199     13194     13200
     13201     13202     13203     13204     13208     13209     13210     13211
     13203     13201     13201     13208     13201     13210     13203     13205
     13203     13206     13203     13207     13210     13212     13208     13213
     13208     13214     13210     13215     13210     13216     13217     13218
     13219     13220     13224     13225     13226     13227     13219     13217
     13217     13224     13217     13226     13219     13221     13219     13222
     13219     13223     13226     13228     13224     13229     13224     13230
     13226     13231     13226     13232     13233     13234     13235     13236
     13240     13241     13242     13243     13235     13233     13233     13240
     13233     13242     13235     13237     13235     13238     13235     13239
     13242     13244     13240     13245     13240     13246     13242     13247
     13242     13248     13249     13250     13251     13252     13256     13257
     13258     13259     13251     13249     13249     13256     13249     13258
     13251     13253     13251     13254     13251     13255     13258     13260
     13256     13261     13256     13262     13258     13263     13258     13264
     13265     13266     13267     13268     13272     13273     13274     13275
     13267     13265     13265     13272     13265     13274     13267     13269
     13267     13270     13267     13271     13274     13276     13272     13277
     13272     13278     13274     13279     13274     13280     13281     13282
     13283     13284     13288     13289     13290     13291     13283     13281
     13281     13288     13281     13290     13283     13285     13283     13286
     13283     13287     13290     13292     13288     13293     13288     13294
     13290     13295     13290     13296     13297     13298     13299     13300
     13304     13305     13306     13307     13299     13297     13297     13304
     13297     13306     13299     13301     13299     13302     13299     13303
     13306     13308     13304     13309     13304     13310     13306     13311
     13306     13312     13313     13314     13315     13316     13320     13321
     13322     13323     13315     13313     13313     13320     13313     13322
     13315     13317     13315     13318     13315     13319     13322     13324
     13320     13325     13320     13326     13322     13327     13322     13328
     13329     13330     13331     13332     13336     13337     13338     13339
     13331     13329     13329     13336     13329     13338     13331     13333
     13331     13334     13331     13335     13338     13340     13336     13341
     13336     13342     13338     13343     13338     13344     13345     13346
     13347     13348     13352     13353     13354     13355     13347     13345
     13345     13352     13345     13354     13347     13349     13347     13350
     13347     13351     13354     13356     13352     13357     13352     13358
     13354     13359     13354     13360     13361     13362     13363     13364
     13368     13369     13370     13371     13363     13361     13361     13368
     13361     13370     13363     13365     13363     13366     13363     13367
     13370     13372     13368     13373     13368     13374     13370     13375
     13370     13376     13377     13378     13379     13380     13384     13385
     13386     13387     13379     13377     13377     13384     13377     13386
     13379     13381     13379     13382     13379     13383     13386     13388
     13384     13389     13384     13390     13386     13391     13386     13392
     13393     13394     13395     13396     13400     13401     13402     13403
     13395     13393     13393     13400     13393     13402     13395     13397
     13395     13398     13395     13399     13402     13404     13400     13405
     13400     13406     13402     13407     13402     13408     13409     13410
     13411     13412     13416     13417     13418     13419     13411     13409
     13409     13416     13409     13418     13411     13413     13411     13414
     13411     13415     13418     13420     13416     13421     13416     13422
     13418     13423     13418     13424     13425     13426     13427     13428
     13432     13433     13434     13435     13427     13425     13425     13432
     13425     13434     13427     13429     13427     13430     13427     13431
     13434     13436     13432     13437     13432     13438     13434     13439
     13434     13440     13441     13442     13443     13444     13448     13449
     13450     13451     13443     13441     13441     13448     13441     13450
     13443     13445     13443     13446     13443     13447     13450     13452
     13448     13453     13448     13454     13450     13455     13450     13456
     13457     13458     13459     13460     13464     13465     13466     13467
     13459     13457     13457     13464     13457     13466     13459     13461
     13459     13462     13459     13463     13466     13468     13464     13469
     13464     13470     13466     13471     13466     13472     13473     13474
     13475     13476     13480     13481     13482     13483     13475     13473
     13473     13480     13473     13482     13475     13477     13475     13478
     13475     13479     13482     13484     13480     13485     13480     13486
     13482     13487     13482     13488     13489     13490     13491     13492
     13496     13497     13498     13499     13491     13489     13489     13496
     13489     13498     13491     13493     13491     13494     13491     13495
     13498     13500     13496     13501     13496     13502     13498     13503
     13498     13504     13505     13506     13507     13508     13512     13513
     13514     13515     13507     13505     13505     13512     13505     13514
     13507     13509     13507     13510     13507     13511     13514     13516
     13512     13517     13512     13518     13514     13519     13514     13520
     13521     13522     13523     13524     13528     13529     13530     13531
     13523     13521     13521     13528     13521     13530     13523     13525
     13523     13526     13523     13527     13530     13532     13528     13533
     13528     13534     13530     13535     13530     13536     13537     13538
     13539     13540     13544     13545     13546     13547     13539     13537
     13537     13544     13537     13546     13539     13541     13539     13542
     13539     13543     13546     13548     13544     13549     13544     13550
     13546     13551     13546     13552     13553     13554     13555     13556
     13560     13561     13562     13563     13555     13553     13553     13560
     13553     13562     13555     13557     13555     13558     13555     13559
     13562     13564     13560     13565     13560     13566     13562     13567
     13562     13568     13569     13570     13571     13572     13576     13577
     13578     13579     13571     13569     13569     13576     13569     13578
     13571     13573     13571     13574     13571     13575     13578     13580
     13576     13581     13576     13582     13578     13583     13578     13584
     13585     13586     13587     13588     13592     13593     13594     13595
     13587     13585     13585     13592     13585     13594     13587     13589
     13587     13590     13587     13591     13594     13596     13592     13597
     13592     13598     13594     13599     13594     13600     13601     13602
     13603     13604     13608     13609     13610     13611     13603     13601
     13601     13608     13601     13610     13603     13605     13603     13606
     13603     13607     13610     13612     13608     13613     13608     13614
     13610     13615     13610     13616     13617     13618     13619     13620
     13624     13625     13626     13627     13619     13617     13617     13624
     13617     13626     13619     13621     13619     13622     13619     13623
     13626     13628     13624     13629     13624     13630     13626     13631
     13626     13632     13633     13634     13635     13636     13640     13641
     13642     13643     13635     13633     13633     13640     13633     13642
     13635     13637     13635     13638     13635     13639     13642     13644
     13640     13645     13640     13646     13642     13647     13642     13648
     13649     13650     13651     13652     13656     13657     13658     13659
     13651     13649     13649     13656     13649     13658     13651     13653
     13651     13654     13651     13655     13658     13660     13656     13661
     13656     13662     13658     13663     13658     13664     13665     13666
     13667     13668     13672     13673     13674     13675     13667     13665
     13665     13672     13665     13674     13667     13669     13667     13670
     13667     13671     13674     13676     13672     13677     13672     13678
     13674     13679     13674     13680     13681     13682     13683     13684
     13688     13689     13690     13691     13683     13681     13681     13688
     13681     13690     13683     13685     13683     13686     13683     13687
     13690     13692     13688     13693     13688     13694     13690     13695
     13690     13696     13697     13698     13699     13700     13704     13705
     13706     13707     13699     13697     13697     13704     13697     13706
     13699     13701     13699     13702     13699     13703     13706     13708
     13704     13709     13704     13710     13706     13711     13706     13712
     13713     13714     13715     13716     13720     13721     13722     13723
     13715     13713     13713     13720     13713     13722     13715     13717
     13715     13718     13715     13719     13722     13724     13720     13725
     13720     13726     13722     13727     13722     13728     13729     13730
     13731     13732     13736     13737     13738     13739     13731     13729
     13729     13736     13729     13738     13731     13733     13731     13734
     13731     13735     13738     13740     13736     13741     13736     13742
     13738     13743     13738     13744     13745     13746     13747     13748
     13752     13753     13754     13755     13747     13745     13745     13752
     13745     13754     13747     13749     13747     13750     13747     13751
     13754     13756     13752     13757     13752     13758     13754     13759
     13754     13760     13761     13762     13763     13764     13768     13769
     13770     13771     13763     13761     13761     13768     13761     13770
     13763     13765     13763     13766     13763     13767     13770     13772
     13768     13773     13768     13774     13770     13775     13770     13776
     13777     13778     13779     13780     13784     13785     13786     13787
     13779     13777     13777     13784     13777     13786     13779     13781
     13779     13782     13779     13783     13786     13788     13784     13789
     13784     13790     13786     13791     13786     13792     13793     13794
     13795     13796     13800     13801     13802     13803     13795     13793
     13793     13800     13793     13802     13795     13797     13795     13798
     13795     13799     13802     13804     13800     13805     13800     13806
     13802     13807     13802     13808     13809     13810     13811     13812
     13816     13817     13818     13819     13811     13809     13809     13816
     13809     13818     13811     13813     13811     13814     13811     13815
     13818     13820     13816     13821     13816     13822     13818     13823
     13818     13824     13825     13826     13827     13828     13832     13833
     13834     13835     13827     13825     13825     13832     13825     13834
     13827     13829     13827     13830     13827     13831     13834     13836
     13832     13837     13832     13838     13834     13839     13834     13840
     13841     13842     13843     13844     13848     13849     13850     13851
     13843     13841     13841     13848     13841     13850     13843     13845
     13843     13846     13843     13847     13850     13852     13848     13853
     13848     13854     13850     13855     13850     13856     13857     13858
     13859     13860     13864     13865     13866     13867     13859     13857
     13857     13864     13857     13866     13859     13861     13859     13862
     13859     13863     13866     13868     13864     13869     13864     13870
     13866     13871     13866     13872     13873     13874     13875     13876
     13880     13881     13882     13883     13875     13873     13873     13880
     13873     13882     13875     13877     13875     13878     13875     13879
     13882     13884     13880     13885     13880     13886     13882     13887
     13882     13888     13889     13890     13891     13892     13896     13897
     13898     13899     13891     13889     13889     13896     13889     13898
     13891     13893     13891     13894     13891     13895     13898     13900
     13896     13901     13896     13902     13898     13903     13898     13904
     13905     13906     13907     13908     13912     13913     13914     13915
     13907     13905     13905     13912     13905     13914     13907     13909
     13907     13910     13907     13911     13914     13916     13912     13917
     13912     13918     13914     13919     13914     13920     13921     13922
     13923     13924     13928     13929     13930     13931     13923     13921
     13921     13928     13921     13930     13923     13925     13923     13926
     13923     13927     13930     13932     13928     13933     13928     13934
     13930     13935     13930     13936     13937     13938     13939     13940
     13944     13945     13946     13947     13939     13937     13937     13944
     13937     13946     13939     13941     13939     13942     13939     13943
     13946     13948     13944     13949     13944     13950     13946     13951
     13946     13952     13953     13954     13955     13956     13960     13961
     13962     13963     13955     13953     13953     13960     13953     13962
     13955     13957     13955     13958     13955     13959     13962     13964
     13960     13965     13960     13966     13962     13967     13962     13968
     13969     13970     13971     13972     13976     13977     13978     13979
     13971     13969     13969     13976     13969     13978     13971     13973
     13971     13974     13971     13975     13978     13980     13976     13981
     13976     13982     13978     13983     13978     13984     13985     13986
     13987     13988     13992     13993     13994     13995     13987     13985
     13985     13992     13985     13994     13987     13989     13987     13990
     13987     13991     13994     13996     13992     13997     13992     13998
     13994     13999     13994     14000     14001     14002     14003     14004
     14008     14009     14010     14011     14003     14001     14001     14008
     14001     14010     14003     14005     14003     14006     14003     14007
     14010     14012     14008     14013     14008     14014     14010     14015
     14010     14016     14017     14018     14019     14020     14024     14025
     14026     14027     14019     14017     14017     14024     14017     14026
     14019     14021     14019     14022     14019     14023     14026     14028
     14024     14029     14024     14030     14026     14031     14026     14032
     14033     14034     14035     14036     14040     14041     14042     14043
     14035     14033     14033     14040     14033     14042     14035     14037
     14035     14038     14035     14039     14042     14044     14040     14045
     14040     14046     14042     14047     14042     14048     14049     14050
     14051     14052     14056     14057     14058     14059     14051     14049
     14049     14056     14049     14058     14051     14053     14051     14054
     14051     14055     14058     14060     14056     14061     14056     14062
     14058     14063     14058     14064     14065     14066     14067     14068
     14072     14073     14074     14075     14067     14065     14065     14072
     14065     14074     14067     14069     14067     14070     14067     14071
     14074     14076     14072     14077     14072     14078     14074     14079
     14074     14080     14081     14082     14083     14084     14088     14089
     14090     14091     14083     14081     14081     14088     14081     14090
     14083     14085     14083     14086     14083     14087     14090     14092
     14088     14093     14088     14094     14090     14095     14090     14096
     14097     14098     14099     14100     14104     14105     14106     14107
     14099     14097     14097     14104     14097     14106     14099     14101
     14099     14102     14099     14103     14106     14108     14104     14109
     14104     14110     14106     14111     14106     14112     14113     14114
     14115     14116     14120     14121     14122     14123     14115     14113
     14113     14120     14113     14122     14115     14117     14115     14118
     14115     14119     14122     14124     14120     14125     14120     14126
     14122     14127     14122     14128     14129     14130     14131     14132
     14136     14137     14138     14139     14131     14129     14129     14136
     14129     14138     14131     14133     14131     14134     14131     14135
     14138     14140     14136     14141     14136     14142     14138     14143
     14138     14144     14145     14146     14147     14148     14152     14153
     14154     14155     14147     14145     14145     14152     14145     14154
     14147     14149     14147     14150     14147     14151     14154     14156
     14152     14157     14152     14158     14154     14159     14154     14160
     14161     14162     14163     14164     14168     14169     14170     14171
     14163     14161     14161     14168     14161     14170     14163     14165
     14163     14166     14163     14167     14170     14172     14168     14173
     14168     14174     14170     14175     14170     14176     14177     14178
     14179     14180     14184     14185     14186     14187     14179     14177
     14177     14184     14177     14186     14179     14181     14179     14182
     14179     14183     14186     14188     14184     14189     14184     14190
     14186     14191     14186     14192     14193     14194     14195     14196
     14200     14201     14202     14203     14195     14193     14193     14200
     14193     14202     14195     14197     14195     14198     14195     14199
     14202     14204     14200     14205     14200     14206     14202     14207
     14202     14208     14209     14210     14211     14212     14216     14217
     14218     14219     14211     14209     14209     14216     14209     14218
     14211     14213     14211     14214     14211     14215     14218     14220
     14216     14221     14216     14222     14218     14223     14218     14224
     14225     14226     14227     14228     14232     14233     14234     14235
     14227     14225     14225     14232     14225     14234     14227     14229
     14227     14230     14227     14231     14234     14236     14232     14237
     14232     14238     14234     14239     14234     14240     14241     14242
     14243     14244     14248     14249     14250     14251     14243     14241
     14241     14248     14241     14250     14243     14245     14243     14246
     14243     14247     14250     14252     14248     14253     14248     14254
     14250     14255     14250     14256     14257     14258     14259     14260
     14264     14265     14266     14267     14259     14257     14257     14264
     14257     14266     14259     14261     14259     14262     14259     14263
     14266     14268     14264     14269     14264     14270     14266     14271
     14266     14272     14273     14274     14275     14276     14280     14281
     14282     14283     14275     14273     14273     14280     14273     14282
     14275     14277     14275     14278     14275     14279     14282     14284
     14280     14285     14280     14286     14282     14287     14282     14288
     14289     14290     14291     14292     14296     14297     14298     14299
     14291     14289     14289     14296     14289     14298     14291     14293
     14291     14294     14291     14295     14298     14300     14296     14301
     14296     14302     14298     14303     14298     14304     14305     14306
     14307     14308     14312     14313     14314     14315     14307     14305
     14305     14312     14305     14314     14307     14309     14307     14310
     14307     14311     14314     14316     14312     14317     14312     14318
     14314     14319     14314     14320     14321     14322     14323     14324
     14328     14329     14330     14331     14323     14321     14321     14328
     14321     14330     14323     14325     14323     14326     14323     14327
     14330     14332     14328     14333     14328     14334     14330     14335
     14330     14336     14337     14338     14339     14340     14344     14345
     14346     14347     14339     14337     14337     14344     14337     14346
     14339     14341     14339     14342     14339     14343     14346     14348
     14344     14349     14344     14350     14346     14351     14346     14352
     14353     14354     14355     14356     14360     14361     14362     14363
     14355     14353     14353     14360     14353     14362     14355     14357
     14355     14358     14355     14359     14362     14364     14360     14365
     14360     14366     14362     14367     14362     14368     14369     14370
     14371     14372     14376     14377     14378     14379     14371     14369
     14369     14376     14369     14378     14371     14373     14371     14374
     14371     14375     14378     14380     14376     14381     14376     14382
     14378     14383     14378     14384     14385     14386     14387     14388
     14392     14393     14394     14395     14387     14385     14385     14392
     14385     14394     14387     14389     14387     14390     14387     14391
     14394     14396     14392     14397     14392     14398     14394     14399
     14394     14400     14401     14402     14403     14404     14408     14409
     14410     14411     14403     14401     14401     14408     14401     14410
     14403     14405     14403     14406     14403     14407     14410     14412
     14408     14413     14408     14414     14410     14415     14410     14416
     14417     14418     14419     14420     14424     14425     14426     14427
     14419     14417     14417     14424     14417     14426     14419     14421
     14419     14422     14419     14423     14426     14428     14424     14429
     14424     14430     14426     14431     14426     14432     14433     14434
     14435     14436     14440     14441     14442     14443     14435     14433
     14433     14440     14433     14442     14435     14437     14435     14438
     14435     14439     14442     14444     14440     14445     14440     14446
     14442     14447     14442     14448     14449     14450     14451     14452
     14456     14457     14458     14459     14451     14449     14449     14456
     14449     14458     14451     14453     14451     14454     14451     14455
     14458     14460     14456     14461     14456     14462     14458     14463
     14458     14464     14465     14466     14467     14468     14472     14473
     14474     14475     14467     14465     14465     14472     14465     14474
     14467     14469     14467     14470     14467     14471     14474     14476
     14472     14477     14472     14478     14474     14479     14474     14480
     14481     14482     14483     14484     14488     14489     14490     14491
     14483     14481     14481     14488     14481     14490     14483     14485
     14483     14486     14483     14487     14490     14492     14488     14493
     14488     14494     14490     14495     14490     14496     14497     14498
     14499     14500     14504     14505     14506     14507     14499     14497
     14497     14504     14497     14506     14499     14501     14499     14502
     14499     14503     14506     14508     14504     14509     14504     14510
     14506     14511     14506     14512     14513     14514     14515     14516
     14520     14521     14522     14523     14515     14513     14513     14520
     14513     14522     14515     14517     14515     14518     14515     14519
     14522     14524     14520     14525     14520     14526     14522     14527
     14522     14528     14529     14530     14531     14532     14536     14537
     14538     14539     14531     14529     14529     14536     14529     14538
     14531     14533     14531     14534     14531     14535     14538     14540
     14536     14541     14536     14542     14538     14543     14538     14544
     14545     14546     14547     14548     14552     14553     14554     14555
     14547     14545     14545     14552     14545     14554     14547     14549
     14547     14550     14547     14551     14554     14556     14552     14557
     14552     14558     14554     14559     14554     14560     14561     14562
     14563     14564     14568     14569     14570     14571     14563     14561
     14561     14568     14561     14570     14563     14565     14563     14566
     14563     14567     14570     14572     14568     14573     14568     14574
     14570     14575     14570     14576     14577     14578     14579     14580
     14584     14585     14586     14587     14579     14577     14577     14584
     14577     14586     14579     14581     14579     14582     14579     14583
     14586     14588     14584     14589     14584     14590     14586     14591
     14586     14592     14593     14594     14595     14596     14600     14601
     14602     14603     14595     14593     14593     14600     14593     14602
     14595     14597     14595     14598     14595     14599     14602     14604
     14600     14605     14600     14606     14602     14607     14602     14608
     14609     14610     14611     14612     14616     14617     14618     14619
     14611     14609     14609     14616     14609     14618     14611     14613
     14611     14614     14611     14615     14618     14620     14616     14621
     14616     14622     14618     14623     14618     14624     14625     14626
     14627     14628     14632     14633     14634     14635     14627     14625
     14625     14632     14625     14634     14627     14629     14627     14630
     14627     14631     14634     14636     14632     14637     14632     14638
     14634     14639     14634     14640     14641     14642     14643     14644
     14648     14649     14650     14651     14643     14641     14641     14648
     14641     14650     14643     14645     14643     14646     14643     14647
     14650     14652     14648     14653     14648     14654     14650     14655
     14650     14656     14657     14658     14659     14660     14664     14665
     14666     14667     14659     14657     14657     14664     14657     14666
     14659     14661     14659     14662     14659     14663     14666     14668
     14664     14669     14664     14670     14666     14671     14666     14672
     14673     14674     14675     14676     14680     14681     14682     14683
     14675     14673     14673     14680     14673     14682     14675     14677
     14675     14678     14675     14679     14682     14684     14680     14685
     14680     14686     14682     14687     14682     14688     14689     14690
     14691     14692     14696     14697     14698     14699     14691     14689
     14689     14696     14689     14698     14691     14693     14691     14694
     14691     14695     14698     14700     14696     14701     14696     14702
     14698     14703     14698     14704     14705     14706     14707     14708
     14712     14713     14714     14715     14707     14705     14705     14712
     14705     14714     14707     14709     14707     14710     14707     14711
     14714     14716     14712     14717     14712     14718     14714     14719
     14714     14720     14721     14722     14723     14724     14728     14729
     14730     14731     14723     14721     14721     14728     14721     14730
     14723     14725     14723     14726     14723     14727     14730     14732
     14728     14733     14728     14734     14730     14735     14730     14736
     14737     14738     14739     14740     14744     14745     14746     14747
     14739     14737     14737     14744     14737     14746     14739     14741
     14739     14742     14739     14743     14746     14748     14744     14749
     14744     14750     14746     14751     14746     14752     14753     14754
     14755     14756     14760     14761     14762     14763     14755     14753
     14753     14760     14753     14762     14755     14757     14755     14758
     14755     14759     14762     14764     14760     14765     14760     14766
     14762     14767     14762     14768     14769     14770     14771     14772
     14776     14777     14778     14779     14771     14769     14769     14776
     14769     14778     14771     14773     14771     14774     14771     14775
     14778     14780     14776     14781     14776     14782     14778     14783
     14778     14784     14785     14786     14787     14788     14792     14793
     14794     14795     14787     14785     14785     14792     14785     14794
     14787     14789     14787     14790     14787     14791     14794     14796
     14792     14797     14792     14798     14794     14799     14794     14800
     14801     14802     14804     14805     14806     14807     14808     14809
     14810     14811     14812     14813     14803     14801     14801     14810
     14801     14812     14803     14804     14803     14806     14803     14808
     14810     14814     14810     14815     14812     14816     14812     14817
     14818     14819     14821     14822     14823     14824     14825     14826
     14827     14828     14829     14830     14820     14818     14818     14827
     14818     14829     14820     14821     14820     14823     14820     14825
     14827     14831     14827     14832     14829     14833     14829     14834
     14835     14836     14838     14839     14840     14841     14842     14843
     14844     14845     14846     14847     14837     14835     14835     14844
     14835     14846     14837     14838     14837     14840     14837     14842
     14844     14848     14844     14849     14846     14850     14846     14851
     14852     14853     14855     14856     14857     14858     14859     14860
     14861     14862     14863     14864     14854     14852     14852     14861
     14852     14863     14854     14855     14854     14857     14854     14859
     14861     14865     14861     14866     14863     14867     14863     14868
     14869     14870     14872     14873     14874     14875     14876     14877
     14878     14879     14880     14881     14871     14869     14869     14878
     14869     14880     14871     14872     14871     14874     14871     14876
     14878     14882     14878     14883     14880     14884     14880     14885
     14886     14887     14889     14890     14891     14892     14893     14894
     14895     14896     14897     14898     14888     14886     14886     14895
     14886     14897     14888     14889     14888     14891     14888     14893
     14895     14899     14895     14900     14897     14901     14897     14902
     14903     14904     14906     14907     14908     14909     14910     14911
     14912     14913     14914     14915     14905     14903     14903     14912
     14903     14914     14905     14906     14905     14908     14905     14910
     14912     14916     14912     14917     14914     14918     14914     14919
     14920     14921     14923     14924     14925     14926     14927     14928
     14929     14930     14931     14932     14922     14920     14920     14929
     14920     14931     14922     14923     14922     14925     14922     14927
     14929     14933     14929     14934     14931     14935     14931     14936
     14937     14938     14940     14941     14942     14943     14944     14945
     14946     14947     14948     14949     14939     14937     14937     14946
     14937     14948     14939     14940     14939     14942     14939     14944
     14946     14950     14946     14951     14948     14952     14948     14953
     14954     14955     14957     14958     14959     14960     14961     14962
     14963     14964     14965     14966     14956     14954     14954     14963
     14954     14965     14956     14957     14956     14959     14956     14961
     14963     14967     14963     14968     14965     14969     14965     14970
     14971     14972     14974     14975     14976     14977     14978     14979
     14980     14981     14982     14983     14973     14971     14971     14980
     14971     14982     14973     14974     14973     14976     14973     14978
     14980     14984     14980     14985     14982     14986     14982     14987
     14988     14989     14991     14992     14993     14994     14995     14996
     14997     14998     14999     15000     14990     14988     14988     14997
     14988     14999     14990     14991     14990     14993     14990     14995
     14997     15001     14997     15002     14999     15003     14999     15004
     15005     15006     15008     15009     15010     15011     15012     15013
     15014     15015     15016     15017     15007     15005     15005     15014
     15005     15016     15007     15008     15007     15010     15007     15012
     15014     15018     15014     15019     15016     15020     15016     15021
     15022     15023     15025     15026     15027     15028     15029     15030
     15031     15032     15033     15034     15024     15022     15022     15031
     15022     15033     15024     15025     15024     15027     15024     15029
     15031     15035     15031     15036     15033     15037     15033     15038
     15039     15040     15042     15043     15044     15045     15046     15047
     15048     15049     15050     15051     15041     15039     15039     15048
     15039     15050     15041     15042     15041     15044     15041     15046
     15048     15052     15048     15053     15050     15054     15050     15055
     15056     15057     15059     15060     15061     15062     15063     15064
     15065     15066     15067     15068     15058     15056     15056     15065
     15056     15067     15058     15059     15058     15061     15058     15063
     15065     15069     15065     15070     15067     15071     15067     15072
     15073     15074     15076     15077     15078     15079     15080     15081
     15082     15083     15084     15085     15075     15073     15073     15082
     15073     15084     15075     15076     15075     15078     15075     15080
     15082     15086     15082     15087     15084     15088     15084     15089
     15090     15091     15093     15094     15095     15096     15097     15098
     15099     15100     15101     15102     15092     15090     15090     15099
     15090     15101     15092     15093     15092     15095     15092     15097
     15099     15103     15099     15104     15101     15105     15101     15106
     15107     15108     15110     15111     15112     15113     15114     15115
     15116     15117     15118     15119     15109     15107     15107     15116
     15107     15118     15109     15110     15109     15112     15109     15114
     15116     15120     15116     15121     15118     15122     15118     15123
     15124     15125     15127     15128     15129     15130     15131     15132
     15133     15134     15135     15136     15126     15124     15124     15133
     15124     15135     15126     15127     15126     15129     15126     15131
     15133     15137     15133     15138     15135     15139     15135     15140
     15141     15142     15144     15145     15146     15147     15148     15149
     15150     15151     15152     15153     15143     15141     15141     15150
     15141     15152     15143     15144     15143     15146     15143     15148
     15150     15154     15150     15155     15152     15156     15152     15157
     15158     15159     15161     15162     15163     15164     15165     15166
     15167     15168     15169     15170     15160     15158     15158     15167
     15158     15169     15160     15161     15160     15163     15160     15165
     15167     15171     15167     15172     15169     15173     15169     15174
     15175     15176     15178     15179     15180     15181     15182     15183
     15184     15185     15186     15187     15177     15175     15175     15184
     15175     15186     15177     15178     15177     15180     15177     15182
     15184     15188     15184     15189     15186     15190     15186     15191
     15192     15193     15195     15196     15197     15198     15199     15200
     15201     15202     15203     15204     15194     15192     15192     15201
     15192     15203     15194     15195     15194     15197     15194     15199
     15201     15205     15201     15206     15203     15207     15203     15208
     15209     15210     15212     15213     15214     15215     15216     15217
     15218     15219     15220     15221     15211     15209     15209     15218
     15209     15220     15211     15212     15211     15214     15211     15216
     15218     15222     15218     15223     15220     15224     15220     15225
     15226     15227     15229     15230     15231     15232     15233     15234
     15235     15236     15237     15238     15228     15226     15226     15235
     15226     15237     15228     15229     15228     15231     15228     15233
     15235     15239     15235     15240     15237     15241     15237     15242
     15243     15244     15246     15247     15248     15249     15250     15251
     15252     15253     15254     15255     15245     15243     15243     15252
     15243     15254     15245     15246     15245     15248     15245     15250
     15252     15256     15252     15257     15254     15258     15254     15259
     15260     15261     15263     15264     15265     15266     15267     15268
     15269     15270     15271     15272     15262     15260     15260     15269
     15260     15271     15262     15263     15262     15265     15262     15267
     15269     15273     15269     15274     15271     15275     15271     15276
     15277     15278     15280     15281     15282     15283     15284     15285
     15286     15287     15288     15289     15279     15277     15277     15286
     15277     15288     15279     15280     15279     15282     15279     15284
     15286     15290     15286     15291     15288     15292     15288     15293
     15294     15295     15297     15298     15299     15300     15301     15302
     15303     15304     15305     15306     15296     15294     15294     15303
     15294     15305     15296     15297     15296     15299     15296     15301
     15303     15307     15303     15308     15305     15309     15305     15310
     15311     15312     15314     15315     15316     15317     15318     15319
     15320     15321     15322     15323     15313     15311     15311     15320
     15311     15322     15313     15314     15313     15316     15313     15318
     15320     15324     15320     15325     15322     15326     15322     15327
     15328     15329     15331     15332     15333     15334     15335     15336
     15337     15338     15339     15340     15330     15328     15328     15337
     15328     15339     15330     15331     15330     15333     15330     15335
     15337     15341     15337     15342     15339     15343     15339     15344
     15345     15346     15348     15349     15350     15351     15352     15353
     15354     15355     15356     15357     15347     15345     15345     15354
     15345     15356     15347     15348     15347     15350     15347     15352
     15354     15358     15354     15359     15356     15360     15356     15361
     15362     15363     15365     15366     15367     15368     15369     15370
     15371     15372     15373     15374     15364     15362     15362     15371
     15362     15373     15364     15365     15364     15367     15364     15369
     15371     15375     15371     15376     15373     15377     15373     15378
     15379     15380     15382     15383     15384     15385     15386     15387
     15388     15389     15390     15391     15381     15379     15379     15388
     15379     15390     15381     15382     15381     15384     15381     15386
     15388     15392     15388     15393     15390     15394     15390     15395
     15396     15397     15399     15400     15401     15402     15403     15404
     15405     15406     15407     15408     15398     15396     15396     15405
     15396     15407     15398     15399     15398     15401     15398     15403
     15405     15409     15405     15410     15407     15411     15407     15412
     15413     15414     15416     15417     15418     15419     15420     15421
     15422     15423     15424     15425     15415     15413     15413     15422
     15413     15424     15415     15416     15415     15418     15415     15420
     15422     15426     15422     15427     15424     15428     15424     15429
     15430     15431     15433     15434     15435     15436     15437     15438
     15439     15440     15441     15442     15432     15430     15430     15439
     15430     15441     15432     15433     15432     15435     15432     15437
     15439     15443     15439     15444     15441     15445     15441     15446
     15447     15448     15450     15451     15452     15453     15454     15455
     15456     15457     15458     15459     15449     15447     15447     15456
     15447     15458     15449     15450     15449     15452     15449     15454
     15456     15460     15456     15461     15458     15462     15458     15463
     15464     15465     15467     15468     15469     15470     15471     15472
     15473     15474     15475     15476     15466     15464     15464     15473
     15464     15475     15466     15467     15466     15469     15466     15471
     15473     15477     15473     15478     15475     15479     15475     15480
     15481     15482     15484     15485     15486     15487     15488     15489
     15490     15491     15492     15493     15483     15481     15481     15490
     15481     15492     15483     15484     15483     15486     15483     15488
     15490     15494     15490     15495     15492     15496     15492     15497
     15498     15499     15501     15502     15503     15504     15505     15506
     15507     15508     15509     15510     15500     15498     15498     15507
     15498     15509     15500     15501     15500     15503     15500     15505
     15507     15511     15507     15512     15509     15513     15509     15514
     15515     15516     15518     15519     15520     15521     15522     15523
     15524     15525     15526     15527     15517     15515     15515     15524
     15515     15526     15517     15518     15517     15520     15517     15522
     15524     15528     15524     15529     15526     15530     15526     15531
     15532     15533     15535     15536     15537     15538     15539     15540
     15541     15542     15543     15544     15534     15532     15532     15541
     15532     15543     15534     15535     15534     15537     15534     15539
     15541     15545     15541     15546     15543     15547     15543     15548
     15549     15550     15552     15553     15554     15555     15556     15557
     15558     15559     15560     15561     15551     15549     15549     15558
     15549     15560     15551     15552     15551     15554     15551     15556
     15558     15562     15558     15563     15560     15564     15560     15565
     15566     15567     15569     15570     15571     15572     15573     15574
     15575     15576     15577     15578     15568     15566     15566     15575
     15566     15577     15568     15569     15568     15571     15568     15573
     15575     15579     15575     15580     15577     15581     15577     15582
     15583     15584     15586     15587     15588     15589     15590     15591
     15592     15593     15594     15595     15585     15583     15583     15592
     15583     15594     15585     15586     15585     15588     15585     15590
     15592     15596     15592     15597     15594     15598     15594     15599
     15600     15601     15603     15604     15605     15606     15607     15608
     15609     15610     15611     15612     15602     15600     15600     15609
     15600     15611     15602     15603     15602     15605     15602     15607
     15609     15613     15609     15614     15611     15615     15611     15616
     15617     15618     15620     15621     15622     15623     15624     15625
     15626     15627     15628     15629     15619     15617     15617     15626
     15617     15628     15619     15620     15619     15622     15619     15624
     15626     15630     15626     15631     15628     15632     15628     15633
     15634     15635     15637     15638     15639     15640     15641     15642
     15643     15644     15645     15646     15636     15634     15634     15643
     15634     15645     15636     15637     15636     15639     15636     15641
     15643     15647     15643     15648     15645     15649     15645     15650
     15651     15652     15654     15655     15656     15657     15658     15659
     15660     15661     15662     15663     15653     15651     15651     15660
     15651     15662     15653     15654     15653     15656     15653     15658
     15660     15664     15660     15665     15662     15666     15662     15667
     15668     15669     15671     15672     15673     15674     15675     15676
     15677     15678     15679     15680     15670     15668     15668     15677
     15668     15679     15670     15671     15670     15673     15670     15675
     15677     15681     15677     15682     15679     15683     15679     15684
     15685     15686     15688     15689     15690     15691     15692     15693
     15694     15695     15696     15697     15687     15685     15685     15694
     15685     15696     15687     15688     15687     15690     15687     15692
     15694     15698     15694     15699     15696     15700     15696     15701
     15702     15703     15705     15706     15707     15708     15709     15710
     15711     15712     15713     15714     15704     15702     15702     15711
     15702     15713     15704     15705     15704     15707     15704     15709
     15711     15715     15711     15716     15713     15717     15713     15718
     15719     15720     15722     15723     15724     15725     15726     15727
     15728     15729     15730     15731     15721     15719     15719     15728
     15719     15730     15721     15722     15721     15724     15721     15726
     15728     15732     15728     15733     15730     15734     15730     15735
     15736     15737     15739     15740     15741     15742     15743     15744
     15745     15746     15747     15748     15738     15736     15736     15745
     15736     15747     15738     15739     15738     15741     15738     15743
     15745     15749     15745     15750     15747     15751     15747     15752
     15753     15754     15756     15757     15758     15759     15760     15761
     15762     15763     15764     15765     15755     15753     15753     15762
     15753     15764     15755     15756     15755     15758     15755     15760
     15762     15766     15762     15767     15764     15768     15764     15769
     15770     15771     15773     15774     15775     15776     15777     15778
     15779     15780     15781     15782     15772     15770     15770     15779
     15770     15781     15772     15773     15772     15775     15772     15777
     15779     15783     15779     15784     15781     15785     15781     15786
     15787     15788     15790     15791     15792     15793     15794     15795
     15796     15797     15798     15799     15789     15787     15787     15796
     15787     15798     15789     15790     15789     15792     15789     15794
     15796     15800     15796     15801     15798     15802     15798     15803
     15804     15805     15807     15808     15809     15810     15811     15812
     15813     15814     15815     15816     15806     15804     15804     15813
     15804     15815     15806     15807     15806     15809     15806     15811
     15813     15817     15813     15818     15815     15819     15815     15820
     15821     15822     15824     15825     15826     15827     15828     15829
     15830     15831     15832     15833     15823     15821     15821     15830
     15821     15832     15823     15824     15823     15826     15823     15828
     15830     15834     15830     15835     15832     15836     15832     15837
     15838     15839     15841     15842     15843     15844     15845     15846
     15847     15848     15849     15850     15840     15838     15838     15847
     15838     15849     15840     15841     15840     15843     15840     15845
     15847     15851     15847     15852     15849     15853     15849     15854
     15855     15856     15858     15859     15860     15861     15862     15863
     15864     15865     15866     15867     15857     15855     15855     15864
     15855     15866     15857     15858     15857     15860     15857     15862
     15864     15868     15864     15869     15866     15870     15866     15871
     15872     15873     15875     15876     15877     15878     15879     15880
     15881     15882     15883     15884     15874     15872     15872     15881
     15872     15883     15874     15875     15874     15877     15874     15879
     15881     15885     15881     15886     15883     15887     15883     15888
     15889     15890     15892     15893     15894     15895     15896     15897
     15898     15899     15900     15901     15891     15889     15889     15898
     15889     15900     15891     15892     15891     15894     15891     15896
     15898     15902     15898     15903     15900     15904     15900     15905
     15906     15907     15909     15910     15911     15912     15913     15914
     15915     15916     15917     15918     15908     15906     15906     15915
     15906     15917     15908     15909     15908     15911     15908     15913
     15915     15919     15915     15920     15917     15921     15917     15922
     15923     15924     15926     15927     15928     15929     15930     15931
     15932     15933     15934     15935     15925     15923     15923     15932
     15923     15934     15925     15926     15925     15928     15925     15930
     15932     15936     15932     15937     15934     15938     15934     15939
     15940     15941     15943     15944     15945     15946     15947     15948
     15949     15950     15951     15952     15942     15940     15940     15949
     15940     15951     15942     15943     15942     15945     15942     15947
     15949     15953     15949     15954     15951     15955     15951     15956
     15957     15958     15960     15961     15962     15963     15964     15965
     15966     15967     15968     15969     15959     15957     15957     15966
     15957     15968     15959     15960     15959     15962     15959     15964
     15966     15970     15966     15971     15968     15972     15968     15973
     15974     15975     15977     15978     15979     15980     15981     15982
     15983     15984     15985     15986     15976     15974     15974     15983
     15974     15985     15976     15977     15976     15979     15976     15981
     15983     15987     15983     15988     15985     15989     15985     15990
     15991     15992     15994     15995     15996     15997     15998     15999
     16000     16001     16002     16003     15993     15991     15991     16000
     15991     16002     15993     15994     15993     15996     15993     15998
     16000     16004     16000     16005     16002     16006     16002     16007
     16008     16009     16011     16012     16013     16014     16015     16016
     16017     16018     16019     16020     16010     16008     16008     16017
     16008     16019     16010     16011     16010     16013     16010     16015
     16017     16021     16017     16022     16019     16023     16019     16024
     16025     16026     16028     16029     16030     16031     16032     16033
     16034     16035     16036     16037     16027     16025     16025     16034
     16025     16036     16027     16028     16027     16030     16027     16032
     16034     16038     16034     16039     16036     16040     16036     16041
     16042     16043     16045     16046     16047     16048     16049     16050
     16051     16052     16053     16054     16044     16042     16042     16051
     16042     16053     16044     16045     16044     16047     16044     16049
     16051     16055     16051     16056     16053     16057     16053     16058
     16059     16060     16062     16063     16064     16065     16066     16067
     16068     16069     16070     16071     16061     16059     16059     16068
     16059     16070     16061     16062     16061     16064     16061     16066
     16068     16072     16068     16073     16070     16074     16070     16075
     16076     16077     16079     16080     16081     16082     16083     16084
     16085     16086     16087     16088     16078     16076     16076     16085
     16076     16087     16078     16079     16078     16081     16078     16083
     16085     16089     16085     16090     16087     16091     16087     16092
     16093     16094     16096     16097     16098     16099     16100     16101
     16102     16103     16104     16105     16095     16093     16093     16102
     16093     16104     16095     16096     16095     16098     16095     16100
     16102     16106     16102     16107     16104     16108     16104     16109
     16110     16111     16113     16114     16115     16116     16117     16118
     16119     16120     16121     16122     16112     16110     16110     16119
     16110     16121     16112     16113     16112     16115     16112     16117
     16119     16123     16119     16124     16121     16125     16121     16126
     16127     16128     16130     16131     16132     16133     16134     16135
     16136     16137     16138     16139     16129     16127     16127     16136
     16127     16138     16129     16130     16129     16132     16129     16134
     16136     16140     16136     16141     16138     16142     16138     16143
     16144     16145     16147     16148     16149     16150     16151     16152
     16153     16154     16155     16156     16146     16144     16144     16153
     16144     16155     16146     16147     16146     16149     16146     16151
     16153     16157     16153     16158     16155     16159     16155     16160
     16161     16162     16164     16165     16166     16167     16168     16169
     16170     16171     16172     16173     16163     16161     16161     16170
     16161     16172     16163     16164     16163     16166     16163     16168
     16170     16174     16170     16175     16172     16176     16172     16177
     16178     16179     16181     16182     16183     16184     16185     16186
     16187     16188     16189     16190     16180     16178     16178     16187
     16178     16189     16180     16181     16180     16183     16180     16185
     16187     16191     16187     16192     16189     16193     16189     16194
     16195     16196     16198     16199     16200     16201     16202     16203
     16204     16205     16206     16207     16197     16195     16195     16204
     16195     16206     16197     16198     16197     16200     16197     16202
     16204     16208     16204     16209     16206     16210     16206     16211
     16212     16213     16215     16216     16217     16218     16219     16220
     16221     16222     16223     16224     16214     16212     16212     16221
     16212     16223     16214     16215     16214     16217     16214     16219
     16221     16225     16221     16226     16223     16227     16223     16228
     16229     16230     16232     16233     16234     16235     16236     16237
     16238     16239     16240     16241     16231     16229     16229     16238
     16229     16240     16231     16232     16231     16234     16231     16236
     16238     16242     16238     16243     16240     16244     16240     16245
     16246     16247     16249     16250     16251     16252     16253     16254
     16255     16256     16257     16258     16248     16246     16246     16255
     16246     16257     16248     16249     16248     16251     16248     16253
     16255     16259     16255     16260     16257     16261     16257     16262
     16263     16264     16266     16267     16268     16269     16270     16271
     16272     16273     16274     16275     16265     16263     16263     16272
     16263     16274     16265     16266     16265     16268     16265     16270
     16272     16276     16272     16277     16274     16278     16274     16279
     16280     16281     16283     16284     16285     16286     16287     16288
     16289     16290     16291     16292     16282     16280     16280     16289
     16280     16291     16282     16283     16282     16285     16282     16287
     16289     16293     16289     16294     16291     16295     16291     16296
     16297     16298     16300     16301     16302     16303     16304     16305
     16306     16307     16308     16309     16299     16297     16297     16306
     16297     16308     16299     16300     16299     16302     16299     16304
     16306     16310     16306     16311     16308     16312     16308     16313
     16314     16315     16317     16318     16319     16320     16321     16322
     16323     16324     16325     16326     16316     16314     16314     16323
     16314     16325     16316     16317     16316     16319     16316     16321
     16323     16327     16323     16328     16325     16329     16325     16330
     16331     16332     16334     16335     16336     16337     16338     16339
     16340     16341     16342     16343     16333     16331     16331     16340
     16331     16342     16333     16334     16333     16336     16333     16338
     16340     16344     16340     16345     16342     16346     16342     16347
     16348     16349     16351     16352     16353     16354     16355     16356
     16357     16358     16359     16360     16350     16348     16348     16357
     16348     16359     16350     16351     16350     16353     16350     16355
     16357     16361     16357     16362     16359     16363     16359     16364
     16365     16366     16368     16369     16370     16371     16372     16373
     16374     16375     16376     16377     16367     16365     16365     16374
     16365     16376     16367     16368     16367     16370     16367     16372
     16374     16378     16374     16379     16376     16380     16376     16381
     16382     16383     16385     16386     16387     16388     16389     16390
     16391     16392     16393     16394     16384     16382     16382     16391
     16382     16393     16384     16385     16384     16387     16384     16389
     16391     16395     16391     16396     16393     16397     16393     16398
     16399     16400     16402     16403     16404     16405     16406     16407
     16408     16409     16410     16411     16401     16399     16399     16408
     16399     16410     16401     16402     16401     16404     16401     16406
     16408     16412     16408     16413     16410     16414     16410     16415
     16416     16417     16419     16420     16421     16422     16423     16424
     16425     16426     16427     16428     16418     16416     16416     16425
     16416     16427     16418     16419     16418     16421     16418     16423
     16425     16429     16425     16430     16427     16431     16427     16432
     16433     16434     16436     16437     16438     16439     16440     16441
     16442     16443     16444     16445     16435     16433     16433     16442
     16433     16444     16435     16436     16435     16438     16435     16440
     16442     16446     16442     16447     16444     16448     16444     16449
     16450     16451     16453     16454     16455     16456     16457     16458
     16459     16460     16461     16462     16452     16450     16450     16459
     16450     16461     16452     16453     16452     16455     16452     16457
     16459     16463     16459     16464     16461     16465     16461     16466
     16467     16468     16470     16471     16472     16473     16474     16475
     16476     16477     16478     16479     16469     16467     16467     16476
     16467     16478     16469     16470     16469     16472     16469     16474
     16476     16480     16476     16481     16478     16482     16478     16483
     16484     16485     16487     16488     16489     16490     16491     16492
     16493     16494     16495     16496     16486     16484     16484     16493
     16484     16495     16486     16487     16486     16489     16486     16491
     16493     16497     16493     16498     16495     16499     16495     16500
     16501     16502     16504     16505     16506     16507     16508     16509
     16510     16511     16512     16513     16503     16501     16501     16510
     16501     16512     16503     16504     16503     16506     16503     16508
     16510     16514     16510     16515     16512     16516     16512     16517
     16518     16519     16521     16522     16523     16524     16525     16526
     16527     16528     16529     16530     16520     16518     16518     16527
     16518     16529     16520     16521     16520     16523     16520     16525
     16527     16531     16527     16532     16529     16533     16529     16534
     16535     16536     16538     16539     16540     16541     16542     16543
     16544     16545     16546     16547     16537     16535     16535     16544
     16535     16546     16537     16538     16537     16540     16537     16542
     16544     16548     16544     16549     16546     16550     16546     16551
     16552     16553     16555     16556     16557     16558     16559     16560
     16561     16562     16563     16564     16554     16552     16552     16561
     16552     16563     16554     16555     16554     16557     16554     16559
     16561     16565     16561     16566     16563     16567     16563     16568
     16569     16570     16572     16573     16574     16575     16576     16577
     16578     16579     16580     16581     16571     16569     16569     16578
     16569     16580     16571     16572     16571     16574     16571     16576
     16578     16582     16578     16583     16580     16584     16580     16585
     16586     16587     16589     16590     16591     16592     16593     16594
     16595     16596     16597     16598     16588     16586     16586     16595
     16586     16597     16588     16589     16588     16591     16588     16593
     16595     16599     16595     16600     16597     16601     16597     16602
     16603     16604     16606     16607     16608     16609     16610     16611
     16612     16613     16614     16615     16605     16603     16603     16612
     16603     16614     16605     16606     16605     16608     16605     16610
     16612     16616     16612     16617     16614     16618     16614     16619
     16620     16621     16623     16624     16625     16626     16627     16628
     16629     16630     16631     16632     16622     16620     16620     16629
     16620     16631     16622     16623     16622     16625     16622     16627
     16629     16633     16629     16634     16631     16635     16631     16636
     16637     16638     16640     16641     16642     16643     16644     16645
     16646     16647     16648     16649     16639     16637     16637     16646
     16637     16648     16639     16640     16639     16642     16639     16644
     16646     16650     16646     16651     16648     16652     16648     16653
     16654     16655     16657     16658     16659     16660     16661     16662
     16663     16664     16665     16666     16656     16654     16654     16663
     16654     16665     16656     16657     16656     16659     16656     16661
     16663     16667     16663     16668     16665     16669     16665     16670
     16671     16672     16674     16675     16676     16677     16678     16679
     16680     16681     16682     16683     16673     16671     16671     16680
     16671     16682     16673     16674     16673     16676     16673     16678
     16680     16684     16680     16685     16682     16686     16682     16687
     16688     16689     16691     16692     16693     16694     16695     16696
     16697     16698     16699     16700     16690     16688     16688     16697
     16688     16699     16690     16691     16690     16693     16690     16695
     16697     16701     16697     16702     16699     16703     16699     16704
     16705     16706     16708     16709     16710     16711     16712     16713
     16714     16715     16716     16717     16707     16705     16705     16714
     16705     16716     16707     16708     16707     16710     16707     16712
     16714     16718     16714     16719     16716     16720     16716     16721
     16722     16723     16725     16726     16727     16728     16729     16730
     16731     16732     16733     16734     16724     16722     16722     16731
     16722     16733     16724     16725     16724     16727     16724     16729
     16731     16735     16731     16736     16733     16737     16733     16738
     16739     16740     16742     16743     16744     16745     16746     16747
     16748     16749     16750     16751     16741     16739     16739     16748
     16739     16750     16741     16742     16741     16744     16741     16746
     16748     16752     16748     16753     16750     16754     16750     16755
     16756     16757     16759     16760     16761     16762     16763     16764
     16765     16766     16767     16768     16758     16756     16756     16765
     16756     16767     16758     16759     16758     16761     16758     16763
     16765     16769     16765     16770     16767     16771     16767     16772
     16773     16774     16776     16777     16778     16779     16780     16781
     16782     16783     16784     16785     16775     16773     16773     16782
     16773     16784     16775     16776     16775     16778     16775     16780
     16782     16786     16782     16787     16784     16788     16784     16789
     16790     16791     16793     16794     16795     16796     16797     16798
     16799     16800     16801     16802     16792     16790     16790     16799
     16790     16801     16792     16793     16792     16795     16792     16797
     16799     16803     16799     16804     16801     16805     16801     16806
     16807     16808     16810     16811     16812     16813     16814     16815
     16816     16817     16818     16819     16809     16807     16807     16816
     16807     16818     16809     16810     16809     16812     16809     16814
     16816     16820     16816     16821     16818     16822     16818     16823
     16824     16825     16827     16828     16829     16830     16831     16832
     16833     16834     16835     16836     16826     16824     16824     16833
     16824     16835     16826     16827     16826     16829     16826     16831
     16833     16837     16833     16838     16835     16839     16835     16840
     16841     16842     16844     16845     16846     16847     16848     16849
     16850     16851     16852     16853     16843     16841     16841     16850
     16841     16852     16843     16844     16843     16846     16843     16848
     16850     16854     16850     16855     16852     16856     16852     16857
     16858     16859     16861     16862     16863     16864     16865     16866
     16867     16868     16869     16870     16860     16858     16858     16867
     16858     16869     16860     16861     16860     16863     16860     16865
     16867     16871     16867     16872     16869     16873     16869     16874
     16875     16876     16878     16879     16880     16881     16882     16883
     16884     16885     16886     16887     16877     16875     16875     16884
     16875     16886     16877     16878     16877     16880     16877     16882
     16884     16888     16884     16889     16886     16890     16886     16891
     16892     16893     16895     16896     16897     16898     16899     16900
     16901     16902     16903     16904     16894     16892     16892     16901
     16892     16903     16894     16895     16894     16897     16894     16899
     16901     16905     16901     16906     16903     16907     16903     16908
     16909     16910     16912     16913     16914     16915     16916     16917
     16918     16919     16920     16921     16911     16909     16909     16918
     16909     16920     16911     16912     16911     16914     16911     16916
     16918     16922     16918     16923     16920     16924     16920     16925
     16926     16927     16929     16930     16931     16932     16933     16934
     16935     16936     16937     16938     16928     16926     16926     16935
     16926     16937     16928     16929     16928     16931     16928     16933
     16935     16939     16935     16940     16937     16941     16937     16942
     16943     16944     16946     16947     16948     16949     16950     16951
     16952     16953     16954     16955     16945     16943     16943     16952
     16943     16954     16945     16946     16945     16948     16945     16950
     16952     16956     16952     16957     16954     16958     16954     16959
     16960     16961     16963     16964     16965     16966     16967     16968
     16969     16970     16971     16972     16962     16960     16960     16969
     16960     16971     16962     16963     16962     16965     16962     16967
     16969     16973     16969     16974     16971     16975     16971     16976
     16977     16978     16980     16981     16982     16983     16984     16985
     16986     16987     16988     16989     16979     16977     16977     16986
     16977     16988     16979     16980     16979     16982     16979     16984
     16986     16990     16986     16991     16988     16992     16988     16993
     16994     16995     16997     16998     16999     17000     17001     17002
     17003     17004     17005     17006     16996     16994     16994     17003
     16994     17005     16996     16997     16996     16999     16996     17001
     17003     17007     17003     17008     17005     17009     17005     17010
     17011     17012     17014     17015     17016     17017     17018     17019
     17020     17021     17022     17023     17013     17011     17011     17020
     17011     17022     17013     17014     17013     17016     17013     17018
     17020     17024     17020     17025     17022     17026     17022     17027
     17028     17029     17031     17032     17033     17034     17035     17036
     17037     17038     17039     17040     17030     17028     17028     17037
     17028     17039     17030     17031     17030     17033     17030     17035
     17037     17041     17037     17042     17039     17043     17039     17044
     17045     17046     17048     17049     17050     17051     17052     17053
     17054     17055     17056     17057     17047     17045     17045     17054
     17045     17056     17047     17048     17047     17050     17047     17052
     17054     17058     17054     17059     17056     17060     17056     17061
     17062     17063     17065     17066     17067     17068     17069     17070
     17071     17072     17073     17074     17064     17062     17062     17071
     17062     17073     17064     17065     17064     17067     17064     17069
     17071     17075     17071     17076     17073     17077     17073     17078
     17079     17080     17082     17083     17084     17085     17086     17087
     17088     17089     17090     17091     17081     17079     17079     17088
     17079     17090     17081     17082     17081     17084     17081     17086
     17088     17092     17088     17093     17090     17094     17090     17095
     17096     17097     17099     17100     17101     17102     17103     17104
     17105     17106     17107     17108     17098     17096     17096     17105
     17096     17107     17098     17099     17098     17101     17098     17103
     17105     17109     17105     17110     17107     17111     17107     17112
     17113     17114     17116     17117     17118     17119     17120     17121
     17122     17123     17124     17125     17115     17113     17113     17122
     17113     17124     17115     17116     17115     17118     17115     17120
     17122     17126     17122     17127     17124     17128     17124     17129
     17130     17131     17133     17134     17135     17136     17137     17138
     17139     17140     17141     17142     17132     17130     17130     17139
     17130     17141     17132     17133     17132     17135     17132     17137
     17139     17143     17139     17144     17141     17145     17141     17146
     17147     17148     17150     17151     17152     17153     17154     17155
     17156     17157     17158     17159     17149     17147     17147     17156
     17147     17158     17149     17150     17149     17152     17149     17154
     17156     17160     17156     17161     17158     17162     17158     17163
     17164     17165     17167     17168     17169     17170     17171     17172
     17173     17174     17175     17176     17166     17164     17164     17173
     17164     17175     17166     17167     17166     17169     17166     17171
     17173     17177     17173     17178     17175     17179     17175     17180
     17181     17182     17184     17185     17186     17187     17188     17189
     17190     17191     17192     17193     17183     17181     17181     17190
     17181     17192     17183     17184     17183     17186     17183     17188
     17190     17194     17190     17195     17192     17196     17192     17197
     17198     17199     17201     17202     17203     17204     17205     17206
     17207     17208     17209     17210     17200     17198     17198     17207
     17198     17209     17200     17201     17200     17203     17200     17205
     17207     17211     17207     17212     17209     17213     17209     17214
     17215     17216     17218     17219     17220     17221     17222     17223
     17224     17225     17226     17227     17217     17215     17215     17224
     17215     17226     17217     17218     17217     17220     17217     17222
     17224     17228     17224     17229     17226     17230     17226     17231
     17232     17233     17235     17236     17237     17238     17239     17240
     17241     17242     17243     17244     17234     17232     17232     17241
     17232     17243     17234     17235     17234     17237     17234     17239
     17241     17245     17241     17246     17243     17247     17243     17248
     17249     17250     17252     17253     17254     17255     17256     17257
     17258     17259     17260     17261     17251     17249     17249     17258
     17249     17260     17251     17252     17251     17254     17251     17256
     17258     17262     17258     17263     17260     17264     17260     17265
     17266     17267     17269     17270     17271     17272     17273     17274
     17275     17276     17277     17278     17268     17266     17266     17275
     17266     17277     17268     17269     17268     17271     17268     17273
     17275     17279     17275     17280     17277     17281     17277     17282
     17283     17284     17286     17287     17288     17289     17290     17291
     17292     17293     17294     17295     17285     17283     17283     17292
     17283     17294     17285     17286     17285     17288     17285     17290
     17292     17296     17292     17297     17294     17298     17294     17299
     17300     17301     17303     17304     17305     17306     17307     17308
     17309     17310     17311     17312     17302     17300     17300     17309
     17300     17311     17302     17303     17302     17305     17302     17307
     17309     17313     17309     17314     17311     17315     17311     17316
     17317     17318     17320     17321     17322     17323     17324     17325
     17326     17327     17328     17329     17319     17317     17317     17326
     17317     17328     17319     17320     17319     17322     17319     17324
     17326     17330     17326     17331     17328     17332     17328     17333
     17334     17335     17337     17338     17339     17340     17341     17342
     17343     17344     17345     17346     17336     17334     17334     17343
     17334     17345     17336     17337     17336     17339     17336     17341
     17343     17347     17343     17348     17345     17349     17345     17350
     17351     17352     17354     17355     17356     17357     17358     17359
     17360     17361     17362     17363     17353     17351     17351     17360
     17351     17362     17353     17354     17353     17356     17353     17358
     17360     17364     17360     17365     17362     17366     17362     17367
     17368     17369     17371     17372     17373     17374     17375     17376
     17377     17378     17379     17380     17370     17368     17368     17377
     17368     17379     17370     17371     17370     17373     17370     17375
     17377     17381     17377     17382     17379     17383     17379     17384
     17385     17386     17388     17389     17390     17391     17392     17393
     17394     17395     17396     17397     17387     17385     17385     17394
     17385     17396     17387     17388     17387     17390     17387     17392
     17394     17398     17394     17399     17396     17400     17396     17401
     17402     17403     17405     17406     17407     17408     17409     17410
     17411     17412     17413     17414     17404     17402     17402     17411
     17402     17413     17404     17405     17404     17407     17404     17409
     17411     17415     17411     17416     17413     17417     17413     17418
     17419     17420     17422     17423     17424     17425     17426     17427
     17428     17429     17430     17431     17421     17419     17419     17428
     17419     17430     17421     17422     17421     17424     17421     17426
     17428     17432     17428     17433     17430     17434     17430     17435
     17436     17437     17439     17440     17441     17442     17443     17444
     17445     17446     17447     17448     17438     17436     17436     17445
     17436     17447     17438     17439     17438     17441     17438     17443
     17445     17449     17445     17450     17447     17451     17447     17452
     17453     17454     17456     17457     17458     17459     17460     17461
     17462     17463     17464     17465     17455     17453     17453     17462
     17453     17464     17455     17456     17455     17458     17455     17460
     17462     17466     17462     17467     17464     17468     17464     17469
     17470     17471     17473     17474     17475     17476     17477     17478
     17479     17480     17481     17482     17472     17470     17470     17479
     17470     17481     17472     17473     17472     17475     17472     17477
     17479     17483     17479     17484     17481     17485     17481     17486
     17487     17488     17490     17491     17492     17493     17494     17495
     17496     17497     17498     17499     17489     17487     17487     17496
     17487     17498     17489     17490     17489     17492     17489     17494
     17496     17500     17496     17501     17498     17502     17498     17503
     17504     17505     17507     17508     17509     17510     17511     17512
     17513     17514     17515     17516     17506     17504     17504     17513
     17504     17515     17506     17507     17506     17509     17506     17511
     17513     17517     17513     17518     17515     17519     17515     17520
     17521     17522     17524     17525     17526     17527     17528     17529
     17530     17531     17532     17533     17523     17521     17521     17530
     17521     17532     17523     17524     17523     17526     17523     17528
     17530     17534     17530     17535     17532     17536     17532     17537
     17538     17539     17541     17542     17543     17544     17545     17546
     17547     17548     17549     17550     17540     17538     17538     17547
     17538     17549     17540     17541     17540     17543     17540     17545
     17547     17551     17547     17552     17549     17553     17549     17554
     17555     17556     17558     17559     17560     17561     17562     17563
     17564     17565     17566     17567     17557     17555     17555     17564
     17555     17566     17557     17558     17557     17560     17557     17562
     17564     17568     17564     17569     17566     17570     17566     17571
     17572     17573     17575     17576     17577     17578     17579     17580
     17581     17582     17583     17584     17574     17572     17572     17581
     17572     17583     17574     17575     17574     17577     17574     17579
     17581     17585     17581     17586     17583     17587     17583     17588
     17589     17590     17592     17593     17594     17595     17596     17597
     17598     17599     17600     17601     17591     17589     17589     17598
     17589     17600     17591     17592     17591     17594     17591     17596
     17598     17602     17598     17603     17600     17604     17600     17605
     17606     17607     17609     17610     17611     17612     17613     17614
     17615     17616     17617     17618     17608     17606     17606     17615
     17606     17617     17608     17609     17608     17611     17608     17613
     17615     17619     17615     17620     17617     17621     17617     17622
     17623     17624     17626     17627     17628     17629     17630     17631
     17632     17633     17634     17635     17625     17623     17623     17632
     17623     17634     17625     17626     17625     17628     17625     17630
     17632     17636     17632     17637     17634     17638     17634     17639
     17640     17641     17643     17644     17645     17646     17647     17648
     17649     17650     17651     17652     17642     17640     17640     17649
     17640     17651     17642     17643     17642     17645     17642     17647
     17649     17653     17649     17654     17651     17655     17651     17656
     17657     17658     17660     17661     17662     17663     17664     17665
     17666     17667     17668     17669     17659     17657     17657     17666
     17657     17668     17659     17660     17659     17662     17659     17664
     17666     17670     17666     17671     17668     17672     17668     17673
     17674     17675     17677     17678     17679     17680     17681     17682
     17683     17684     17685     17686     17676     17674     17674     17683
     17674     17685     17676     17677     17676     17679     17676     17681
     17683     17687     17683     17688     17685     17689     17685     17690
     17691     17692     17694     17695     17696     17697     17698     17699
     17700     17701     17702     17703     17693     17691     17691     17700
     17691     17702     17693     17694     17693     17696     17693     17698
     17700     17704     17700     17705     17702     17706     17702     17707
     17708     17709     17711     17712     17713     17714     17715     17716
     17717     17718     17719     17720     17710     17708     17708     17717
     17708     17719     17710     17711     17710     17713     17710     17715
     17717     17721     17717     17722     17719     17723     17719     17724
     17725     17726     17728     17729     17730     17731     17732     17733
     17734     17735     17736     17737     17727     17725     17725     17734
     17725     17736     17727     17728     17727     17730     17727     17732
     17734     17738     17734     17739     17736     17740     17736     17741
     17742     17743     17745     17746     17747     17748     17749     17750
     17751     17752     17753     17754     17744     17742     17742     17751
     17742     17753     17744     17745     17744     17747     17744     17749
     17751     17755     17751     17756     17753     17757     17753     17758
     17759     17760     17762     17763     17764     17765     17766     17767
     17768     17769     17770     17771     17761     17759     17759     17768
     17759     17770     17761     17762     17761     17764     17761     17766
     17768     17772     17768     17773     17770     17774     17770     17775
     17776     17777     17779     17780     17781     17782     17783     17784
     17785     17786     17787     17788     17778     17776     17776     17785
     17776     17787     17778     17779     17778     17781     17778     17783
     17785     17789     17785     17790     17787     17791     17787     17792
     17793     17794     17796     17797     17798     17799     17800     17801
     17802     17803     17804     17805     17795     17793     17793     17802
     17793     17804     17795     17796     17795     17798     17795     17800
     17802     17806     17802     17807     17804     17808     17804     17809
     17810     17811     17813     17814     17815     17816     17817     17818
     17819     17820     17821     17822     17812     17810     17810     17819
     17810     17821     17812     17813     17812     17815     17812     17817
     17819     17823     17819     17824     17821     17825     17821     17826
     17827     17828     17830     17831     17832     17833     17834     17835
     17836     17837     17838     17839     17829     17827     17827     17836
     17827     17838     17829     17830     17829     17832     17829     17834
     17836     17840     17836     17841     17838     17842     17838     17843
     17844     17845     17847     17848     17849     17850     17851     17852
     17853     17854     17855     17856     17846     17844     17844     17853
     17844     17855     17846     17847     17846     17849     17846     17851
     17853     17857     17853     17858     17855     17859     17855     17860
     17861     17862     17864     17865     17866     17867     17868     17869
     17870     17871     17872     17873     17863     17861     17861     17870
     17861     17872     17863     17864     17863     17866     17863     17868
     17870     17874     17870     17875     17872     17876     17872     17877
     17878     17879     17881     17882     17883     17884     17885     17886
     17887     17888     17889     17890     17880     17878     17878     17887
     17878     17889     17880     17881     17880     17883     17880     17885
     17887     17891     17887     17892     17889     17893     17889     17894
     17895     17896     17898     17899     17900     17901     17902     17903
     17904     17905     17906     17907     17897     17895     17895     17904
     17895     17906     17897     17898     17897     17900     17897     17902
     17904     17908     17904     17909     17906     17910     17906     17911
     17912     17913     17915     17916     17917     17918     17919     17920
     17921     17922     17923     17924     17914     17912     17912     17921
     17912     17923     17914     17915     17914     17917     17914     17919
     17921     17925     17921     17926     17923     17927     17923     17928
     17929     17930     17932     17933     17934     17935     17936     17937
     17938     17939     17940     17941     17931     17929     17929     17938
     17929     17940     17931     17932     17931     17934     17931     17936
     17938     17942     17938     17943     17940     17944     17940     17945
     17946     17947     17949     17950     17951     17952     17953     17954
     17955     17956     17957     17958     17948     17946     17946     17955
     17946     17957     17948     17949     17948     17951     17948     17953
     17955     17959     17955     17960     17957     17961     17957     17962
     17963     17964     17966     17967     17968     17969     17970     17971
     17972     17973     17974     17975     17965     17963     17963     17972
     17963     17974     17965     17966     17965     17968     17965     17970
     17972     17976     17972     17977     17974     17978     17974     17979
     17980     17981     17983     17984     17985     17986     17987     17988
     17989     17990     17991     17992     17982     17980     17980     17989
     17980     17991     17982     17983     17982     17985     17982     17987
     17989     17993     17989     17994     17991     17995     17991     17996
     17997     17998     18000     18001     18002     18003     18004     18005
     18006     18007     18008     18009     17999     17997     17997     18006
     17997     18008     17999     18000     17999     18002     17999     18004
     18006     18010     18006     18011     18008     18012     18008     18013
     18014     18015     18017     18018     18019     18020     18021     18022
     18023     18024     18025     18026     18016     18014     18014     18023
     18014     18025     18016     18017     18016     18019     18016     18021
     18023     18027     18023     18028     18025     18029     18025     18030
     18031     18032     18034     18035     18036     18037     18038     18039
     18040     18041     18042     18043     18033     18031     18031     18040
     18031     18042     18033     18034     18033     18036     18033     18038
     18040     18044     18040     18045     18042     18046     18042     18047
     18048     18049     18051     18052     18053     18054     18055     18056
     18057     18058     18059     18060     18050     18048     18048     18057
     18048     18059     18050     18051     18050     18053     18050     18055
     18057     18061     18057     18062     18059     18063     18059     18064
     18065     18066     18068     18069     18070     18071     18072     18073
     18074     18075     18076     18077     18067     18065     18065     18074
     18065     18076     18067     18068     18067     18070     18067     18072
     18074     18078     18074     18079     18076     18080     18076     18081
     18082     18083     18085     18086     18087     18088     18089     18090
     18091     18092     18093     18094     18084     18082     18082     18091
     18082     18093     18084     18085     18084     18087     18084     18089
     18091     18095     18091     18096     18093     18097     18093     18098
     18099     18100     18102     18103     18104     18105     18106     18107
     18108     18109     18110     18111     18101     18099     18099     18108
     18099     18110     18101     18102     18101     18104     18101     18106
     18108     18112     18108     18113     18110     18114     18110     18115
     18116     18117     18119     18120     18121     18122     18123     18124
     18125     18126     18127     18128     18118     18116     18116     18125
     18116     18127     18118     18119     18118     18121     18118     18123
     18125     18129     18125     18130     18127     18131     18127     18132
     18133     18134     18136     18137     18138     18139     18140     18141
     18142     18143     18144     18145     18135     18133     18133     18142
     18133     18144     18135     18136     18135     18138     18135     18140
     18142     18146     18142     18147     18144     18148     18144     18149
     18150     18151     18153     18154     18155     18156     18157     18158
     18159     18160     18161     18162     18152     18150     18150     18159
     18150     18161     18152     18153     18152     18155     18152     18157
     18159     18163     18159     18164     18161     18165     18161     18166
     18167     18168     18170     18171     18172     18173     18174     18175
     18176     18177     18178     18179     18169     18167     18167     18176
     18167     18178     18169     18170     18169     18172     18169     18174
     18176     18180     18176     18181     18178     18182     18178     18183
     18184     18185     18187     18188     18189     18190     18191     18192
     18193     18194     18195     18196     18186     18184     18184     18193
     18184     18195     18186     18187     18186     18189     18186     18191
     18193     18197     18193     18198     18195     18199     18195     18200

     15300 !NTHETA: angles
         3         1         4         3         1         5         3         1         6
         4         1         5         4         1         6         5         1         6
         1         6         8         1         6        14         8         6        14
         6         8        10         6         8        11        10         8        11
         8        11        13         8        11        17        13        11        17
         6        14        16         6        14        17        16        14        17
        11        17        14        11        17        19        14        17        19
        23        21        24        23        21        25        23        21        26
        24        21        25        24        21        26        25        21        26
        21        26        28        21        26        34        28        26        34
        26        28        30        26        28        31        30        28        31
        28        31        33        28        31        37        33        31        37
        26        34        36        26        34        37        36        34        37
        31        37        34        31        37        39        34        37        39
        43        41        44        43        41        45        43        41        46
        44        41        45        44        41        46        45        41        46
        41        46        48        41        46        54        48        46        54
        46        48        50        46        48        51        50        48        51
        48        51        53        48        51        57        53        51        57
        46        54        56        46        54        57        56        54        57
        51        57        54        51        57        59        54        57        59
        63        61        64        63        61        65        63        61        66
        64        61        65        64        61        66        65        61        66
        61        66        68        61        66        74        68        66        74
        66        68        70        66        68        71        70        68        71
        68        71        73        68        71        77        73        71        77
        66        74        76        66        74        77        76        74        77
        71        77        74        71        77        79        74        77        79
        83        81        84        83        81        85        83        81        86
        84        81        85        84        81        86        85        81        86
        81        86        88        81        86        94        88        86        94
        86        88        90        86        88        91        90        88        91
        88        91        93        88        91        97        93        91        97
        86        94        96        86        94        97        96        94        97
        91        97        94        91        97        99        94        97        99
       103       101       104       103       101       105       103       101       106
       104       101       105       104       101       106       105       101       106
       101       106       108       101       106       114       108       106       114
       106       108       110       106       108       111       110       108       111
       108       111       113       108       111       117       113       111       117
       106       114       116       106       114       117       116       114       117
       111       117       114       111       117       119       114       117       119
       123       121       124       123       121       125       123       121       126
       124       121       125       124       121       126       125       121       126
       121       126       128       121       126       134       128       126       134
       126       128       130       126       128       131       130       128       131
       128       131       133       128       131       137       133       131       137
       126       134       136       126       134       137       136       134       137
       131       137       134       131       137       139       134       137       139
       143       141       144       143       141       145       143       141       146
       144       141       145       144       141       146       145       141       146
       141       146       148       141       146       154       148       146       154
       146       148       150       146       148       151       150       148       151
       148       151       153       148       151       157       153       151       157
       146       154       156       146       154       157       156       154       157
       151       157       154       151       157       159       154       157       159
       163       161       164       163       161       165       163       161       166
       164       161       165       164       161       166       165       161       166
       161       166       168       161       166       174       168       166       174
       166       168       170       166       168       171       170       168       171
       168       171       173       168       171       177       173       171       177
       166       174       176       166       174       177       176       174       177
       171       177       174       171       177       179       174       177       179
       183       181       184       183       181       185       183       181       186
       184       181       185       184       181       186       185       181       186
       181       186       188       181       186       194       188       186       194
       186       188       190       186       188       191       190       188       191
       188       191       193       188       191       197       193       191       197
       186       194       196       186       194       197       196       194       197
       191       197       194       191       197       199       194       197       199
       203       201       204       203       201       205       203       201       206
       204       201       205       204       201       206       205       201       206
       201       206       208       201       206       214       208       206       214
       206       208       210       206       208       211       210       208       211
       208       211       213       208       211       217       213       211       217
       206       214       216       206       214       217       216       214       217
       211       217       214       211       217       219       214       217       219
       223       221       224       223       221       225       223       221       226
       224       221       225       224       221       226       225       221       226
       221       226       228       221       226       234       228       226       234
       226       228       230       226       228       231       230       228       231
       228       231       233       228       231       237       233       231       237
       226       234       236       226       234       237       236       234       237
       231       237       234       231       237       239       234       237       239
       243       241       244       243       241       245       243       241       246
       244       241       245       244       241       246       245       241       246
       241       246       248       241       246       254       248       246       254
       246       248       250       246       248       251       250       248       251
       248       251       253       248       251       257       253       251       257
       246       254       256       246       254       257       256       254       257
       251       257       254       251       257       259       254       257       259
       263       261       264       263       261       265       263       261       266
       264       261       265       264       261       266       265       261       266
       261       266       268       261       266       274       268       266       274
       266       268       270       266       268       271       270       268       271
       268       271       273       268       271       277       273       271       277
       266       274       276       266       274       277       276       274       277
       271       277       274       271       277       279       274       277       279
       283       281       284       283       281       285       283       281       286
       284       281       285       284       281       286       285       281       286
       281       286       288       281       286       294       288       286       294
       286       288       290       286       288       291       290       288       291
       288       291       293       288       291       297       293       291       297
       286       294       296       286       294       297       296       294       297
       291       297       294       291       297       299       294       297       299
       303       301       304       303       301       305       303       301       306
       304       301       305       304       301       306       305       301       306
       301       306       308       301       306       314       308       306       314
       306       308       310       306       308       311       310       308       311
       308       311       313       308       311       317       313       311       317
       306       314       316       306       314       317       316       314       317
       311       317       314       311       317       319       314       317       319
       323       321       324       323       321       325       323       321       326
       324       321       325       324       321       326       325       321       326
       321       326       328       321       326       334       328       326       334
       326       328       330       326       328       331       330       328       331
       328       331       333       328       331       337       333       331       337
       326       334       336       326       334       337       336       334       337
       331       337       334       331       337       339       334       337       339
       343       341       344       343       341       345       343       341       346
       344       341       345       344       341       346       345       341       346
       341       346       348       341       346       354       348       346       354
       346       348       350       346       348       351       350       348       351
       348       351       353       348       351       357       353       351       357
       346       354       356       346       354       357       356       354       357
       351       357       354       351       357       359       354       357       359
       363       361       364       363       361       365       363       361       366
       364       361       365       364       361       366       365       361       366
       361       366       368       361       366       374       368       366       374
       366       368       370       366       368       371       370       368       371
       368       371       373       368       371       377       373       371       377
       366       374       376       366       374       377       376       374       377
       371       377       374       371       377       379       374       377       379
       383       381       384       383       381       385       383       381       386
       384       381       385       384       381       386       385       381       386
       381       386       388       381       386       394       388       386       394
       386       388       390       386       388       391       390       388       391
       388       391       393       388       391       397       393       391       397
       386       394       396       386       394       397       396       394       397
       391       397       394       391       397       399       394       397       399
       403       401       404       403       401       405       403       401       406
       404       401       405       404       401       406       405       401       406
       401       406       408       401       406       414       408       406       414
       406       408       410       406       408       411       410       408       411
       408       411       413       408       411       417       413       411       417
       406       414       416       406       414       417       416       414       417
       411       417       414       411       417       419       414       417       419
       423       421       424       423       421       425       423       421       426
       424       421       425       424       421       426       425       421       426
       421       426       428       421       426       434       428       426       434
       426       428       430       426       428       431       430       428       431
       428       431       433       428       431       437       433       431       437
       426       434       436       426       434       437       436       434       437
       431       437       434       431       437       439       434       437       439
       443       441       444       443       441       445       443       441       446
       444       441       445       444       441       446       445       441       446
       441       446       448       441       446       454       448       446       454
       446       448       450       446       448       451       450       448       451
       448       451       453       448       451       457       453       451       457
       446       454       456       446       454       457       456       454       457
       451       457       454       451       457       459       454       457       459
       463       461       464       463       461       465       463       461       466
       464       461       465       464       461       466       465       461       466
       461       466       468       461       466       474       468       466       474
       466       468       470       466       468       471       470       468       471
       468       471       473       468       471       477       473       471       477
       466       474       476       466       474       477       476       474       477
       471       477       474       471       477       479       474       477       479
       483       481       484       483       481       485       483       481       486
       484       481       485       484       481       486       485       481       486
       481       486       488       481       486       494       488       486       494
       486       488       490       486       488       491       490       488       491
       488       491       493       488       491       497       493       491       497
       486       494       496       486       494       497       496       494       497
       491       497       494       491       497       499       494       497       499
       503       501       504       503       501       505       503       501       506
       504       501       505       504       501       506       505       501       506
       501       506       508       501       506       514       508       506       514
       506       508       510       506       508       511       510       508       511
       508       511       513       508       511       517       513       511       517
       506       514       516       506       514       517       516       514       517
       511       517       514       511       517       519       514       517       519
       523       521       524       523       521       525       523       521       526
       524       521       525       524       521       526       525       521       526
       521       526       528       521       526       534       528       526       534
       526       528       530       526       528       531       530       528       531
       528       531       533       528       531       537       533       531       537
       526       534       536       526       534       537       536       534       537
       531       537       534       531       537       539       534       537       539
       543       541       544       543       541       545       543       541       546
       544       541       545       544       541       546       545       541       546
       541       546       548       541       546       554       548       546       554
       546       548       550       546       548       551       550       548       551
       548       551       553       548       551       557       553       551       557
       546       554       556       546       554       557       556       554       557
       551       557       554       551       557       559       554       557       559
       563       561       564       563       561       565       563       561       566
       564       561       565       564       561       566       565       561       566
       561       566       568       561       566       574       568       566       574
       566       568       570       566       568       571       570       568       571
       568       571       573       568       571       577       573       571       577
       566       574       576       566       574       577       576       574       577
       571       577       574       571       577       579       574       577       579
       583       581       584       583       581       585       583       581       586
       584       581       585       584       581       586       585       581       586
       581       586       588       581       586       594       588       586       594
       586       588       590       586       588       591       590       588       591
       588       591       593       588       591       597       593       591       597
       586       594       596       586       594       597       596       594       597
       591       597       594       591       597       599       594       597       599
       603       601       604       603       601       605       603       601       606
       604       601       605       604       601       606       605       601       606
       601       606       608       601       606       614       608       606       614
       606       608       610       606       608       611       610       608       611
       608       611       613       608       611       617       613       611       617
       606       614       616       606       614       617       616       614       617
       611       617       614       611       617       619       614       617       619
       623       621       624       623       621       625       623       621       626
       624       621       625       624       621       626       625       621       626
       621       626       628       621       626       634       628       626       634
       626       628       630       626       628       631       630       628       631
       628       631       633       628       631       637       633       631       637
       626       634       636       626       634       637       636       634       637
       631       637       634       631       637       639       634       637       639
       643       641       644       643       641       645       643       641       646
       644       641       645       644       641       646       645       641       646
       641       646       648       641       646       654       648       646       654
       646       648       650       646       648       651       650       648       651
       648       651       653       648       651       657       653       651       657
       646       654       656       646       654       657       656       654       657
       651       657       654       651       657       659       654       657       659
       663       661       664       663       661       665       663       661       666
       664       661       665       664       661       666       665       661       666
       661       666       668       661       666       674       668       666       674
       666       668       670       666       668       671       670       668       671
       668       671       673       668       671       677       673       671       677
       666       674       676       666       674       677       676       674       677
       671       677       674       671       677       679       674       677       679
       683       681       684       683       681       685       683       681       686
       684       681       685       684       681       686       685       681       686
       681       686       688       681       686       694       688       686       694
       686       688       690       686       688       691       690       688       691
       688       691       693       688       691       697       693       691       697
       686       694       696       686       694       697       696       694       697
       691       697       694       691       697       699       694       697       699
       703       701       704       703       701       705       703       701       706
       704       701       705       704       701       706       705       701       706
       701       706       708       701       706       714       708       706       714
       706       708       710       706       708       711       710       708       711
       708       711       713       708       711       717       713       711       717
       706       714       716       706       714       717       716       714       717
       711       717       714       711       717       719       714       717       719
       723       721       724       723       721       725       723       721       726
       724       721       725       724       721       726       725       721       726
       721       726       728       721       726       734       728       726       734
       726       728       730       726       728       731       730       728       731
       728       731       733       728       731       737       733       731       737
       726       734       736       726       734       737       736       734       737
       731       737       734       731       737       739       734       737       739
       743       741       744       743       741       745       743       741       746
       744       741       745       744       741       746       745       741       746
       741       746       748       741       746       754       748       746       754
       746       748       750       746       748       751       750       748       751
       748       751       753       748       751       757       753       751       757
       746       754       756       746       754       757       756       754       757
       751       757       754       751       757       759       754       757       759
       763       761       764       763       761       765       763       761       766
       764       761       765       764       761       766       765       761       766
       761       766       768       761       766       774       768       766       774
       766       768       770       766       768       771       770       768       771
       768       771       773       768       771       777       773       771       777
       766       774       776       766       774       777       776       774       777
       771       777       774       771       777       779       774       777       779
       783       781       784       783       781       785       783       781       786
       784       781       785       784       781       786       785       781       786
       781       786       788       781       786       794       788       786       794
       786       788       790       786       788       791       790       788       791
       788       791       793       788       791       797       793       791       797
       786       794       796       786       794       797       796       794       797
       791       797       794       791       797       799       794       797       799
       803       801       804       803       801       805       803       801       806
       804       801       805       804       801       806       805       801       806
       801       806       808       801       806       814       808       806       814
       806       808       810       806       808       811       810       808       811
       808       811       813       808       811       817       813       811       817
       806       814       816       806       814       817       816       814       817
       811       817       814       811       817       819       814       817       819
       823       821       824       823       821       825       823       821       826
       824       821       825       824       821       826       825       821       826
       821       826       828       821       826       834       828       826       834
       826       828       830       826       828       831       830       828       831
       828       831       833       828       831       837       833       831       837
       826       834       836       826       834       837       836       834       837
       831       837       834       831       837       839       834       837       839
       843       841       844       843       841       845       843       841       846
       844       841       845       844       841       846       845       841       846
       841       846       848       841       846       854       848       846       854
       846       848       850       846       848       851       850       848       851
       848       851       853       848       851       857       853       851       857
       846       854       856       846       854       857       856       854       857
       851       857       854       851       857       859       854       857       859
       863       861       864       863       861       865       863       861       866
       864       861       865       864       861       866       865       861       866
       861       866       868       861       866       874       868       866       874
       866       868       870       866       868       871       870       868       871
       868       871       873       868       871       877       873       871       877
       866       874       876       866       874       877       876       874       877
       871       877       874       871       877       879       874       877       879
       883       881       884       883       881       885       883       881       886
       884       881       885       884       881       886       885       881       886
       881       886       888       881       886       894       888       886       894
       886       888       890       886       888       891       890       888       891
       888       891       893       888       891       897       893       891       897
       886       894       896       886       894       897       896       894       897
       891       897       894       891       897       899       894       897       899
       903       901       904       903       901       905       903       901       906
       904       901       905       904       901       906       905       901       906
       901       906       908       901       906       914       908       906       914
       906       908       910       906       908       911       910       908       911
       908       911       913       908       911       917       913       911       917
       906       914       916       906       914       917       916       914       917
       911       917       914       911       917       919       914       917       919
       923       921       924       923       921       925       923       921       926
       924       921       925       924       921       926       925       921       926
       921       926       928       921       926       934       928       926       934
       926       928       930       926       928       931       930       928       931
       928       931       933       928       931       937       933       931       937
       926       934       936       926       934       937       936       934       937
       931       937       934       931       937       939       934       937       939
       943       941       944       943       941       945       943       941       946
       944       941       945       944       941       946       945       941       946
       941       946       948       941       946       954       948       946       954
       946       948       950       946       948       951       950       948       951
       948       951       953       948       951       957       953       951       957
       946       954       956       946       954       957       956       954       957
       951       957       954       951       957       959       954       957       959
       963       961       964       963       961       965       963       961       966
       964       961       965       964       961       966       965       961       966
       961       966       968       961       966       974       968       966       974
       966       968       970       966       968       971       970       968       971
       968       971       973       968       971       977       973       971       977
       966       974       976       966       974       977       976       974       977
       971       977       974       971       977       979       974       977       979
       983       981       984       983       981       985       983       981       986
       984       981       985       984       981       986       985       981       986
       981       986       988       981       986       994       988       986       994
       986       988       990       986       988       991       990       988       991
       988       991       993       988       991       997       993       991       997
       986       994       996       986       994       997       996       994       997
       991       997       994       991       997       999       994       997       999
      1003      1001      1004      1003      1001      1005      1003      1001      1006
      1004      1001      1005      1004      1001      1006      1005      1001      1006
      1001      1006      1008      1001      1006      1014      1008      1006      1014
      1006      1008      1010      1006      1008      1011      1010      1008      1011
      1008      1011      1013      1008      1011      1017      1013      1011      1017
      1006      1014      1016      1006      1014      1017      1016      1014      1017
      1011      1017      1014      1011      1017      1019      1014      1017      1019
      1023      1021      1024      1023      1021      1025      1023      1021      1026
      1024      1021      1025      1024      1021      1026      1025      1021      1026
      1021      1026      1028      1021      1026      1034      1028      1026      1034
      1026      1028      1030      1026      1028      1031      1030      1028      1031
      1028      1031      1033      1028      1031      1037      1033      1031      1037
      1026      1034      1036      1026      1034      1037      1036      1034      1037
      1031      1037      1034      1031      1037      1039      1034      1037      1039
      1043      1041      1044      1043      1041      1045      1043      1041      1046
      1044      1041      1045      1044      1041      1046      1045      1041      1046
      1041      1046      1048      1041      1046      1054      1048      1046      1054
      1046      1048      1050      1046      1048      1051      1050      1048      1051
      1048      1051      1053      1048      1051      1057      1053      1051      1057
      1046      1054      1056      1046      1054      1057      1056      1054      1057
      1051      1057      1054      1051      1057      1059      1054      1057      1059
      1063      1061      1064      1063      1061      1065      1063      1061      1066
      1064      1061      1065      1064      1061      1066      1065      1061      1066
      1061      1066      1068      1061      1066      1074      1068      1066      1074
      1066      1068      1070      1066      1068      1071      1070      1068      1071
      1068      1071      1073      1068      1071      1077      1073      1071      1077
      1066      1074      1076      1066      1074      1077      1076      1074      1077
      1071      1077      1074      1071      1077      1079      1074      1077      1079
      1083      1081      1084      1083      1081      1085      1083      1081      1086
      1084      1081      1085      1084      1081      1086      1085      1081      1086
      1081      1086      1088      1081      1086      1094      1088      1086      1094
      1086      1088      1090      1086      1088      1091      1090      1088      1091
      1088      1091      1093      1088      1091      1097      1093      1091      1097
      1086      1094      1096      1086      1094      1097      1096      1094      1097
      1091      1097      1094      1091      1097      1099      1094      1097      1099
      1103      1101      1104      1103      1101      1105      1103      1101      1106
      1104      1101      1105      1104      1101      1106      1105      1101      1106
      1101      1106      1108      1101      1106      1114      1108      1106      1114
      1106      1108      1110      1106      1108      1111      1110      1108      1111
      1108      1111      1113      1108      1111      1117      1113      1111      1117
      1106      1114      1116      1106      1114      1117      1116      1114      1117
      1111      1117      1114      1111      1117      1119      1114      1117      1119
      1123      1121      1124      1123      1121      1125      1123      1121      1126
      1124      1121      1125      1124      1121      1126      1125      1121      1126
      1121      1126      1128      1121      1126      1134      1128      1126      1134
      1126      1128      1130      1126      1128      1131      1130      1128      1131
      1128      1131      1133      1128      1131      1137      1133      1131      1137
      1126      1134      1136      1126      1134      1137      1136      1134      1137
      1131      1137      1134      1131      1137      1139      1134      1137      1139
      1143      1141      1144      1143      1141      1145      1143      1141      1146
      1144      1141      1145      1144      1141      1146      1145      1141      1146
      1141      1146      1148      1141      1146      1154      1148      1146      1154
      1146      1148      1150      1146      1148      1151      1150      1148      1151
      1148      1151      1153      1148      1151      1157      1153      1151      1157
      1146      1154      1156      1146      1154      1157      1156      1154      1157
      1151      1157      1154      1151      1157      1159      1154      1157      1159
      1163      1161      1164      1163      1161      1165      1163      1161      1166
      1164      1161      1165      1164      1161      1166      1165      1161      1166
      1161      1166      1168      1161      1166      1174      1168      1166      1174
      1166      1168      1170      1166      1168      1171      1170      1168      1171
      1168      1171      1173      1168      1171      1177      1173      1171      1177
      1166      1174      1176      1166      1174      1177      1176      1174      1177
      1171      1177      1174      1171      1177      1179      1174      1177      1179
      1183      1181      1184      1183      1181      1185      1183      1181      1186
      1184      1181      1185      1184      1181      1186      1185      1181      1186
      1181      1186      1188      1181      1186      1194      1188      1186      1194
      1186      1188      1190      1186      1188      1191      1190      1188      1191
      1188      1191      1193      1188      1191      1197      1193      1191      1197
      1186      1194      1196      1186      1194      1197      1196      1194      1197
      1191      1197      1194      1191      1197      1199      1194      1197      1199
      1203      1201      1204      1203      1201      1205      1203      1201      1206
      1204      1201      1205      1204      1201      1206      1205      1201      1206
      1201      1206      1208      1201      1206      1214      1208      1206      1214
      1206      1208      1210      1206      1208      1211      1210      1208      1211
      1208      1211      1213      1208      1211      1217      1213      1211      1217
      1206      1214      1216      1206      1214      1217      1216      1214      1217
      1211      1217      1214      1211      1217      1219      1214      1217      1219
      1223      1221      1224      1223      1221      1225      1223      1221      1226
      1224      1221      1225      1224      1221      1226      1225      1221      1226
      1221      1226      1228      1221      1226      1234      1228      1226      1234
      1226      1228      1230      1226      1228      1231      1230      1228      1231
      1228      1231      1233      1228      1231      1237      1233      1231      1237
      1226      1234      1236      1226      1234      1237      1236      1234      1237
      1231      1237      1234      1231      1237      1239      1234      1237      1239
      1243      1241      1244      1243      1241      1245      1243      1241      1246
      1244      1241      1245      1244      1241      1246      1245      1241      1246
      1241      1246      1248      1241      1246      1254      1248      1246      1254
      1246      1248      1250      1246      1248      1251      1250      1248      1251
      1248      1251      1253      1248      1251      1257      1253      1251      1257
      1246      1254      1256      1246      1254      1257      1256      1254      1257
      1251      1257      1254      1251      1257      1259      1254      1257      1259
      1263      1261      1264      1263      1261      1265      1263      1261      1266
      1264      1261      1265      1264      1261      1266      1265      1261      1266
      1261      1266      1268      1261      1266      1274      1268      1266      1274
      1266      1268      1270      1266      1268      1271      1270      1268      1271
      1268      1271      1273      1268      1271      1277      1273      1271      1277
      1266      1274      1276      1266      1274      1277      1276      1274      1277
      1271      1277      1274      1271      1277      1279      1274      1277      1279
      1283      1281      1284      1283      1281      1285      1283      1281      1286
      1284      1281      1285      1284      1281      1286      1285      1281      1286
      1281      1286      1288      1281      1286      1294      1288      1286      1294
      1286      1288      1290      1286      1288      1291      1290      1288      1291
      1288      1291      1293      1288      1291      1297      1293      1291      1297
      1286      1294      1296      1286      1294      1297      1296      1294      1297
      1291      1297      1294      1291      1297      1299      1294      1297      1299
      1303      1301      1304      1303      1301      1305      1303      1301      1306
      1304      1301      1305      1304      1301      1306      1305      1301      1306
      1301      1306      1308      1301      1306      1314      1308      1306      1314
      1306      1308      1310      1306      1308      1311      1310      1308      1311
      1308      1311      1313      1308      1311      1317      1313      1311      1317
      1306      1314      1316      1306      1314      1317      1316      1314      1317
      1311      1317      1314      1311      1317      1319      1314      1317      1319
      1323      1321      1324      1323      1321      1325      1323      1321      1326
      1324      1321      1325      1324      1321      1326      1325      1321      1326
      1321      1326      1328      1321      1326      1334      1328      1326      1334
      1326      1328      1330      1326      1328      1331      1330      1328      1331
      1328      1331      1333      1328      1331      1337      1333      1331      1337
      1326      1334      1336      1326      1334      1337      1336      1334      1337
      1331      1337      1334      1331      1337      1339      1334      1337      1339
      1343      1341      1344      1343      1341      1345      1343      1341      1346
      1344      1341      1345      1344      1341      1346      1345      1341      1346
      1341      1346      1348      1341      1346      1354      1348      1346      1354
      1346      1348      1350      1346      1348      1351      1350      1348      1351
      1348      1351      1353      1348      1351      1357      1353      1351      1357
      1346      1354      1356      1346      1354      1357      1356      1354      1357
      1351      1357      1354      1351      1357      1359      1354      1357      1359
      1363      1361      1364      1363      1361      1365      1363      1361      1366
      1364      1361      1365      1364      1361      1366      1365      1361      1366
      1361      1366      1368      1361      1366      1374      1368      1366      1374
      1366      1368      1370      1366      1368      1371      1370      1368      1371
      1368      1371      1373      1368      1371      1377      1373      1371      1377
      1366      1374      1376      1366      1374      1377      1376      1374      1377
      1371      1377      1374      1371      1377      1379      1374      1377      1379
      1383      1381      1384      1383      1381      1385      1383      1381      1386
      1384      1381      1385      1384      1381      1386      1385      1381      1386
      1381      1386      1388      1381      1386      1394      1388      1386      1394
      1386      1388      1390      1386      1388      1391      1390      1388      1391
      1388      1391      1393      1388      1391      1397      1393      1391      1397
      1386      1394      1396      1386      1394      1397      1396      1394      1397
      1391      1397      1394      1391      1397      1399      1394      1397      1399
      1403      1401      1404      1403      1401      1405      1403      1401      1406
      1404      1401      1405      1404      1401      1406      1405      1401      1406
      1401      1406      1408      1401      1406      1414      1408      1406      1414
      1406      1408      1410      1406      1408      1411      1410      1408      1411
      1408      1411      1413      1408      1411      1417      1413      1411      1417
      1406      1414      1416      1406      1414      1417      1416      1414      1417
      1411      1417      1414      1411      1417      1419      1414      1417      1419
      1423      1421      1424      1423      1421      1425      1423      1421      1426
      1424      1421      1425      1424      1421      1426      1425      1421      1426
      1421      1426      1428      1421      1426      1434      1428      1426      1434
      1426      1428      1430      1426      1428      1431      1430      1428      1431
      1428      1431      1433      1428      1431      1437      1433      1431      1437
      1426      1434      1436      1426      1434      1437      1436      1434      1437
      1431      1437      1434      1431      1437      1439      1434      1437      1439
      1443      1441      1444      1443      1441      1445      1443      1441      1446
      1444      1441      1445      1444      1441      1446      1445      1441      1446
      1441      1446      1448      1441      1446      1454      1448      1446      1454
      1446      1448      1450      1446      1448      1451      1450      1448      1451
      1448      1451      1453      1448      1451      1457      1453      1451      1457
      1446      1454      1456      1446      1454      1457      1456      1454      1457
      1451      1457      1454      1451      1457      1459      1454      1457      1459
      1463      1461      1464      1463      1461      1465      1463      1461      1466
      1464      1461      1465      1464      1461      1466      1465      1461      1466
      1461      1466      1468      1461      1466      1474      1468      1466      1474
      1466      1468      1470      1466      1468      1471      1470      1468      1471
      1468      1471      1473      1468      1471      1477      1473      1471      1477
      1466      1474      1476      1466      1474      1477      1476      1474      1477
      1471      1477      1474      1471      1477      1479      1474      1477      1479
      1483      1481      1484      1483      1481      1485      1483      1481      1486
      1484      1481      1485      1484      1481      1486      1485      1481      1486
      1481      1486      1488      1481      1486      1494      1488      1486      1494
      1486      1488      1490      1486      1488      1491      1490      1488      1491
      1488      1491      1493      1488      1491      1497      1493      1491      1497
      1486      1494      1496      1486      1494      1497      1496      1494      1497
      1491      1497      1494      1491      1497      1499      1494      1497      1499
      1503      1501      1504      1503      1501      1505      1503      1501      1506
      1504      1501      1505      1504      1501      1506      1505      1501      1506
      1501      1506      1508      1501      1506      1514      1508      1506      1514
      1506      1508      1510      1506      1508      1511      1510      1508      1511
      1508      1511      1513      1508      1511      1517      1513      1511      1517
      1506      1514      1516      1506      1514      1517      1516      1514      1517
      1511      1517      1514      1511      1517      1519      1514      1517      1519
      1523      1521      1524      1523      1521      1525      1523      1521      1526
      1524      1521      1525      1524      1521      1526      1525      1521      1526
      1521      1526      1528      1521      1526      1534      1528      1526      1534
      1526      1528      1530      1526      1528      1531      1530      1528      1531
      1528      1531      1533      1528      1531      1537      1533      1531      1537
      1526      1534      1536      1526      1534      1537      1536      1534      1537
      1531      1537      1534      1531      1537      1539      1534      1537      1539
      1543      1541      1544      1543      1541      1545      1543      1541      1546
      1544      1541      1545      1544      1541      1546      1545      1541      1546
      1541      1546      1548      1541      1546      1554      1548      1546      1554
      1546      1548      1550      1546      1548      1551      1550      1548      1551
      1548      1551      1553      1548      1551      1557      1553      1551      1557
      1546      1554      1556      1546      1554      1557      1556      1554      1557
      1551      1557      1554      1551      1557      1559      1554      1557      1559
      1563      1561      1564      1563      1561      1565      1563      1561      1566
      1564      1561      1565      1564      1561      1566      1565      1561      1566
      1561      1566      1568      1561      1566      1574      1568      1566      1574
      1566      1568      1570      1566      1568      1571      1570      1568      1571
      1568      1571      1573      1568      1571      1577      1573      1571      1577
      1566      1574      1576      1566      1574      1577      1576      1574      1577
      1571      1577      1574      1571      1577      1579      1574      1577      1579
      1583      1581      1584      1583      1581      1585      1583      1581      1586
      1584      1581      1585      1584      1581      1586      1585      1581      1586
      1581      1586      1588      1581      1586      1594      1588      1586      1594
      1586      1588      1590      1586      1588      1591      1590      1588      1591
      1588      1591      1593      1588      1591      1597      1593      1591      1597
      1586      1594      1596      1586      1594      1597      1596      1594      1597
      1591      1597      1594      1591      1597      1599      1594      1597      1599
      1603      1601      1604      1603      1601      1605      1603      1601      1606
      1604      1601      1605      1604      1601      1606      1605      1601      1606
      1601      1606      1608      1601      1606      1614      1608      1606      1614
      1606      1608      1610      1606      1608      1611      1610      1608      1611
      1608      1611      1613      1608      1611      1617      1613      1611      1617
      1606      1614      1616      1606      1614      1617      1616      1614      1617
      1611      1617      1614      1611      1617      1619      1614      1617      1619
      1623      1621      1624      1623      1621      1625      1623      1621      1626
      1624      1621      1625      1624      1621      1626      1625      1621      1626
      1621      1626      1628      1621      1626      1634      1628      1626      1634
      1626      1628      1630      1626      1628      1631      1630      1628      1631
      1628      1631      1633      1628      1631      1637      1633      1631      1637
      1626      1634      1636      1626      1634      1637      1636      1634      1637
      1631      1637      1634      1631      1637      1639      1634      1637      1639
      1643      1641      1644      1643      1641      1645      1643      1641      1646
      1644      1641      1645      1644      1641      1646      1645      1641      1646
      1641      1646      1648      1641      1646      1654      1648      1646      1654
      1646      1648      1650      1646      1648      1651      1650      1648      1651
      1648      1651      1653      1648      1651      1657      1653      1651      1657
      1646      1654      1656      1646      1654      1657      1656      1654      1657
      1651      1657      1654      1651      1657      1659      1654      1657      1659
      1663      1661      1664      1663      1661      1665      1663      1661      1666
      1664      1661      1665      1664      1661      1666      1665      1661      1666
      1661      1666      1668      1661      1666      1674      1668      1666      1674
      1666      1668      1670      1666      1668      1671      1670      1668      1671
      1668      1671      1673      1668      1671      1677      1673      1671      1677
      1666      1674      1676      1666      1674      1677      1676      1674      1677
      1671      1677      1674      1671      1677      1679      1674      1677      1679
      1683      1681      1684      1683      1681      1685      1683      1681      1686
      1684      1681      1685      1684      1681      1686      1685      1681      1686
      1681      1686      1688      1681      1686      1694      1688      1686      1694
      1686      1688      1690      1686      1688      1691      1690      1688      1691
      1688      1691      1693      1688      1691      1697      1693      1691      1697
      1686      1694      1696      1686      1694      1697      1696      1694      1697
      1691      1697      1694      1691      1697      1699      1694      1697      1699
      1703      1701      1704      1703      1701      1705      1703      1701      1706
      1704      1701      1705      1704      1701      1706      1705      1701      1706
      1701      1706      1708      1701      1706      1714      1708      1706      1714
      1706      1708      1710      1706      1708      1711      1710      1708      1711
      1708      1711      1713      1708      1711      1717      1713      1711      1717
      1706      1714      1716      1706      1714      1717      1716      1714      1717
      1711      1717      1714      1711      1717      1719      1714      1717      1719
      1723      1721      1724      1723      1721      1725      1723      1721      1726
      1724      1721      1725      1724      1721      1726      1725      1721      1726
      1721      1726      1728      1721      1726      1734      1728      1726      1734
      1726      1728      1730      1726      1728      1731      1730      1728      1731
      1728      1731      1733      1728      1731      1737      1733      1731      1737
      1726      1734      1736      1726      1734      1737      1736      1734      1737
      1731      1737      1734      1731      1737      1739      1734      1737      1739
      1743      1741      1744      1743      1741      1745      1743      1741      1746
      1744      1741      1745      1744      1741      1746      1745      1741      1746
      1741      1746      1748      1741      1746      1754      1748      1746      1754
      1746      1748      1750      1746      1748      1751      1750      1748      1751
      1748      1751      1753      1748      1751      1757      1753      1751      1757
      1746      1754      1756      1746      1754      1757      1756      1754      1757
      1751      1757      1754      1751      1757      1759      1754      1757      1759
      1763      1761      1764      1763      1761      1765      1763      1761      1766
      1764      1761      1765      1764      1761      1766      1765      1761      1766
      1761      1766      1768      1761      1766      1774      1768      1766      1774
      1766      1768      1770      1766      1768      1771      1770      1768      1771
      1768      1771      1773      1768      1771      1777      1773      1771      1777
      1766      1774      1776      1766      1774      1777      1776      1774      1777
      1771      1777      1774      1771      1777      1779      1774      1777      1779
      1783      1781      1784      1783      1781      1785      1783      1781      1786
      1784      1781      1785      1784      1781      1786      1785      1781      1786
      1781      1786      1788      1781      1786      1794      1788      1786      1794
      1786      1788      1790      1786      1788      1791      1790      1788      1791
      1788      1791      1793      1788      1791      1797      1793      1791      1797
      1786      1794      1796      1786      1794      1797      1796      1794      1797
      1791      1797      1794      1791      1797      1799      1794      1797      1799
      1803      1801      1804      1803      1801      1805      1803      1801      1806
      1804      1801      1805      1804      1801      1806      1805      1801      1806
      1801      1806      1808      1801      1806      1814      1808      1806      1814
      1806      1808      1810      1806      1808      1811      1810      1808      1811
      1808      1811      1813      1808      1811      1817      1813      1811      1817
      1806      1814      1816      1806      1814      1817      1816      1814      1817
      1811      1817      1814      1811      1817      1819      1814      1817      1819
      1823      1821      1824      1823      1821      1825      1823      1821      1826
      1824      1821      1825      1824      1821      1826      1825      1821      1826
      1821      1826      1828      1821      1826      1834      1828      1826      1834
      1826      1828      1830      1826      1828      1831      1830      1828      1831
      1828      1831      1833      1828      1831      1837      1833      1831      1837
      1826      1834      1836      1826      1834      1837      1836      1834      1837
      1831      1837      1834      1831      1837      1839      1834      1837      1839
      1843      1841      1844      1843      1841      1845      1843      1841      1846
      1844      1841      1845      1844      1841      1846      1845      1841      1846
      1841      1846      1848      1841      1846      1854      1848      1846      1854
      1846      1848      1850      1846      1848      1851      1850      1848      1851
      1848      1851      1853      1848      1851      1857      1853      1851      1857
      1846      1854      1856      1846      1854      1857      1856      1854      1857
      1851      1857      1854      1851      1857      1859      1854      1857      1859
      1863      1861      1864      1863      1861      1865      1863      1861      1866
      1864      1861      1865      1864      1861      1866      1865      1861      1866
      1861      1866      1868      1861      1866      1874      1868      1866      1874
      1866      1868      1870      1866      1868      1871      1870      1868      1871
      1868      1871      1873      1868      1871      1877      1873      1871      1877
      1866      1874      1876      1866      1874      1877      1876      1874      1877
      1871      1877      1874      1871      1877      1879      1874      1877      1879
      1883      1881      1884      1883      1881      1885      1883      1881      1886
      1884      1881      1885      1884      1881      1886      1885      1881      1886
      1881      1886      1888      1881      1886      1894      1888      1886      1894
      1886      1888      1890      1886      1888      1891      1890      1888      1891
      1888      1891      1893      1888      1891      1897      1893      1891      1897
      1886      1894      1896      1886      1894      1897      1896      1894      1897
      1891      1897      1894      1891      1897      1899      1894      1897      1899
      1903      1901      1904      1903      1901      1905      1903      1901      1906
      1904      1901      1905      1904      1901      1906      1905      1901      1906
      1901      1906      1908      1901      1906      1914      1908      1906      1914
      1906      1908      1910      1906      1908      1911      1910      1908      1911
      1908      1911      1913      1908      1911      1917      1913      1911      1917
      1906      1914      1916      1906      1914      1917      1916      1914      1917
      1911      1917      1914      1911      1917      1919      1914      1917      1919
      1923      1921      1924      1923      1921      1925      1923      1921      1926
      1924      1921      1925      1924      1921      1926      1925      1921      1926
      1921      1926      1928      1921      1926      1934      1928      1926      1934
      1926      1928      1930      1926      1928      1931      1930      1928      1931
      1928      1931      1933      1928      1931      1937      1933      1931      1937
      1926      1934      1936      1926      1934      1937      1936      1934      1937
      1931      1937      1934      1931      1937      1939      1934      1937      1939
      1943      1941      1944      1943      1941      1945      1943      1941      1946
      1944      1941      1945      1944      1941      1946      1945      1941      1946
      1941      1946      1948      1941      1946      1954      1948      1946      1954
      1946      1948      1950      1946      1948      1951      1950      1948      1951
      1948      1951      1953      1948      1951      1957      1953      1951      1957
      1946      1954      1956      1946      1954      1957      1956      1954      1957
      1951      1957      1954      1951      1957      1959      1954      1957      1959
      1963      1961      1964      1963      1961      1965      1963      1961      1966
      1964      1961      1965      1964      1961      1966      1965      1961      1966
      1961      1966      1968      1961      1966      1974      1968      1966      1974
      1966      1968      1970      1966      1968      1971      1970      1968      1971
      1968      1971      1973      1968      1971      1977      1973      1971      1977
      1966      1974      1976      1966      1974      1977      1976      1974      1977
      1971      1977      1974      1971      1977      1979      1974      1977      1979
      1983      1981      1984      1983      1981      1985      1983      1981      1986
      1984      1981      1985      1984      1981      1986      1985      1981      1986
      1981      1986      1988      1981      1986      1994      1988      1986      1994
      1986      1988      1990      1986      1988      1991      1990      1988      1991
      1988      1991      1993      1988      1991      1997      1993      1991      1997
      1986      1994      1996      1986      1994      1997      1996      1994      1997
      1991      1997      1994      1991      1997      1999      1994      1997      1999
      2003      2001      2004      2003      2001      2005      2003      2001      2006
      2004      2001      2005      2004      2001      2006      2005      2001      2006
      2001      2006      2008      2001      2006      2014      2008      2006      2014
      2006      2008      2010      2006      2008      2011      2010      2008      2011
      2008      2011      2013      2008      2011      2017      2013      2011      2017
      2006      2014      2016      2006      2014      2017      2016      2014      2017
      2011      2017      2014      2011      2017      2019      2014      2017      2019
      2023      2021      2024      2023      2021      2025      2023      2021      2026
      2024      2021      2025      2024      2021      2026      2025      2021      2026
      2021      2026      2028      2021      2026      2034      2028      2026      2034
      2026      2028      2030      2026      2028      2031      2030      2028      2031
      2028      2031      2033      2028      2031      2037      2033      2031      2037
      2026      2034      2036      2026      2034      2037      2036      2034      2037
      2031      2037      2034      2031      2037      2039      2034      2037      2039
      2043      2041      2044      2043      2041      2045      2043      2041      2046
      2044      2041      2045      2044      2041      2046      2045      2041      2046
      2041      2046      2048      2041      2046      2054      2048      2046      2054
      2046      2048      2050      2046      2048      2051      2050      2048      2051
      2048      2051      2053      2048      2051      2057      2053      2051      2057
      2046      2054      2056      2046      2054      2057      2056      2054      2057
      2051      2057      2054      2051      2057      2059      2054      2057      2059
      2063      2061      2064      2063      2061      2065      2063      2061      2066
      2064      2061      2065      2064      2061      2066      2065      2061      2066
      2061      2066      2068      2061      2066      2074      2068      2066      2074
      2066      2068      2070      2066      2068      2071      2070      2068      2071
      2068      2071      2073      2068      2071      2077      2073      2071      2077
      2066      2074      2076      2066      2074      2077      2076      2074      2077
      2071      2077      2074      2071      2077      2079      2074      2077      2079
      2083      2081      2084      2083      2081      2085      2083      2081      2086
      2084      2081      2085      2084      2081      2086      2085      2081      2086
      2081      2086      2088      2081      2086      2094      2088      2086      2094
      2086      2088      2090      2086      2088      2091      2090      2088      2091
      2088      2091      2093      2088      2091      2097      2093      2091      2097
      2086      2094      2096      2086      2094      2097      2096      2094      2097
      2091      2097      2094      2091      2097      2099      2094      2097      2099
      2103      2101      2104      2103      2101      2105      2103      2101      2106
      2104      2101      2105      2104      2101      2106      2105      2101      2106
      2101      2106      2108      2101      2106      2114      2108      2106      2114
      2106      2108      2110      2106      2108      2111      2110      2108      2111
      2108      2111      2113      2108      2111      2117      2113      2111      2117
      2106      2114      2116      2106      2114      2117      2116      2114      2117
      2111      2117      2114      2111      2117      2119      2114      2117      2119
      2123      2121      2124      2123      2121      2125      2123      2121      2126
      2124      2121      2125      2124      2121      2126      2125      2121      2126
      2121      2126      2128      2121      2126      2134      2128      2126      2134
      2126      2128      2130      2126      2128      2131      2130      2128      2131
      2128      2131      2133      2128      2131      2137      2133      2131      2137
      2126      2134      2136      2126      2134      2137      2136      2134      2137
      2131      2137      2134      2131      2137      2139      2134      2137      2139
      2143      2141      2144      2143      2141      2145      2143      2141      2146
      2144      2141      2145      2144      2141      2146      2145      2141      2146
      2141      2146      2148      2141      2146      2154      2148      2146      2154
      2146      2148      2150      2146      2148      2151      2150      2148      2151
      2148      2151      2153      2148      2151      2157      2153      2151      2157
      2146      2154      2156      2146      2154      2157      2156      2154      2157
      2151      2157      2154      2151      2157      2159      2154      2157      2159
      2163      2161      2164      2163      2161      2165      2163      2161      2166
      2164      2161      2165      2164      2161      2166      2165      2161      2166
      2161      2166      2168      2161      2166      2174      2168      2166      2174
      2166      2168      2170      2166      2168      2171      2170      2168      2171
      2168      2171      2173      2168      2171      2177      2173      2171      2177
      2166      2174      2176      2166      2174      2177      2176      2174      2177
      2171      2177      2174      2171      2177      2179      2174      2177      2179
      2183      2181      2184      2183      2181      2185      2183      2181      2186
      2184      2181      2185      2184      2181      2186      2185      2181      2186
      2181      2186      2188      2181      2186      2194      2188      2186      2194
      2186      2188      2190      2186      2188      2191      2190      2188      2191
      2188      2191      2193      2188      2191      2197      2193      2191      2197
      2186      2194      2196      2186      2194      2197      2196      2194      2197
      2191      2197      2194      2191      2197      2199      2194      2197      2199
      2203      2201      2204      2203      2201      2205      2203      2201      2206
      2204      2201      2205      2204      2201      2206      2205      2201      2206
      2201      2206      2208      2201      2206      2214      2208      2206      2214
      2206      2208      2210      2206      2208      2211      2210      2208      2211
      2208      2211      2213      2208      2211      2217      2213      2211      2217
      2206      2214      2216      2206      2214      2217      2216      2214      2217
      2211      2217      2214      2211      2217      2219      2214      2217      2219
      2223      2221      2224      2223      2221      2225      2223      2221      2226
      2224      2221      2225      2224      2221      2226      2225      2221      2226
      2221      2226      2228      2221      2226      2234      2228      2226      2234
      2226      2228      2230      2226      2228      2231      2230      2228      2231
      2228      2231      2233      2228      2231      2237      2233      2231      2237
      2226      2234      2236      2226      2234      2237      2236      2234      2237
      2231      2237      2234      2231      2237      2239      2234      2237      2239
      2243      2241      2244      2243      2241      2245      2243      2241      2246
      2244      2241      2245      2244      2241      2246      2245      2241      2246
      2241      2246      2248      2241      2246      2254      2248      2246      2254
      2246      2248      2250      2246      2248      2251      2250      2248      2251
      2248      2251      2253      2248      2251      2257      2253      2251      2257
      2246      2254      2256      2246      2254      2257      2256      2254      2257
      2251      2257      2254      2251      2257      2259      2254      2257      2259
      2263      2261      2264      2263      2261      2265      2263      2261      2266
      2264      2261      2265      2264      2261      2266      2265      2261      2266
      2261      2266      2268      2261      2266      2274      2268      2266      2274
      2266      2268      2270      2266      2268      2271      2270      2268      2271
      2268      2271      2273      2268      2271      2277      2273      2271      2277
      2266      2274      2276      2266      2274      2277      2276      2274      2277
      2271      2277      2274      2271      2277      2279      2274      2277      2279
      2283      2281      2284      2283      2281      2285      2283      2281      2286
      2284      2281      2285      2284      2281      2286      2285      2281      2286
      2281      2286      2288      2281      2286      2294      2288      2286      2294
      2286      2288      2290      2286      2288      2291      2290      2288      2291
      2288      2291      2293      2288      2291      2297      2293      2291      2297
      2286      2294      2296      2286      2294      2297      2296      2294      2297
      2291      2297      2294      2291      2297      2299      2294      2297      2299
      2303      2301      2304      2303      2301      2305      2303      2301      2306
      2304      2301      2305      2304      2301      2306      2305      2301      2306
      2301      2306      2308      2301      2306      2314      2308      2306      2314
      2306      2308      2310      2306      2308      2311      2310      2308      2311
      2308      2311      2313      2308      2311      2317      2313      2311      2317
      2306      2314      2316      2306      2314      2317      2316      2314      2317
      2311      2317      2314      2311      2317      2319      2314      2317      2319
      2323      2321      2324      2323      2321      2325      2323      2321      2326
      2324      2321      2325      2324      2321      2326      2325      2321      2326
      2321      2326      2328      2321      2326      2334      2328      2326      2334
      2326      2328      2330      2326      2328      2331      2330      2328      2331
      2328      2331      2333      2328      2331      2337      2333      2331      2337
      2326      2334      2336      2326      2334      2337      2336      2334      2337
      2331      2337      2334      2331      2337      2339      2334      2337      2339
      2343      2341      2344      2343      2341      2345      2343      2341      2346
      2344      2341      2345      2344      2341      2346      2345      2341      2346
      2341      2346      2348      2341      2346      2354      2348      2346      2354
      2346      2348      2350      2346      2348      2351      2350      2348      2351
      2348      2351      2353      2348      2351      2357      2353      2351      2357
      2346      2354      2356      2346      2354      2357      2356      2354      2357
      2351      2357      2354      2351      2357      2359      2354      2357      2359
      2363      2361      2364      2363      2361      2365      2363      2361      2366
      2364      2361      2365      2364      2361      2366      2365      2361      2366
      2361      2366      2368      2361      2366      2374      2368      2366      2374
      2366      2368      2370      2366      2368      2371      2370      2368      2371
      2368      2371      2373      2368      2371      2377      2373      2371      2377
      2366      2374      2376      2366      2374      2377      2376      2374      2377
      2371      2377      2374      2371      2377      2379      2374      2377      2379
      2383      2381      2384      2383      2381      2385      2383      2381      2386
      2384      2381      2385      2384      2381      2386      2385      2381      2386
      2381      2386      2388      2381      2386      2394      2388      2386      2394
      2386      2388      2390      2386      2388      2391      2390      2388      2391
      2388      2391      2393      2388      2391      2397      2393      2391      2397
      2386      2394      2396      2386      2394      2397      2396      2394      2397
      2391      2397      2394      2391      2397      2399      2394      2397      2399
      2403      2401      2404      2403      2401      2405      2403      2401      2406
      2404      2401      2405      2404      2401      2406      2405      2401      2406
      2401      2406      2408      2401      2406      2414      2408      2406      2414
      2406      2408      2410      2406      2408      2411      2410      2408      2411
      2408      2411      2413      2408      2411      2417      2413      2411      2417
      2406      2414      2416      2406      2414      2417      2416      2414      2417
      2411      2417      2414      2411      2417      2419      2414      2417      2419
      2423      2421      2424      2423      2421      2425      2423      2421      2426
      2424      2421      2425      2424      2421      2426      2425      2421      2426
      2421      2426      2428      2421      2426      2434      2428      2426      2434
      2426      2428      2430      2426      2428      2431      2430      2428      2431
      2428      2431      2433      2428      2431      2437      2433      2431      2437
      2426      2434      2436      2426      2434      2437      2436      2434      2437
      2431      2437      2434      2431      2437      2439      2434      2437      2439
      2443      2441      2444      2443      2441      2445      2443      2441      2446
      2444      2441      2445      2444      2441      2446      2445      2441      2446
      2441      2446      2448      2441      2446      2454      2448      2446      2454
      2446      2448      2450      2446      2448      2451      2450      2448      2451
      2448      2451      2453      2448      2451      2457      2453      2451      2457
      2446      2454      2456      2446      2454      2457      2456      2454      2457
      2451      2457      2454      2451      2457      2459      2454      2457      2459
      2463      2461      2464      2463      2461      2465      2463      2461      2466
      2464      2461      2465      2464      2461      2466      2465      2461      2466
      2461      2466      2468      2461      2466      2474      2468      2466      2474
      2466      2468      2470      2466      2468      2471      2470      2468      2471
      2468      2471      2473      2468      2471      2477      2473      2471      2477
      2466      2474      2476      2466      2474      2477      2476      2474      2477
      2471      2477      2474      2471      2477      2479      2474      2477      2479
      2483      2481      2484      2483      2481      2485      2483      2481      2486
      2484      2481      2485      2484      2481      2486      2485      2481      2486
      2481      2486      2488      2481      2486      2494      2488      2486      2494
      2486      2488      2490      2486      2488      2491      2490      2488      2491
      2488      2491      2493      2488      2491      2497      2493      2491      2497
      2486      2494      2496      2486      2494      2497      2496      2494      2497
      2491      2497      2494      2491      2497      2499      2494      2497      2499
      2503      2501      2504      2503      2501      2505      2503      2501      2506
      2504      2501      2505      2504      2501      2506      2505      2501      2506
      2501      2506      2508      2501      2506      2514      2508      2506      2514
      2506      2508      2510      2506      2508      2511      2510      2508      2511
      2508      2511      2513      2508      2511      2517      2513      2511      2517
      2506      2514      2516      2506      2514      2517      2516      2514      2517
      2511      2517      2514      2511      2517      2519      2514      2517      2519
      2523      2521      2524      2523      2521      2525      2523      2521      2526
      2524      2521      2525      2524      2521      2526      2525      2521      2526
      2521      2526      2528      2521      2526      2534      2528      2526      2534
      2526      2528      2530      2526      2528      2531      2530      2528      2531
      2528      2531      2533      2528      2531      2537      2533      2531      2537
      2526      2534      2536      2526      2534      2537      2536      2534      2537
      2531      2537      2534      2531      2537      2539      2534      2537      2539
      2543      2541      2544      2543      2541      2545      2543      2541      2546
      2544      2541      2545      2544      2541      2546      2545      2541      2546
      2541      2546      2548      2541      2546      2554      2548      2546      2554
      2546      2548      2550      2546      2548      2551      2550      2548      2551
      2548      2551      2553      2548      2551      2557      2553      2551      2557
      2546      2554      2556      2546      2554      2557      2556      2554      2557
      2551      2557      2554      2551      2557      2559      2554      2557      2559
      2563      2561      2564      2563      2561      2565      2563      2561      2566
      2564      2561      2565      2564      2561      2566      2565      2561      2566
      2561      2566      2568      2561      2566      2574      2568      2566      2574
      2566      2568      2570      2566      2568      2571      2570      2568      2571
      2568      2571      2573      2568      2571      2577      2573      2571      2577
      2566      2574      2576      2566      2574      2577      2576      2574      2577
      2571      2577      2574      2571      2577      2579      2574      2577      2579
      2583      2581      2584      2583      2581      2585      2583      2581      2586
      2584      2581      2585      2584      2581      2586      2585      2581      2586
      2581      2586      2588      2581      2586      2594      2588      2586      2594
      2586      2588      2590      2586      2588      2591      2590      2588      2591
      2588      2591      2593      2588      2591      2597      2593      2591      2597
      2586      2594      2596      2586      2594      2597      2596      2594      2597
      2591      2597      2594      2591      2597      2599      2594      2597      2599
      2603      2601      2604      2603      2601      2605      2603      2601      2606
      2604      2601      2605      2604      2601      2606      2605      2601      2606
      2601      2606      2608      2601      2606      2614      2608      2606      2614
      2606      2608      2610      2606      2608      2611      2610      2608      2611
      2608      2611      2613      2608      2611      2617      2613      2611      2617
      2606      2614      2616      2606      2614      2617      2616      2614      2617
      2611      2617      2614      2611      2617      2619      2614      2617      2619
      2623      2621      2624      2623      2621      2625      2623      2621      2626
      2624      2621      2625      2624      2621      2626      2625      2621      2626
      2621      2626      2628      2621      2626      2634      2628      2626      2634
      2626      2628      2630      2626      2628      2631      2630      2628      2631
      2628      2631      2633      2628      2631      2637      2633      2631      2637
      2626      2634      2636      2626      2634      2637      2636      2634      2637
      2631      2637      2634      2631      2637      2639      2634      2637      2639
      2643      2641      2644      2643      2641      2645      2643      2641      2646
      2644      2641      2645      2644      2641      2646      2645      2641      2646
      2641      2646      2648      2641      2646      2654      2648      2646      2654
      2646      2648      2650      2646      2648      2651      2650      2648      2651
      2648      2651      2653      2648      2651      2657      2653      2651      2657
      2646      2654      2656      2646      2654      2657      2656      2654      2657
      2651      2657      2654      2651      2657      2659      2654      2657      2659
      2663      2661      2664      2663      2661      2665      2663      2661      2666
      2664      2661      2665      2664      2661      2666      2665      2661      2666
      2661      2666      2668      2661      2666      2674      2668      2666      2674
      2666      2668      2670      2666      2668      2671      2670      2668      2671
      2668      2671      2673      2668      2671      2677      2673      2671      2677
      2666      2674      2676      2666      2674      2677      2676      2674      2677
      2671      2677      2674      2671      2677      2679      2674      2677      2679
      2683      2681      2684      2683      2681      2685      2683      2681      2686
      2684      2681      2685      2684      2681      2686      2685      2681      2686
      2681      2686      2688      2681      2686      2694      2688      2686      2694
      2686      2688      2690      2686      2688      2691      2690      2688      2691
      2688      2691      2693      2688      2691      2697      2693      2691      2697
      2686      2694      2696      2686      2694      2697      2696      2694      2697
      2691      2697      2694      2691      2697      2699      2694      2697      2699
      2703      2701      2704      2703      2701      2705      2703      2701      2706
      2704      2701      2705      2704      2701      2706      2705      2701      2706
      2701      2706      2708      2701      2706      2714      2708      2706      2714
      2706      2708      2710      2706      2708      2711      2710      2708      2711
      2708      2711      2713      2708      2711      2717      2713      2711      2717
      2706      2714      2716      2706      2714      2717      2716      2714      2717
      2711      2717      2714      2711      2717      2719      2714      2717      2719
      2723      2721      2724      2723      2721      2725      2723      2721      2726
      2724      2721      2725      2724      2721      2726      2725      2721      2726
      2721      2726      2728      2721      2726      2734      2728      2726      2734
      2726      2728      2730      2726      2728      2731      2730      2728      2731
      2728      2731      2733      2728      2731      2737      2733      2731      2737
      2726      2734      2736      2726      2734      2737      2736      2734      2737
      2731      2737      2734      2731      2737      2739      2734      2737      2739
      2743      2741      2744      2743      2741      2745      2743      2741      2746
      2744      2741      2745      2744      2741      2746      2745      2741      2746
      2741      2746      2748      2741      2746      2754      2748      2746      2754
      2746      2748      2750      2746      2748      2751      2750      2748      2751
      2748      2751      2753      2748      2751      2757      2753      2751      2757
      2746      2754      2756      2746      2754      2757      2756      2754      2757
      2751      2757      2754      2751      2757      2759      2754      2757      2759
      2763      2761      2764      2763      2761      2765      2763      2761      2766
      2764      2761      2765      2764      2761      2766      2765      2761      2766
      2761      2766      2768      2761      2766      2774      2768      2766      2774
      2766      2768      2770      2766      2768      2771      2770      2768      2771
      2768      2771      2773      2768      2771      2777      2773      2771      2777
      2766      2774      2776      2766      2774      2777      2776      2774      2777
      2771      2777      2774      2771      2777      2779      2774      2777      2779
      2783      2781      2784      2783      2781      2785      2783      2781      2786
      2784      2781      2785      2784      2781      2786      2785      2781      2786
      2781      2786      2788      2781      2786      2794      2788      2786      2794
      2786      2788      2790      2786      2788      2791      2790      2788      2791
      2788      2791      2793      2788      2791      2797      2793      2791      2797
      2786      2794      2796      2786      2794      2797      2796      2794      2797
      2791      2797      2794      2791      2797      2799      2794      2797      2799
      2803      2801      2804      2803      2801      2805      2803      2801      2806
      2804      2801      2805      2804      2801      2806      2805      2801      2806
      2801      2806      2808      2801      2806      2814      2808      2806      2814
      2806      2808      2810      2806      2808      2811      2810      2808      2811
      2808      2811      2813      2808      2811      2817      2813      2811      2817
      2806      2814      2816      2806      2814      2817      2816      2814      2817
      2811      2817      2814      2811      2817      2819      2814      2817      2819
      2823      2821      2824      2823      2821      2825      2823      2821      2826
      2824      2821      2825      2824      2821      2826      2825      2821      2826
      2821      2826      2828      2821      2826      2834      2828      2826      2834
      2826      2828      2830      2826      2828      2831      2830      2828      2831
      2828      2831      2833      2828      2831      2837      2833      2831      2837
      2826      2834      2836      2826      2834      2837      2836      2834      2837
      2831      2837      2834      2831      2837      2839      2834      2837      2839
      2843      2841      2844      2843      2841      2845      2843      2841      2846
      2844      2841      2845      2844      2841      2846      2845      2841      2846
      2841      2846      2848      2841      2846      2854      2848      2846      2854
      2846      2848      2850      2846      2848      2851      2850      2848      2851
      2848      2851      2853      2848      2851      2857      2853      2851      2857
      2846      2854      2856      2846      2854      2857      2856      2854      2857
      2851      2857      2854      2851      2857      2859      2854      2857      2859
      2863      2861      2864      2863      2861      2865      2863      2861      2866
      2864      2861      2865      2864      2861      2866      2865      2861      2866
      2861      2866      2868      2861      2866      2874      2868      2866      2874
      2866      2868      2870      2866      2868      2871      2870      2868      2871
      2868      2871      2873      2868      2871      2877      2873      2871      2877
      2866      2874      2876      2866      2874      2877      2876      2874      2877
      2871      2877      2874      2871      2877      2879      2874      2877      2879
      2883      2881      2884      2883      2881      2885      2883      2881      2886
      2884      2881      2885      2884      2881      2886      2885      2881      2886
      2881      2886      2888      2881      2886      2894      2888      2886      2894
      2886      2888      2890      2886      2888      2891      2890      2888      2891
      2888      2891      2893      2888      2891      2897      2893      2891      2897
      2886      2894      2896      2886      2894      2897      2896      2894      2897
      2891      2897      2894      2891      2897      2899      2894      2897      2899
      2903      2901      2904      2903      2901      2905      2903      2901      2906
      2904      2901      2905      2904      2901      2906      2905      2901      2906
      2901      2906      2908      2901      2906      2914      2908      2906      2914
      2906      2908      2910      2906      2908      2911      2910      2908      2911
      2908      2911      2913      2908      2911      2917      2913      2911      2917
      2906      2914      2916      2906      2914      2917      2916      2914      2917
      2911      2917      2914      2911      2917      2919      2914      2917      2919
      2923      2921      2924      2923      2921      2925      2923      2921      2926
      2924      2921      2925      2924      2921      2926      2925      2921      2926
      2921      2926      2928      2921      2926      2934      2928      2926      2934
      2926      2928      2930      2926      2928      2931      2930      2928      2931
      2928      2931      2933      2928      2931      2937      2933      2931      2937
      2926      2934      2936      2926      2934      2937      2936      2934      2937
      2931      2937      2934      2931      2937      2939      2934      2937      2939
      2943      2941      2944      2943      2941      2945      2943      2941      2946
      2944      2941      2945      2944      2941      2946      2945      2941      2946
      2941      2946      2948      2941      2946      2954      2948      2946      2954
      2946      2948      2950      2946      2948      2951      2950      2948      2951
      2948      2951      2953      2948      2951      2957      2953      2951      2957
      2946      2954      2956      2946      2954      2957      2956      2954      2957
      2951      2957      2954      2951      2957      2959      2954      2957      2959
      2963      2961      2964      2963      2961      2965      2963      2961      2966
      2964      2961      2965      2964      2961      2966      2965      2961      2966
      2961      2966      2968      2961      2966      2974      2968      2966      2974
      2966      2968      2970      2966      2968      2971      2970      2968      2971
      2968      2971      2973      2968      2971      2977      2973      2971      2977
      2966      2974      2976      2966      2974      2977      2976      2974      2977
      2971      2977      2974      2971      2977      2979      2974      2977      2979
      2983      2981      2984      2983      2981      2985      2983      2981      2986
      2984      2981      2985      2984      2981      2986      2985      2981      2986
      2981      2986      2988      2981      2986      2994      2988      2986      2994
      2986      2988      2990      2986      2988      2991      2990      2988      2991
      2988      2991      2993      2988      2991      2997      2993      2991      2997
      2986      2994      2996      2986      2994      2997      2996      2994      2997
      2991      2997      2994      2991      2997      2999      2994      2997      2999
      3003      3001      3004      3003      3001      3005      3003      3001      3006
      3004      3001      3005      3004      3001      3006      3005      3001      3006
      3001      3006      3008      3001      3006      3014      3008      3006      3014
      3006      3008      3010      3006      3008      3011      3010      3008      3011
      3008      3011      3013      3008      3011      3017      3013      3011      3017
      3006      3014      3016      3006      3014      3017      3016      3014      3017
      3011      3017      3014      3011      3017      3019      3014      3017      3019
      3023      3021      3024      3023      3021      3025      3023      3021      3026
      3024      3021      3025      3024      3021      3026      3025      3021      3026
      3021      3026      3028      3021      3026      3034      3028      3026      3034
      3026      3028      3030      3026      3028      3031      3030      3028      3031
      3028      3031      3033      3028      3031      3037      3033      3031      3037
      3026      3034      3036      3026      3034      3037      3036      3034      3037
      3031      3037      3034      3031      3037      3039      3034      3037      3039
      3043      3041      3044      3043      3041      3045      3043      3041      3046
      3044      3041      3045      3044      3041      3046      3045      3041      3046
      3041      3046      3048      3041      3046      3054      3048      3046      3054
      3046      3048      3050      3046      3048      3051      3050      3048      3051
      3048      3051      3053      3048      3051      3057      3053      3051      3057
      3046      3054      3056      3046      3054      3057      3056      3054      3057
      3051      3057      3054      3051      3057      3059      3054      3057      3059
      3063      3061      3064      3063      3061      3065      3063      3061      3066
      3064      3061      3065      3064      3061      3066      3065      3061      3066
      3061      3066      3068      3061      3066      3074      3068      3066      3074
      3066      3068      3070      3066      3068      3071      3070      3068      3071
      3068      3071      3073      3068      3071      3077      3073      3071      3077
      3066      3074      3076      3066      3074      3077      3076      3074      3077
      3071      3077      3074      3071      3077      3079      3074      3077      3079
      3083      3081      3084      3083      3081      3085      3083      3081      3086
      3084      3081      3085      3084      3081      3086      3085      3081      3086
      3081      3086      3088      3081      3086      3094      3088      3086      3094
      3086      3088      3090      3086      3088      3091      3090      3088      3091
      3088      3091      3093      3088      3091      3097      3093      3091      3097
      3086      3094      3096      3086      3094      3097      3096      3094      3097
      3091      3097      3094      3091      3097      3099      3094      3097      3099
      3103      3101      3104      3103      3101      3105      3103      3101      3106
      3104      3101      3105      3104      3101      3106      3105      3101      3106
      3101      3106      3108      3101      3106      3114      3108      3106      3114
      3106      3108      3110      3106      3108      3111      3110      3108      3111
      3108      3111      3113      3108      3111      3117      3113      3111      3117
      3106      3114      3116      3106      3114      3117      3116      3114      3117
      3111      3117      3114      3111      3117      3119      3114      3117      3119
      3123      3121      3124      3123      3121      3125      3123      3121      3126
      3124      3121      3125      3124      3121      3126      3125      3121      3126
      3121      3126      3128      3121      3126      3134      3128      3126      3134
      3126      3128      3130      3126      3128      3131      3130      3128      3131
      3128      3131      3133      3128      3131      3137      3133      3131      3137
      3126      3134      3136      3126      3134      3137      3136      3134      3137
      3131      3137      3134      3131      3137      3139      3134      3137      3139
      3143      3141      3144      3143      3141      3145      3143      3141      3146
      3144      3141      3145      3144      3141      3146      3145      3141      3146
      3141      3146      3148      3141      3146      3154      3148      3146      3154
      3146      3148      3150      3146      3148      3151      3150      3148      3151
      3148      3151      3153      3148      3151      3157      3153      3151      3157
      3146      3154      3156      3146      3154      3157      3156      3154      3157
      3151      3157      3154      3151      3157      3159      3154      3157      3159
      3163      3161      3164      3163      3161      3165      3163      3161      3166
      3164      3161      3165      3164      3161      3166      3165      3161      3166
      3161      3166      3168      3161      3166      3174      3168      3166      3174
      3166      3168      3170      3166      3168      3171      3170      3168      3171
      3168      3171      3173      3168      3171      3177      3173      3171      3177
      3166      3174      3176      3166      3174      3177      3176      3174      3177
      3171      3177      3174      3171      3177      3179      3174      3177      3179
      3183      3181      3184      3183      3181      3185      3183      3181      3186
      3184      3181      3185      3184      3181      3186      3185      3181      3186
      3181      3186      3188      3181      3186      3194      3188      3186      3194
      3186      3188      3190      3186      3188      3191      3190      3188      3191
      3188      3191      3193      3188      3191      3197      3193      3191      3197
      3186      3194      3196      3186      3194      3197      3196      3194      3197
      3191      3197      3194      3191      3197      3199      3194      3197      3199
      3203      3201      3204      3203      3201      3205      3203      3201      3206
      3204      3201      3205      3204      3201      3206      3205      3201      3206
      3201      3206      3208      3201      3206      3214      3208      3206      3214
      3206      3208      3210      3206      3208      3211      3210      3208      3211
      3208      3211      3213      3208      3211      3217      3213      3211      3217
      3206      3214      3216      3206      3214      3217      3216      3214      3217
      3211      3217      3214      3211      3217      3219      3214      3217      3219
      3223      3221      3224      3223      3221      3225      3223      3221      3226
      3224      3221      3225      3224      3221      3226      3225      3221      3226
      3221      3226      3228      3221      3226      3234      3228      3226      3234
      3226      3228      3230      3226      3228      3231      3230      3228      3231
      3228      3231      3233      3228      3231      3237      3233      3231      3237
      3226      3234      3236      3226      3234      3237      3236      3234      3237
      3231      3237      3234      3231      3237      3239      3234      3237      3239
      3243      3241      3244      3243      3241      3245      3243      3241      3246
      3244      3241      3245      3244      3241      3246      3245      3241      3246
      3241      3246      3248      3241      3246      3254      3248      3246      3254
      3246      3248      3250      3246      3248      3251      3250      3248      3251
      3248      3251      3253      3248      3251      3257      3253      3251      3257
      3246      3254      3256      3246      3254      3257      3256      3254      3257
      3251      3257      3254      3251      3257      3259      3254      3257      3259
      3263      3261      3264      3263      3261      3265      3263      3261      3266
      3264      3261      3265      3264      3261      3266      3265      3261      3266
      3261      3266      3268      3261      3266      3274      3268      3266      3274
      3266      3268      3270      3266      3268      3271      3270      3268      3271
      3268      3271      3273      3268      3271      3277      3273      3271      3277
      3266      3274      3276      3266      3274      3277      3276      3274      3277
      3271      3277      3274      3271      3277      3279      3274      3277      3279
      3283      3281      3284      3283      3281      3285      3283      3281      3286
      3284      3281      3285      3284      3281      3286      3285      3281      3286
      3281      3286      3288      3281      3286      3294      3288      3286      3294
      3286      3288      3290      3286      3288      3291      3290      3288      3291
      3288      3291      3293      3288      3291      3297      3293      3291      3297
      3286      3294      3296      3286      3294      3297      3296      3294      3297
      3291      3297      3294      3291      3297      3299      3294      3297      3299
      3303      3301      3304      3303      3301      3305      3303      3301      3306
      3304      3301      3305      3304      3301      3306      3305      3301      3306
      3301      3306      3308      3301      3306      3314      3308      3306      3314
      3306      3308      3310      3306      3308      3311      3310      3308      3311
      3308      3311      3313      3308      3311      3317      3313      3311      3317
      3306      3314      3316      3306      3314      3317      3316      3314      3317
      3311      3317      3314      3311      3317      3319      3314      3317      3319
      3323      3321      3324      3323      3321      3325      3323      3321      3326
      3324      3321      3325      3324      3321      3326      3325      3321      3326
      3321      3326      3328      3321      3326      3334      3328      3326      3334
      3326      3328      3330      3326      3328      3331      3330      3328      3331
      3328      3331      3333      3328      3331      3337      3333      3331      3337
      3326      3334      3336      3326      3334      3337      3336      3334      3337
      3331      3337      3334      3331      3337      3339      3334      3337      3339
      3343      3341      3344      3343      3341      3345      3343      3341      3346
      3344      3341      3345      3344      3341      3346      3345      3341      3346
      3341      3346      3348      3341      3346      3354      3348      3346      3354
      3346      3348      3350      3346      3348      3351      3350      3348      3351
      3348      3351      3353      3348      3351      3357      3353      3351      3357
      3346      3354      3356      3346      3354      3357      3356      3354      3357
      3351      3357      3354      3351      3357      3359      3354      3357      3359
      3363      3361      3364      3363      3361      3365      3363      3361      3366
      3364      3361      3365      3364      3361      3366      3365      3361      3366
      3361      3366      3368      3361      3366      3374      3368      3366      3374
      3366      3368      3370      3366      3368      3371      3370      3368      3371
      3368      3371      3373      3368      3371      3377      3373      3371      3377
      3366      3374      3376      3366      3374      3377      3376      3374      3377
      3371      3377      3374      3371      3377      3379      3374      3377      3379
      3383      3381      3384      3383      3381      3385      3383      3381      3386
      3384      3381      3385      3384      3381      3386      3385      3381      3386
      3381      3386      3388      3381      3386      3394      3388      3386      3394
      3386      3388      3390      3386      3388      3391      3390      3388      3391
      3388      3391      3393      3388      3391      3397      3393      3391      3397
      3386      3394      3396      3386      3394      3397      3396      3394      3397
      3391      3397      3394      3391      3397      3399      3394      3397      3399
      3403      3401      3404      3403      3401      3405      3403      3401      3406
      3404      3401      3405      3404      3401      3406      3405      3401      3406
      3401      3406      3408      3401      3406      3414      3408      3406      3414
      3406      3408      3410      3406      3408      3411      3410      3408      3411
      3408      3411      3413      3408      3411      3417      3413      3411      3417
      3406      3414      3416      3406      3414      3417      3416      3414      3417
      3411      3417      3414      3411      3417      3419      3414      3417      3419
      3423      3421      3424      3423      3421      3425      3423      3421      3426
      3424      3421      3425      3424      3421      3426      3425      3421      3426
      3421      3426      3428      3421      3426      3434      3428      3426      3434
      3426      3428      3430      3426      3428      3431      3430      3428      3431
      3428      3431      3433      3428      3431      3437      3433      3431      3437
      3426      3434      3436      3426      3434      3437      3436      3434      3437
      3431      3437      3434      3431      3437      3439      3434      3437      3439
      3443      3441      3444      3443      3441      3445      3443      3441      3446
      3444      3441      3445      3444      3441      3446      3445      3441      3446
      3441      3446      3448      3441      3446      3454      3448      3446      3454
      3446      3448      3450      3446      3448      3451      3450      3448      3451
      3448      3451      3453      3448      3451      3457      3453      3451      3457
      3446      3454      3456      3446      3454      3457      3456      3454      3457
      3451      3457      3454      3451      3457      3459      3454      3457      3459
      3463      3461      3464      3463      3461      3465      3463      3461      3466
      3464      3461      3465      3464      3461      3466      3465      3461      3466
      3461      3466      3468      3461      3466      3474      3468      3466      3474
      3466      3468      3470      3466      3468      3471      3470      3468      3471
      3468      3471      3473      3468      3471      3477      3473      3471      3477
      3466      3474      3476      3466      3474      3477      3476      3474      3477
      3471      3477      3474      3471      3477      3479      3474      3477      3479
      3483      3481      3484      3483      3481      3485      3483      3481      3486
      3484      3481      3485      3484      3481      3486      3485      3481      3486
      3481      3486      3488      3481      3486      3494      3488      3486      3494
      3486      3488      3490      3486      3488      3491      3490      3488      3491
      3488      3491      3493      3488      3491      3497      3493      3491      3497
      3486      3494      3496      3486      3494      3497      3496      3494      3497
      3491      3497      3494      3491      3497      3499      3494      3497      3499
      3503      3501      3504      3503      3501      3505      3503      3501      3506
      3504      3501      3505      3504      3501      3506      3505      3501      3506
      3501      3506      3508      3501      3506      3514      3508      3506      3514
      3506      3508      3510      3506      3508      3511      3510      3508      3511
      3508      3511      3513      3508      3511      3517      3513      3511      3517
      3506      3514      3516      3506      3514      3517      3516      3514      3517
      3511      3517      3514      3511      3517      3519      3514      3517      3519
      3523      3521      3524      3523      3521      3525      3523      3521      3526
      3524      3521      3525      3524      3521      3526      3525      3521      3526
      3521      3526      3528      3521      3526      3534      3528      3526      3534
      3526      3528      3530      3526      3528      3531      3530      3528      3531
      3528      3531      3533      3528      3531      3537      3533      3531      3537
      3526      3534      3536      3526      3534      3537      3536      3534      3537
      3531      3537      3534      3531      3537      3539      3534      3537      3539
      3543      3541      3544      3543      3541      3545      3543      3541      3546
      3544      3541      3545      3544      3541      3546      3545      3541      3546
      3541      3546      3548      3541      3546      3554      3548      3546      3554
      3546      3548      3550      3546      3548      3551      3550      3548      3551
      3548      3551      3553      3548      3551      3557      3553      3551      3557
      3546      3554      3556      3546      3554      3557      3556      3554      3557
      3551      3557      3554      3551      3557      3559      3554      3557      3559
      3563      3561      3564      3563      3561      3565      3563      3561      3566
      3564      3561      3565      3564      3561      3566      3565      3561      3566
      3561      3566      3568      3561      3566      3574      3568      3566      3574
      3566      3568      3570      3566      3568      3571      3570      3568      3571
      3568      3571      3573      3568      3571      3577      3573      3571      3577
      3566      3574      3576      3566      3574      3577      3576      3574      3577
      3571      3577      3574      3571      3577      3579      3574      3577      3579
      3583      3581      3584      3583      3581      3585      3583      3581      3586
      3584      3581      3585      3584      3581      3586      3585      3581      3586
      3581      3586      3588      3581      3586      3594      3588      3586      3594
      3586      3588      3590      3586      3588      3591      3590      3588      3591
      3588      3591      3593      3588      3591      3597      3593      3591      3597
      3586      3594      3596      3586      3594      3597      3596      3594      3597
      3591      3597      3594      3591      3597      3599      3594      3597      3599
      3603      3601      3604      3603      3601      3605      3603      3601      3606
      3604      3601      3605      3604      3601      3606      3605      3601      3606
      3601      3606      3608      3601      3606      3614      3608      3606      3614
      3606      3608      3610      3606      3608      3611      3610      3608      3611
      3608      3611      3613      3608      3611      3617      3613      3611      3617
      3606      3614      3616      3606      3614      3617      3616      3614      3617
      3611      3617      3614      3611      3617      3619      3614      3617      3619
      3623      3621      3624      3623      3621      3625      3623      3621      3626
      3624      3621      3625      3624      3621      3626      3625      3621      3626
      3621      3626      3628      3621      3626      3634      3628      3626      3634
      3626      3628      3630      3626      3628      3631      3630      3628      3631
      3628      3631      3633      3628      3631      3637      3633      3631      3637
      3626      3634      3636      3626      3634      3637      3636      3634      3637
      3631      3637      3634      3631      3637      3639      3634      3637      3639
      3643      3641      3644      3643      3641      3645      3643      3641      3646
      3644      3641      3645      3644      3641      3646      3645      3641      3646
      3641      3646      3648      3641      3646      3654      3648      3646      3654
      3646      3648      3650      3646      3648      3651      3650      3648      3651
      3648      3651      3653      3648      3651      3657      3653      3651      3657
      3646      3654      3656      3646      3654      3657      3656      3654      3657
      3651      3657      3654      3651      3657      3659      3654      3657      3659
      3663      3661      3664      3663      3661      3665      3663      3661      3666
      3664      3661      3665      3664      3661      3666      3665      3661      3666
      3661      3666      3668      3661      3666      3674      3668      3666      3674
      3666      3668      3670      3666      3668      3671      3670      3668      3671
      3668      3671      3673      3668      3671      3677      3673      3671      3677
      3666      3674      3676      3666      3674      3677      3676      3674      3677
      3671      3677      3674      3671      3677      3679      3674      3677      3679
      3683      3681      3684      3683      3681      3685      3683      3681      3686
      3684      3681      3685      3684      3681      3686      3685      3681      3686
      3681      3686      3688      3681      3686      3694      3688      3686      3694
      3686      3688      3690      3686      3688      3691      3690      3688      3691
      3688      3691      3693      3688      3691      3697      3693      3691      3697
      3686      3694      3696      3686      3694      3697      3696      3694      3697
      3691      3697      3694      3691      3697      3699      3694      3697      3699
      3703      3701      3704      3703      3701      3705      3703      3701      3706
      3704      3701      3705      3704      3701      3706      3705      3701      3706
      3701      3706      3708      3701      3706      3714      3708      3706      3714
      3706      3708      3710      3706      3708      3711      3710      3708      3711
      3708      3711      3713      3708      3711      3717      3713      3711      3717
      3706      3714      3716      3706      3714      3717      3716      3714      3717
      3711      3717      3714      3711      3717      3719      3714      3717      3719
      3723      3721      3724      3723      3721      3725      3723      3721      3726
      3724      3721      3725      3724      3721      3726      3725      3721      3726
      3721      3726      3728      3721      3726      3734      3728      3726      3734
      3726      3728      3730      3726      3728      3731      3730      3728      3731
      3728      3731      3733      3728      3731      3737      3733      3731      3737
      3726      3734      3736      3726      3734      3737      3736      3734      3737
      3731      3737      3734      3731      3737      3739      3734      3737      3739
      3743      3741      3744      3743      3741      3745      3743      3741      3746
      3744      3741      3745      3744      3741      3746      3745      3741      3746
      3741      3746      3748      3741      3746      3754      3748      3746      3754
      3746      3748      3750      3746      3748      3751      3750      3748      3751
      3748      3751      3753      3748      3751      3757      3753      3751      3757
      3746      3754      3756      3746      3754      3757      3756      3754      3757
      3751      3757      3754      3751      3757      3759      3754      3757      3759
      3763      3761      3764      3763      3761      3765      3763      3761      3766
      3764      3761      3765      3764      3761      3766      3765      3761      3766
      3761      3766      3768      3761      3766      3774      3768      3766      3774
      3766      3768      3770      3766      3768      3771      3770      3768      3771
      3768      3771      3773      3768      3771      3777      3773      3771      3777
      3766      3774      3776      3766      3774      3777      3776      3774      3777
      3771      3777      3774      3771      3777      3779      3774      3777      3779
      3783      3781      3784      3783      3781      3785      3783      3781      3786
      3784      3781      3785      3784      3781      3786      3785      3781      3786
      3781      3786      3788      3781      3786      3794      3788      3786      3794
      3786      3788      3790      3786      3788      3791      3790      3788      3791
      3788      3791      3793      3788      3791      3797      3793      3791      3797
      3786      3794      3796      3786      3794      3797      3796      3794      3797
      3791      3797      3794      3791      3797      3799      3794      3797      3799
      3803      3801      3804      3803      3801      3805      3803      3801      3806
      3804      3801      3805      3804      3801      3806      3805      3801      3806
      3801      3806      3808      3801      3806      3814      3808      3806      3814
      3806      3808      3810      3806      3808      3811      3810      3808      3811
      3808      3811      3813      3808      3811      3817      3813      3811      3817
      3806      3814      3816      3806      3814      3817      3816      3814      3817
      3811      3817      3814      3811      3817      3819      3814      3817      3819
      3823      3821      3824      3823      3821      3825      3823      3821      3826
      3824      3821      3825      3824      3821      3826      3825      3821      3826
      3821      3826      3828      3821      3826      3834      3828      3826      3834
      3826      3828      3830      3826      3828      3831      3830      3828      3831
      3828      3831      3833      3828      3831      3837      3833      3831      3837
      3826      3834      3836      3826      3834      3837      3836      3834      3837
      3831      3837      3834      3831      3837      3839      3834      3837      3839
      3843      3841      3844      3843      3841      3845      3843      3841      3846
      3844      3841      3845      3844      3841      3846      3845      3841      3846
      3841      3846      3848      3841      3846      3854      3848      3846      3854
      3846      3848      3850      3846      3848      3851      3850      3848      3851
      3848      3851      3853      3848      3851      3857      3853      3851      3857
      3846      3854      3856      3846      3854      3857      3856      3854      3857
      3851      3857      3854      3851      3857      3859      3854      3857      3859
      3863      3861      3864      3863      3861      3865      3863      3861      3866
      3864      3861      3865      3864      3861      3866      3865      3861      3866
      3861      3866      3868      3861      3866      3874      3868      3866      3874
      3866      3868      3870      3866      3868      3871      3870      3868      3871
      3868      3871      3873      3868      3871      3877      3873      3871      3877
      3866      3874      3876      3866      3874      3877      3876      3874      3877
      3871      3877      3874      3871      3877      3879      3874      3877      3879
      3883      3881      3884      3883      3881      3885      3883      3881      3886
      3884      3881      3885      3884      3881      3886      3885      3881      3886
      3881      3886      3888      3881      3886      3894      3888      3886      3894
      3886      3888      3890      3886      3888      3891      3890      3888      3891
      3888      3891      3893      3888      3891      3897      3893      3891      3897
      3886      3894      3896      3886      3894      3897      3896      3894      3897
      3891      3897      3894      3891      3897      3899      3894      3897      3899
      3903      3901      3904      3903      3901      3905      3903      3901      3906
      3904      3901      3905      3904      3901      3906      3905      3901      3906
      3901      3906      3908      3901      3906      3914      3908      3906      3914
      3906      3908      3910      3906      3908      3911      3910      3908      3911
      3908      3911      3913      3908      3911      3917      3913      3911      3917
      3906      3914      3916      3906      3914      3917      3916      3914      3917
      3911      3917      3914      3911      3917      3919      3914      3917      3919
      3923      3921      3924      3923      3921      3925      3923      3921      3926
      3924      3921      3925      3924      3921      3926      3925      3921      3926
      3921      3926      3928      3921      3926      3934      3928      3926      3934
      3926      3928      3930      3926      3928      3931      3930      3928      3931
      3928      3931      3933      3928      3931      3937      3933      3931      3937
      3926      3934      3936      3926      3934      3937      3936      3934      3937
      3931      3937      3934      3931      3937      3939      3934      3937      3939
      3943      3941      3944      3943      3941      3945      3943      3941      3946
      3944      3941      3945      3944      3941      3946      3945      3941      3946
      3941      3946      3948      3941      3946      3954      3948      3946      3954
      3946      3948      3950      3946      3948      3951      3950      3948      3951
      3948      3951      3953      3948      3951      3957      3953      3951      3957
      3946      3954      3956      3946      3954      3957      3956      3954      3957
      3951      3957      3954      3951      3957      3959      3954      3957      3959
      3963      3961      3964      3963      3961      3965      3963      3961      3966
      3964      3961      3965      3964      3961      3966      3965      3961      3966
      3961      3966      3968      3961      3966      3974      3968      3966      3974
      3966      3968      3970      3966      3968      3971      3970      3968      3971
      3968      3971      3973      3968      3971      3977      3973      3971      3977
      3966      3974      3976      3966      3974      3977      3976      3974      3977
      3971      3977      3974      3971      3977      3979      3974      3977      3979
      3983      3981      3984      3983      3981      3985      3983      3981      3986
      3984      3981      3985      3984      3981      3986      3985      3981      3986
      3981      3986      3988      3981      3986      3994      3988      3986      3994
      3986      3988      3990      3986      3988      3991      3990      3988      3991
      3988      3991      3993      3988      3991      3997      3993      3991      3997
      3986      3994      3996      3986      3994      3997      3996      3994      3997
      3991      3997      3994      3991      3997      3999      3994      3997      3999
      4003      4001      4004      4003      4001      4005      4003      4001      4006
      4004      4001      4005      4004      4001      4006      4005      4001      4006
      4001      4006      4008      4001      4006      4014      4008      4006      4014
      4006      4008      4010      4006      4008      4011      4010      4008      4011
      4008      4011      4013      4008      4011      4017      4013      4011      4017
      4006      4014      4016      4006      4014      4017      4016      4014      4017
      4011      4017      4014      4011      4017      4019      4014      4017      4019
      4023      4021      4024      4023      4021      4025      4023      4021      4026
      4024      4021      4025      4024      4021      4026      4025      4021      4026
      4021      4026      4028      4021      4026      4034      4028      4026      4034
      4026      4028      4030      4026      4028      4031      4030      4028      4031
      4028      4031      4033      4028      4031      4037      4033      4031      4037
      4026      4034      4036      4026      4034      4037      4036      4034      4037
      4031      4037      4034      4031      4037      4039      4034      4037      4039
      4043      4041      4044      4043      4041      4045      4043      4041      4046
      4044      4041      4045      4044      4041      4046      4045      4041      4046
      4041      4046      4048      4041      4046      4054      4048      4046      4054
      4046      4048      4050      4046      4048      4051      4050      4048      4051
      4048      4051      4053      4048      4051      4057      4053      4051      4057
      4046      4054      4056      4046      4054      4057      4056      4054      4057
      4051      4057      4054      4051      4057      4059      4054      4057      4059
      4063      4061      4064      4063      4061      4065      4063      4061      4066
      4064      4061      4065      4064      4061      4066      4065      4061      4066
      4061      4066      4068      4061      4066      4074      4068      4066      4074
      4066      4068      4070      4066      4068      4071      4070      4068      4071
      4068      4071      4073      4068      4071      4077      4073      4071      4077
      4066      4074      4076      4066      4074      4077      4076      4074      4077
      4071      4077      4074      4071      4077      4079      4074      4077      4079
      4083      4081      4084      4083      4081      4085      4083      4081      4086
      4084      4081      4085      4084      4081      4086      4085      4081      4086
      4081      4086      4088      4081      4086      4094      4088      4086      4094
      4086      4088      4090      4086      4088      4091      4090      4088      4091
      4088      4091      4093      4088      4091      4097      4093      4091      4097
      4086      4094      4096      4086      4094      4097      4096      4094      4097
      4091      4097      4094      4091      4097      4099      4094      4097      4099
      4103      4101      4104      4103      4101      4105      4103      4101      4106
      4104      4101      4105      4104      4101      4106      4105      4101      4106
      4101      4106      4108      4101      4106      4114      4108      4106      4114
      4106      4108      4110      4106      4108      4111      4110      4108      4111
      4108      4111      4113      4108      4111      4117      4113      4111      4117
      4106      4114      4116      4106      4114      4117      4116      4114      4117
      4111      4117      4114      4111      4117      4119      4114      4117      4119
      4123      4121      4124      4123      4121      4125      4123      4121      4126
      4124      4121      4125      4124      4121      4126      4125      4121      4126
      4121      4126      4128      4121      4126      4134      4128      4126      4134
      4126      4128      4130      4126      4128      4131      4130      4128      4131
      4128      4131      4133      4128      4131      4137      4133      4131      4137
      4126      4134      4136      4126      4134      4137      4136      4134      4137
      4131      4137      4134      4131      4137      4139      4134      4137      4139
      4143      4141      4144      4143      4141      4145      4143      4141      4146
      4144      4141      4145      4144      4141      4146      4145      4141      4146
      4141      4146      4148      4141      4146      4154      4148      4146      4154
      4146      4148      4150      4146      4148      4151      4150      4148      4151
      4148      4151      4153      4148      4151      4157      4153      4151      4157
      4146      4154      4156      4146      4154      4157      4156      4154      4157
      4151      4157      4154      4151      4157      4159      4154      4157      4159
      4163      4161      4164      4163      4161      4165      4163      4161      4166
      4164      4161      4165      4164      4161      4166      4165      4161      4166
      4161      4166      4168      4161      4166      4174      4168      4166      4174
      4166      4168      4170      4166      4168      4171      4170      4168      4171
      4168      4171      4173      4168      4171      4177      4173      4171      4177
      4166      4174      4176      4166      4174      4177      4176      4174      4177
      4171      4177      4174      4171      4177      4179      4174      4177      4179
      4183      4181      4184      4183      4181      4185      4183      4181      4186
      4184      4181      4185      4184      4181      4186      4185      4181      4186
      4181      4186      4188      4181      4186      4194      4188      4186      4194
      4186      4188      4190      4186      4188      4191      4190      4188      4191
      4188      4191      4193      4188      4191      4197      4193      4191      4197
      4186      4194      4196      4186      4194      4197      4196      4194      4197
      4191      4197      4194      4191      4197      4199      4194      4197      4199
      4203      4201      4204      4203      4201      4205      4203      4201      4206
      4204      4201      4205      4204      4201      4206      4205      4201      4206
      4201      4206      4208      4201      4206      4214      4208      4206      4214
      4206      4208      4210      4206      4208      4211      4210      4208      4211
      4208      4211      4213      4208      4211      4217      4213      4211      4217
      4206      4214      4216      4206      4214      4217      4216      4214      4217
      4211      4217      4214      4211      4217      4219      4214      4217      4219
      4223      4221      4224      4223      4221      4225      4223      4221      4226
      4224      4221      4225      4224      4221      4226      4225      4221      4226
      4221      4226      4228      4221      4226      4234      4228      4226      4234
      4226      4228      4230      4226      4228      4231      4230      4228      4231
      4228      4231      4233      4228      4231      4237      4233      4231      4237
      4226      4234      4236      4226      4234      4237      4236      4234      4237
      4231      4237      4234      4231      4237      4239      4234      4237      4239
      4243      4241      4244      4243      4241      4245      4243      4241      4246
      4244      4241      4245      4244      4241      4246      4245      4241      4246
      4241      4246      4248      4241      4246      4254      4248      4246      4254
      4246      4248      4250      4246      4248      4251      4250      4248      4251
      4248      4251      4253      4248      4251      4257      4253      4251      4257
      4246      4254      4256      4246      4254      4257      4256      4254      4257
      4251      4257      4254      4251      4257      4259      4254      4257      4259
      4263      4261      4264      4263      4261      4265      4263      4261      4266
      4264      4261      4265      4264      4261      4266      4265      4261      4266
      4261      4266      4268      4261      4266      4274      4268      4266      4274
      4266      4268      4270      4266      4268      4271      4270      4268      4271
      4268      4271      4273      4268      4271      4277      4273      4271      4277
      4266      4274      4276      4266      4274      4277      4276      4274      4277
      4271      4277      4274      4271      4277      4279      4274      4277      4279
      4283      4281      4284      4283      4281      4285      4283      4281      4286
      4284      4281      4285      4284      4281      4286      4285      4281      4286
      4281      4286      4288      4281      4286      4294      4288      4286      4294
      4286      4288      4290      4286      4288      4291      4290      4288      4291
      4288      4291      4293      4288      4291      4297      4293      4291      4297
      4286      4294      4296      4286      4294      4297      4296      4294      4297
      4291      4297      4294      4291      4297      4299      4294      4297      4299
      4303      4301      4304      4303      4301      4305      4303      4301      4306
      4304      4301      4305      4304      4301      4306      4305      4301      4306
      4301      4306      4308      4301      4306      4314      4308      4306      4314
      4306      4308      4310      4306      4308      4311      4310      4308      4311
      4308      4311      4313      4308      4311      4317      4313      4311      4317
      4306      4314      4316      4306      4314      4317      4316      4314      4317
      4311      4317      4314      4311      4317      4319      4314      4317      4319
      4323      4321      4324      4323      4321      4325      4323      4321      4326
      4324      4321      4325      4324      4321      4326      4325      4321      4326
      4321      4326      4328      4321      4326      4334      4328      4326      4334
      4326      4328      4330      4326      4328      4331      4330      4328      4331
      4328      4331      4333      4328      4331      4337      4333      4331      4337
      4326      4334      4336      4326      4334      4337      4336      4334      4337
      4331      4337      4334      4331      4337      4339      4334      4337      4339
      4343      4341      4344      4343      4341      4345      4343      4341      4346
      4344      4341      4345      4344      4341      4346      4345      4341      4346
      4341      4346      4348      4341      4346      4354      4348      4346      4354
      4346      4348      4350      4346      4348      4351      4350      4348      4351
      4348      4351      4353      4348      4351      4357      4353      4351      4357
      4346      4354      4356      4346      4354      4357      4356      4354      4357
      4351      4357      4354      4351      4357      4359      4354      4357      4359
      4363      4361      4364      4363      4361      4365      4363      4361      4366
      4364      4361      4365      4364      4361      4366      4365      4361      4366
      4361      4366      4368      4361      4366      4374      4368      4366      4374
      4366      4368      4370      4366      4368      4371      4370      4368      4371
      4368      4371      4373      4368      4371      4377      4373      4371      4377
      4366      4374      4376      4366      4374      4377      4376      4374      4377
      4371      4377      4374      4371      4377      4379      4374      4377      4379
      4383      4381      4384      4383      4381      4385      4383      4381      4386
      4384      4381      4385      4384      4381      4386      4385      4381      4386
      4381      4386      4388      4381      4386      4394      4388      4386      4394
      4386      4388      4390      4386      4388      4391      4390      4388      4391
      4388      4391      4393      4388      4391      4397      4393      4391      4397
      4386      4394      4396      4386      4394      4397      4396      4394      4397
      4391      4397      4394      4391      4397      4399      4394      4397      4399
      4403      4401      4404      4403      4401      4405      4403      4401      4406
      4404      4401      4405      4404      4401      4406      4405      4401      4406
      4401      4406      4408      4401      4406      4414      4408      4406      4414
      4406      4408      4410      4406      4408      4411      4410      4408      4411
      4408      4411      4413      4408      4411      4417      4413      4411      4417
      4406      4414      4416      4406      4414      4417      4416      4414      4417
      4411      4417      4414      4411      4417      4419      4414      4417      4419
      4423      4421      4424      4423      4421      4425      4423      4421      4426
      4424      4421      4425      4424      4421      4426      4425      4421      4426
      4421      4426      4428      4421      4426      4434      4428      4426      4434
      4426      4428      4430      4426      4428      4431      4430      4428      4431
      4428      4431      4433      4428      4431      4437      4433      4431      4437
      4426      4434      4436      4426      4434      4437      4436      4434      4437
      4431      4437      4434      4431      4437      4439      4434      4437      4439
      4443      4441      4444      4443      4441      4445      4443      4441      4446
      4444      4441      4445      4444      4441      4446      4445      4441      4446
      4441      4446      4448      4441      4446      4454      4448      4446      4454
      4446      4448      4450      4446      4448      4451      4450      4448      4451
      4448      4451      4453      4448      4451      4457      4453      4451      4457
      4446      4454      4456      4446      4454      4457      4456      4454      4457
      4451      4457      4454      4451      4457      4459      4454      4457      4459
      4463      4461      4464      4463      4461      4465      4463      4461      4466
      4464      4461      4465      4464      4461      4466      4465      4461      4466
      4461      4466      4468      4461      4466      4474      4468      4466      4474
      4466      4468      4470      4466      4468      4471      4470      4468      4471
      4468      4471      4473      4468      4471      4477      4473      4471      4477
      4466      4474      4476      4466      4474      4477      4476      4474      4477
      4471      4477      4474      4471      4477      4479      4474      4477      4479
      4483      4481      4484      4483      4481      4485      4483      4481      4486
      4484      4481      4485      4484      4481      4486      4485      4481      4486
      4481      4486      4488      4481      4486      4494      4488      4486      4494
      4486      4488      4490      4486      4488      4491      4490      4488      4491
      4488      4491      4493      4488      4491      4497      4493      4491      4497
      4486      4494      4496      4486      4494      4497      4496      4494      4497
      4491      4497      4494      4491      4497      4499      4494      4497      4499
      4503      4501      4504      4503      4501      4505      4503      4501      4506
      4504      4501      4505      4504      4501      4506      4505      4501      4506
      4501      4506      4508      4501      4506      4514      4508      4506      4514
      4506      4508      4510      4506      4508      4511      4510      4508      4511
      4508      4511      4513      4508      4511      4517      4513      4511      4517
      4506      4514      4516      4506      4514      4517      4516      4514      4517
      4511      4517      4514      4511      4517      4519      4514      4517      4519
      4523      4521      4524      4523      4521      4525      4523      4521      4526
      4524      4521      4525      4524      4521      4526      4525      4521      4526
      4521      4526      4528      4521      4526      4534      4528      4526      4534
      4526      4528      4530      4526      4528      4531      4530      4528      4531
      4528      4531      4533      4528      4531      4537      4533      4531      4537
      4526      4534      4536      4526      4534      4537      4536      4534      4537
      4531      4537      4534      4531      4537      4539      4534      4537      4539
      4543      4541      4544      4543      4541      4545      4543      4541      4546
      4544      4541      4545      4544      4541      4546      4545      4541      4546
      4541      4546      4548      4541      4546      4554      4548      4546      4554
      4546      4548      4550      4546      4548      4551      4550      4548      4551
      4548      4551      4553      4548      4551      4557      4553      4551      4557
      4546      4554      4556      4546      4554      4557      4556      4554      4557
      4551      4557      4554      4551      4557      4559      4554      4557      4559
      4563      4561      4564      4563      4561      4565      4563      4561      4566
      4564      4561      4565      4564      4561      4566      4565      4561      4566
      4561      4566      4568      4561      4566      4574      4568      4566      4574
      4566      4568      4570      4566      4568      4571      4570      4568      4571
      4568      4571      4573      4568      4571      4577      4573      4571      4577
      4566      4574      4576      4566      4574      4577      4576      4574      4577
      4571      4577      4574      4571      4577      4579      4574      4577      4579
      4583      4581      4584      4583      4581      4585      4583      4581      4586
      4584      4581      4585      4584      4581      4586      4585      4581      4586
      4581      4586      4588      4581      4586      4594      4588      4586      4594
      4586      4588      4590      4586      4588      4591      4590      4588      4591
      4588      4591      4593      4588      4591      4597      4593      4591      4597
      4586      4594      4596      4586      4594      4597      4596      4594      4597
      4591      4597      4594      4591      4597      4599      4594      4597      4599
      4603      4601      4604      4603      4601      4605      4603      4601      4606
      4604      4601      4605      4604      4601      4606      4605      4601      4606
      4601      4606      4608      4601      4606      4614      4608      4606      4614
      4606      4608      4610      4606      4608      4611      4610      4608      4611
      4608      4611      4613      4608      4611      4617      4613      4611      4617
      4606      4614      4616      4606      4614      4617      4616      4614      4617
      4611      4617      4614      4611      4617      4619      4614      4617      4619
      4623      4621      4624      4623      4621      4625      4623      4621      4626
      4624      4621      4625      4624      4621      4626      4625      4621      4626
      4621      4626      4628      4621      4626      4634      4628      4626      4634
      4626      4628      4630      4626      4628      4631      4630      4628      4631
      4628      4631      4633      4628      4631      4637      4633      4631      4637
      4626      4634      4636      4626      4634      4637      4636      4634      4637
      4631      4637      4634      4631      4637      4639      4634      4637      4639
      4643      4641      4644      4643      4641      4645      4643      4641      4646
      4644      4641      4645      4644      4641      4646      4645      4641      4646
      4641      4646      4648      4641      4646      4654      4648      4646      4654
      4646      4648      4650      4646      4648      4651      4650      4648      4651
      4648      4651      4653      4648      4651      4657      4653      4651      4657
      4646      4654      4656      4646      4654      4657      4656      4654      4657
      4651      4657      4654      4651      4657      4659      4654      4657      4659
      4663      4661      4664      4663      4661      4665      4663      4661      4666
      4664      4661      4665      4664      4661      4666      4665      4661      4666
      4661      4666      4668      4661      4666      4674      4668      4666      4674
      4666      4668      4670      4666      4668      4671      4670      4668      4671
      4668      4671      4673      4668      4671      4677      4673      4671      4677
      4666      4674      4676      4666      4674      4677      4676      4674      4677
      4671      4677      4674      4671      4677      4679      4674      4677      4679
      4683      4681      4684      4683      4681      4685      4683      4681      4686
      4684      4681      4685      4684      4681      4686      4685      4681      4686
      4681      4686      4688      4681      4686      4694      4688      4686      4694
      4686      4688      4690      4686      4688      4691      4690      4688      4691
      4688      4691      4693      4688      4691      4697      4693      4691      4697
      4686      4694      4696      4686      4694      4697      4696      4694      4697
      4691      4697      4694      4691      4697      4699      4694      4697      4699
      4703      4701      4704      4703      4701      4705      4703      4701      4706
      4704      4701      4705      4704      4701      4706      4705      4701      4706
      4701      4706      4708      4701      4706      4714      4708      4706      4714
      4706      4708      4710      4706      4708      4711      4710      4708      4711
      4708      4711      4713      4708      4711      4717      4713      4711      4717
      4706      4714      4716      4706      4714      4717      4716      4714      4717
      4711      4717      4714      4711      4717      4719      4714      4717      4719
      4723      4721      4724      4723      4721      4725      4723      4721      4726
      4724      4721      4725      4724      4721      4726      4725      4721      4726
      4721      4726      4728      4721      4726      4734      4728      4726      4734
      4726      4728      4730      4726      4728      4731      4730      4728      4731
      4728      4731      4733      4728      4731      4737      4733      4731      4737
      4726      4734      4736      4726      4734      4737      4736      4734      4737
      4731      4737      4734      4731      4737      4739      4734      4737      4739
      4743      4741      4744      4743      4741      4745      4743      4741      4746
      4744      4741      4745      4744      4741      4746      4745      4741      4746
      4741      4746      4748      4741      4746      4754      4748      4746      4754
      4746      4748      4750      4746      4748      4751      4750      4748      4751
      4748      4751      4753      4748      4751      4757      4753      4751      4757
      4746      4754      4756      4746      4754      4757      4756      4754      4757
      4751      4757      4754      4751      4757      4759      4754      4757      4759
      4763      4761      4764      4763      4761      4765      4763      4761      4766
      4764      4761      4765      4764      4761      4766      4765      4761      4766
      4761      4766      4768      4761      4766      4774      4768      4766      4774
      4766      4768      4770      4766      4768      4771      4770      4768      4771
      4768      4771      4773      4768      4771      4777      4773      4771      4777
      4766      4774      4776      4766      4774      4777      4776      4774      4777
      4771      4777      4774      4771      4777      4779      4774      4777      4779
      4783      4781      4784      4783      4781      4785      4783      4781      4786
      4784      4781      4785      4784      4781      4786      4785      4781      4786
      4781      4786      4788      4781      4786      4794      4788      4786      4794
      4786      4788      4790      4786      4788      4791      4790      4788      4791
      4788      4791      4793      4788      4791      4797      4793      4791      4797
      4786      4794      4796      4786      4794      4797      4796      4794      4797
      4791      4797      4794      4791      4797      4799      4794      4797      4799
      4803      4801      4804      4803      4801      4805      4803      4801      4806
      4804      4801      4805      4804      4801      4806      4805      4801      4806
      4801      4806      4808      4801      4806      4814      4808      4806      4814
      4806      4808      4810      4806      4808      4811      4810      4808      4811
      4808      4811      4813      4808      4811      4817      4813      4811      4817
      4806      4814      4816      4806      4814      4817      4816      4814      4817
      4811      4817      4814      4811      4817      4819      4814      4817      4819
      4823      4821      4824      4823      4821      4825      4823      4821      4826
      4824      4821      4825      4824      4821      4826      4825      4821      4826
      4821      4826      4828      4821      4826      4834      4828      4826      4834
      4826      4828      4830      4826      4828      4831      4830      4828      4831
      4828      4831      4833      4828      4831      4837      4833      4831      4837
      4826      4834      4836      4826      4834      4837      4836      4834      4837
      4831      4837      4834      4831      4837      4839      4834      4837      4839
      4843      4841      4844      4843      4841      4845      4843      4841      4846
      4844      4841      4845      4844      4841      4846      4845      4841      4846
      4841      4846      4848      4841      4846      4854      4848      4846      4854
      4846      4848      4850      4846      4848      4851      4850      4848      4851
      4848      4851      4853      4848      4851      4857      4853      4851      4857
      4846      4854      4856      4846      4854      4857      4856      4854      4857
      4851      4857      4854      4851      4857      4859      4854      4857      4859
      4863      4861      4864      4863      4861      4865      4863      4861      4866
      4864      4861      4865      4864      4861      4866      4865      4861      4866
      4861      4866      4868      4861      4866      4874      4868      4866      4874
      4866      4868      4870      4866      4868      4871      4870      4868      4871
      4868      4871      4873      4868      4871      4877      4873      4871      4877
      4866      4874      4876      4866      4874      4877      4876      4874      4877
      4871      4877      4874      4871      4877      4879      4874      4877      4879
      4883      4881      4884      4883      4881      4885      4883      4881      4886
      4884      4881      4885      4884      4881      4886      4885      4881      4886
      4881      4886      4888      4881      4886      4894      4888      4886      4894
      4886      4888      4890      4886      4888      4891      4890      4888      4891
      4888      4891      4893      4888      4891      4897      4893      4891      4897
      4886      4894      4896      4886      4894      4897      4896      4894      4897
      4891      4897      4894      4891      4897      4899      4894      4897      4899
      4903      4901      4904      4903      4901      4905      4903      4901      4906
      4904      4901      4905      4904      4901      4906      4905      4901      4906
      4901      4906      4908      4901      4906      4914      4908      4906      4914
      4906      4908      4910      4906      4908      4911      4910      4908      4911
      4908      4911      4913      4908      4911      4917      4913      4911      4917
      4906      4914      4916      4906      4914      4917      4916      4914      4917
      4911      4917      4914      4911      4917      4919      4914      4917      4919
      4923      4921      4924      4923      4921      4925      4923      4921      4926
      4924      4921      4925      4924      4921      4926      4925      4921      4926
      4921      4926      4928      4921      4926      4934      4928      4926      4934
      4926      4928      4930      4926      4928      4931      4930      4928      4931
      4928      4931      4933      4928      4931      4937      4933      4931      4937
      4926      4934      4936      4926      4934      4937      4936      4934      4937
      4931      4937      4934      4931      4937      4939      4934      4937      4939
      4943      4941      4944      4943      4941      4945      4943      4941      4946
      4944      4941      4945      4944      4941      4946      4945      4941      4946
      4941      4946      4948      4941      4946      4954      4948      4946      4954
      4946      4948      4950      4946      4948      4951      4950      4948      4951
      4948      4951      4953      4948      4951      4957      4953      4951      4957
      4946      4954      4956      4946      4954      4957      4956      4954      4957
      4951      4957      4954      4951      4957      4959      4954      4957      4959
      4963      4961      4964      4963      4961      4965      4963      4961      4966
      4964      4961      4965      4964      4961      4966      4965      4961      4966
      4961      4966      4968      4961      4966      4974      4968      4966      4974
      4966      4968      4970      4966      4968      4971      4970      4968      4971
      4968      4971      4973      4968      4971      4977      4973      4971      4977
      4966      4974      4976      4966      4974      4977      4976      4974      4977
      4971      4977      4974      4971      4977      4979      4974      4977      4979
      4983      4981      4984      4983      4981      4985      4983      4981      4986
      4984      4981      4985      4984      4981      4986      4985      4981      4986
      4981      4986      4988      4981      4986      4994      4988      4986      4994
      4986      4988      4990      4986      4988      4991      4990      4988      4991
      4988      4991      4993      4988      4991      4997      4993      4991      4997
      4986      4994      4996      4986      4994      4997      4996      4994      4997
      4991      4997      4994      4991      4997      4999      4994      4997      4999
      5003      5001      5004      5003      5001      5005      5003      5001      5006
      5004      5001      5005      5004      5001      5006      5005      5001      5006
      5001      5006      5008      5001      5006      5014      5008      5006      5014
      5006      5008      5010      5006      5008      5011      5010      5008      5011
      5008      5011      5013      5008      5011      5017      5013      5011      5017
      5006      5014      5016      5006      5014      5017      5016      5014      5017
      5011      5017      5014      5011      5017      5019      5014      5017      5019
      5023      5021      5024      5023      5021      5025      5023      5021      5026
      5024      5021      5025      5024      5021      5026      5025      5021      5026
      5021      5026      5028      5021      5026      5034      5028      5026      5034
      5026      5028      5030      5026      5028      5031      5030      5028      5031
      5028      5031      5033      5028      5031      5037      5033      5031      5037
      5026      5034      5036      5026      5034      5037      5036      5034      5037
      5031      5037      5034      5031      5037      5039      5034      5037      5039
      5043      5041      5044      5043      5041      5045      5043      5041      5046
      5044      5041      5045      5044      5041      5046      5045      5041      5046
      5041      5046      5048      5041      5046      5054      5048      5046      5054
      5046      5048      5050      5046      5048      5051      5050      5048      5051
      5048      5051      5053      5048      5051      5057      5053      5051      5057
      5046      5054      5056      5046      5054      5057      5056      5054      5057
      5051      5057      5054      5051      5057      5059      5054      5057      5059
      5063      5061      5064      5063      5061      5065      5063      5061      5066
      5064      5061      5065      5064      5061      5066      5065      5061      5066
      5061      5066      5068      5061      5066      5074      5068      5066      5074
      5066      5068      5070      5066      5068      5071      5070      5068      5071
      5068      5071      5073      5068      5071      5077      5073      5071      5077
      5066      5074      5076      5066      5074      5077      5076      5074      5077
      5071      5077      5074      5071      5077      5079      5074      5077      5079
      5083      5081      5084      5083      5081      5085      5083      5081      5086
      5084      5081      5085      5084      5081      5086      5085      5081      5086
      5081      5086      5088      5081      5086      5094      5088      5086      5094
      5086      5088      5090      5086      5088      5091      5090      5088      5091
      5088      5091      5093      5088      5091      5097      5093      5091      5097
      5086      5094      5096      5086      5094      5097      5096      5094      5097
      5091      5097      5094      5091      5097      5099      5094      5097      5099
      5103      5101      5104      5103      5101      5105      5103      5101      5106
      5104      5101      5105      5104      5101      5106      5105      5101      5106
      5101      5106      5108      5101      5106      5114      5108      5106      5114
      5106      5108      5110      5106      5108      5111      5110      5108      5111
      5108      5111      5113      5108      5111      5117      5113      5111      5117
      5106      5114      5116      5106      5114      5117      5116      5114      5117
      5111      5117      5114      5111      5117      5119      5114      5117      5119
      5123      5121      5124      5123      5121      5125      5123      5121      5126
      5124      5121      5125      5124      5121      5126      5125      5121      5126
      5121      5126      5128      5121      5126      5134      5128      5126      5134
      5126      5128      5130      5126      5128      5131      5130      5128      5131
      5128      5131      5133      5128      5131      5137      5133      5131      5137
      5126      5134      5136      5126      5134      5137      5136      5134      5137
      5131      5137      5134      5131      5137      5139      5134      5137      5139
      5143      5141      5144      5143      5141      5145      5143      5141      5146
      5144      5141      5145      5144      5141      5146      5145      5141      5146
      5141      5146      5148      5141      5146      5154      5148      5146      5154
      5146      5148      5150      5146      5148      5151      5150      5148      5151
      5148      5151      5153      5148      5151      5157      5153      5151      5157
      5146      5154      5156      5146      5154      5157      5156      5154      5157
      5151      5157      5154      5151      5157      5159      5154      5157      5159
      5163      5161      5164      5163      5161      5165      5163      5161      5166
      5164      5161      5165      5164      5161      5166      5165      5161      5166
      5161      5166      5168      5161      5166      5174      5168      5166      5174
      5166      5168      5170      5166      5168      5171      5170      5168      5171
      5168      5171      5173      5168      5171      5177      5173      5171      5177
      5166      5174      5176      5166      5174      5177      5176      5174      5177
      5171      5177      5174      5171      5177      5179      5174      5177      5179
      5183      5181      5184      5183      5181      5185      5183      5181      5186
      5184      5181      5185      5184      5181      5186      5185      5181      5186
      5181      5186      5188      5181      5186      5194      5188      5186      5194
      5186      5188      5190      5186      5188      5191      5190      5188      5191
      5188      5191      5193      5188      5191      5197      5193      5191      5197
      5186      5194      5196      5186      5194      5197      5196      5194      5197
      5191      5197      5194      5191      5197      5199      5194      5197      5199
      5203      5201      5204      5203      5201      5205      5203      5201      5206
      5204      5201      5205      5204      5201      5206      5205      5201      5206
      5201      5206      5208      5201      5206      5214      5208      5206      5214
      5206      5208      5210      5206      5208      5211      5210      5208      5211
      5208      5211      5213      5208      5211      5217      5213      5211      5217
      5206      5214      5216      5206      5214      5217      5216      5214      5217
      5211      5217      5214      5211      5217      5219      5214      5217      5219
      5223      5221      5224      5223      5221      5225      5223      5221      5226
      5224      5221      5225      5224      5221      5226      5225      5221      5226
      5221      5226      5228      5221      5226      5234      5228      5226      5234
      5226      5228      5230      5226      5228      5231      5230      5228      5231
      5228      5231      5233      5228      5231      5237      5233      5231      5237
      5226      5234      5236      5226      5234      5237      5236      5234      5237
      5231      5237      5234      5231      5237      5239      5234      5237      5239
      5243      5241      5244      5243      5241      5245      5243      5241      5246
      5244      5241      5245      5244      5241      5246      5245      5241      5246
      5241      5246      5248      5241      5246      5254      5248      5246      5254
      5246      5248      5250      5246      5248      5251      5250      5248      5251
      5248      5251      5253      5248      5251      5257      5253      5251      5257
      5246      5254      5256      5246      5254      5257      5256      5254      5257
      5251      5257      5254      5251      5257      5259      5254      5257      5259
      5263      5261      5264      5263      5261      5265      5263      5261      5266
      5264      5261      5265      5264      5261      5266      5265      5261      5266
      5261      5266      5268      5261      5266      5274      5268      5266      5274
      5266      5268      5270      5266      5268      5271      5270      5268      5271
      5268      5271      5273      5268      5271      5277      5273      5271      5277
      5266      5274      5276      5266      5274      5277      5276      5274      5277
      5271      5277      5274      5271      5277      5279      5274      5277      5279
      5283      5281      5284      5283      5281      5285      5283      5281      5286
      5284      5281      5285      5284      5281      5286      5285      5281      5286
      5281      5286      5288      5281      5286      5294      5288      5286      5294
      5286      5288      5290      5286      5288      5291      5290      5288      5291
      5288      5291      5293      5288      5291      5297      5293      5291      5297
      5286      5294      5296      5286      5294      5297      5296      5294      5297
      5291      5297      5294      5291      5297      5299      5294      5297      5299
      5303      5301      5304      5303      5301      5305      5303      5301      5306
      5304      5301      5305      5304      5301      5306      5305      5301      5306
      5301      5306      5308      5301      5306      5314      5308      5306      5314
      5306      5308      5310      5306      5308      5311      5310      5308      5311
      5308      5311      5313      5308      5311      5317      5313      5311      5317
      5306      5314      5316      5306      5314      5317      5316      5314      5317
      5311      5317      5314      5311      5317      5319      5314      5317      5319
      5323      5321      5324      5323      5321      5325      5323      5321      5326
      5324      5321      5325      5324      5321      5326      5325      5321      5326
      5321      5326      5328      5321      5326      5334      5328      5326      5334
      5326      5328      5330      5326      5328      5331      5330      5328      5331
      5328      5331      5333      5328      5331      5337      5333      5331      5337
      5326      5334      5336      5326      5334      5337      5336      5334      5337
      5331      5337      5334      5331      5337      5339      5334      5337      5339
      5343      5341      5344      5343      5341      5345      5343      5341      5346
      5344      5341      5345      5344      5341      5346      5345      5341      5346
      5341      5346      5348      5341      5346      5354      5348      5346      5354
      5346      5348      5350      5346      5348      5351      5350      5348      5351
      5348      5351      5353      5348      5351      5357      5353      5351      5357
      5346      5354      5356      5346      5354      5357      5356      5354      5357
      5351      5357      5354      5351      5357      5359      5354      5357      5359
      5363      5361      5364      5363      5361      5365      5363      5361      5366
      5364      5361      5365      5364      5361      5366      5365      5361      5366
      5361      5366      5368      5361      5366      5374      5368      5366      5374
      5366      5368      5370      5366      5368      5371      5370      5368      5371
      5368      5371      5373      5368      5371      5377      5373      5371      5377
      5366      5374      5376      5366      5374      5377      5376      5374      5377
      5371      5377      5374      5371      5377      5379      5374      5377      5379
      5383      5381      5384      5383      5381      5385      5383      5381      5386
      5384      5381      5385      5384      5381      5386      5385      5381      5386
      5381      5386      5388      5381      5386      5394      5388      5386      5394
      5386      5388      5390      5386      5388      5391      5390      5388      5391
      5388      5391      5393      5388      5391      5397      5393      5391      5397
      5386      5394      5396      5386      5394      5397      5396      5394      5397
      5391      5397      5394      5391      5397      5399      5394      5397      5399
      5403      5401      5404      5403      5401      5405      5403      5401      5406
      5404      5401      5405      5404      5401      5406      5405      5401      5406
      5401      5406      5408      5401      5406      5414      5408      5406      5414
      5406      5408      5410      5406      5408      5411      5410      5408      5411
      5408      5411      5413      5408      5411      5417      5413      5411      5417
      5406      5414      5416      5406      5414      5417      5416      5414      5417
      5411      5417      5414      5411      5417      5419      5414      5417      5419
      5423      5421      5424      5423      5421      5425      5423      5421      5426
      5424      5421      5425      5424      5421      5426      5425      5421      5426
      5421      5426      5428      5421      5426      5434      5428      5426      5434
      5426      5428      5430      5426      5428      5431      5430      5428      5431
      5428      5431      5433      5428      5431      5437      5433      5431      5437
      5426      5434      5436      5426      5434      5437      5436      5434      5437
      5431      5437      5434      5431      5437      5439      5434      5437      5439
      5443      5441      5444      5443      5441      5445      5443      5441      5446
      5444      5441      5445      5444      5441      5446      5445      5441      5446
      5441      5446      5448      5441      5446      5454      5448      5446      5454
      5446      5448      5450      5446      5448      5451      5450      5448      5451
      5448      5451      5453      5448      5451      5457      5453      5451      5457
      5446      5454      5456      5446      5454      5457      5456      5454      5457
      5451      5457      5454      5451      5457      5459      5454      5457      5459
      5463      5461      5464      5463      5461      5465      5463      5461      5466
      5464      5461      5465      5464      5461      5466      5465      5461      5466
      5461      5466      5468      5461      5466      5474      5468      5466      5474
      5466      5468      5470      5466      5468      5471      5470      5468      5471
      5468      5471      5473      5468      5471      5477      5473      5471      5477
      5466      5474      5476      5466      5474      5477      5476      5474      5477
      5471      5477      5474      5471      5477      5479      5474      5477      5479
      5483      5481      5484      5483      5481      5485      5483      5481      5486
      5484      5481      5485      5484      5481      5486      5485      5481      5486
      5481      5486      5488      5481      5486      5494      5488      5486      5494
      5486      5488      5490      5486      5488      5491      5490      5488      5491
      5488      5491      5493      5488      5491      5497      5493      5491      5497
      5486      5494      5496      5486      5494      5497      5496      5494      5497
      5491      5497      5494      5491      5497      5499      5494      5497      5499
      5503      5501      5504      5503      5501      5505      5503      5501      5506
      5504      5501      5505      5504      5501      5506      5505      5501      5506
      5501      5506      5508      5501      5506      5514      5508      5506      5514
      5506      5508      5510      5506      5508      5511      5510      5508      5511
      5508      5511      5513      5508      5511      5517      5513      5511      5517
      5506      5514      5516      5506      5514      5517      5516      5514      5517
      5511      5517      5514      5511      5517      5519      5514      5517      5519
      5523      5521      5524      5523      5521      5525      5523      5521      5526
      5524      5521      5525      5524      5521      5526      5525      5521      5526
      5521      5526      5528      5521      5526      5534      5528      5526      5534
      5526      5528      5530      5526      5528      5531      5530      5528      5531
      5528      5531      5533      5528      5531      5537      5533      5531      5537
      5526      5534      5536      5526      5534      5537      5536      5534      5537
      5531      5537      5534      5531      5537      5539      5534      5537      5539
      5543      5541      5544      5543      5541      5545      5543      5541      5546
      5544      5541      5545      5544      5541      5546      5545      5541      5546
      5541      5546      5548      5541      5546      5554      5548      5546      5554
      5546      5548      5550      5546      5548      5551      5550      5548      5551
      5548      5551      5553      5548      5551      5557      5553      5551      5557
      5546      5554      5556      5546      5554      5557      5556      5554      5557
      5551      5557      5554      5551      5557      5559      5554      5557      5559
      5563      5561      5564      5563      5561      5565      5563      5561      5566
      5564      5561      5565      5564      5561      5566      5565      5561      5566
      5561      5566      5568      5561      5566      5574      5568      5566      5574
      5566      5568      5570      5566      5568      5571      5570      5568      5571
      5568      5571      5573      5568      5571      5577      5573      5571      5577
      5566      5574      5576      5566      5574      5577      5576      5574      5577
      5571      5577      5574      5571      5577      5579      5574      5577      5579
      5583      5581      5584      5583      5581      5585      5583      5581      5586
      5584      5581      5585      5584      5581      5586      5585      5581      5586
      5581      5586      5588      5581      5586      5594      5588      5586      5594
      5586      5588      5590      5586      5588      5591      5590      5588      5591
      5588      5591      5593      5588      5591      5597      5593      5591      5597
      5586      5594      5596      5586      5594      5597      5596      5594      5597
      5591      5597      5594      5591      5597      5599      5594      5597      5599
      5603      5601      5604      5603      5601      5605      5603      5601      5606
      5604      5601      5605      5604      5601      5606      5605      5601      5606
      5601      5606      5608      5601      5606      5614      5608      5606      5614
      5606      5608      5610      5606      5608      5611      5610      5608      5611
      5608      5611      5613      5608      5611      5617      5613      5611      5617
      5606      5614      5616      5606      5614      5617      5616      5614      5617
      5611      5617      5614      5611      5617      5619      5614      5617      5619
      5623      5621      5624      5623      5621      5625      5623      5621      5626
      5624      5621      5625      5624      5621      5626      5625      5621      5626
      5621      5626      5628      5621      5626      5634      5628      5626      5634
      5626      5628      5630      5626      5628      5631      5630      5628      5631
      5628      5631      5633      5628      5631      5637      5633      5631      5637
      5626      5634      5636      5626      5634      5637      5636      5634      5637
      5631      5637      5634      5631      5637      5639      5634      5637      5639
      5643      5641      5644      5643      5641      5645      5643      5641      5646
      5644      5641      5645      5644      5641      5646      5645      5641      5646
      5641      5646      5648      5641      5646      5654      5648      5646      5654
      5646      5648      5650      5646      5648      5651      5650      5648      5651
      5648      5651      5653      5648      5651      5657      5653      5651      5657
      5646      5654      5656      5646      5654      5657      5656      5654      5657
      5651      5657      5654      5651      5657      5659      5654      5657      5659
      5663      5661      5664      5663      5661      5665      5663      5661      5666
      5664      5661      5665      5664      5661      5666      5665      5661      5666
      5661      5666      5668      5661      5666      5674      5668      5666      5674
      5666      5668      5670      5666      5668      5671      5670      5668      5671
      5668      5671      5673      5668      5671      5677      5673      5671      5677
      5666      5674      5676      5666      5674      5677      5676      5674      5677
      5671      5677      5674      5671      5677      5679      5674      5677      5679
      5683      5681      5684      5683      5681      5685      5683      5681      5686
      5684      5681      5685      5684      5681      5686      5685      5681      5686
      5681      5686      5688      5681      5686      5694      5688      5686      5694
      5686      5688      5690      5686      5688      5691      5690      5688      5691
      5688      5691      5693      5688      5691      5697      5693      5691      5697
      5686      5694      5696      5686      5694      5697      5696      5694      5697
      5691      5697      5694      5691      5697      5699      5694      5697      5699
      5703      5701      5704      5703      5701      5705      5703      5701      5706
      5704      5701      5705      5704      5701      5706      5705      5701      5706
      5701      5706      5708      5701      5706      5714      5708      5706      5714
      5706      5708      5710      5706      5708      5711      5710      5708      5711
      5708      5711      5713      5708      5711      5717      5713      5711      5717
      5706      5714      5716      5706      5714      5717      5716      5714      5717
      5711      5717      5714      5711      5717      5719      5714      5717      5719
      5723      5721      5724      5723      5721      5725      5723      5721      5726
      5724      5721      5725      5724      5721      5726      5725      5721      5726
      5721      5726      5728      5721      5726      5734      5728      5726      5734
      5726      5728      5730      5726      5728      5731      5730      5728      5731
      5728      5731      5733      5728      5731      5737      5733      5731      5737
      5726      5734      5736      5726      5734      5737      5736      5734      5737
      5731      5737      5734      5731      5737      5739      5734      5737      5739
      5743      5741      5744      5743      5741      5745      5743      5741      5746
      5744      5741      5745      5744      5741      5746      5745      5741      5746
      5741      5746      5748      5741      5746      5754      5748      5746      5754
      5746      5748      5750      5746      5748      5751      5750      5748      5751
      5748      5751      5753      5748      5751      5757      5753      5751      5757
      5746      5754      5756      5746      5754      5757      5756      5754      5757
      5751      5757      5754      5751      5757      5759      5754      5757      5759
      5763      5761      5764      5763      5761      5765      5763      5761      5766
      5764      5761      5765      5764      5761      5766      5765      5761      5766
      5761      5766      5768      5761      5766      5774      5768      5766      5774
      5766      5768      5770      5766      5768      5771      5770      5768      5771
      5768      5771      5773      5768      5771      5777      5773      5771      5777
      5766      5774      5776      5766      5774      5777      5776      5774      5777
      5771      5777      5774      5771      5777      5779      5774      5777      5779
      5783      5781      5784      5783      5781      5785      5783      5781      5786
      5784      5781      5785      5784      5781      5786      5785      5781      5786
      5781      5786      5788      5781      5786      5794      5788      5786      5794
      5786      5788      5790      5786      5788      5791      5790      5788      5791
      5788      5791      5793      5788      5791      5797      5793      5791      5797
      5786      5794      5796      5786      5794      5797      5796      5794      5797
      5791      5797      5794      5791      5797      5799      5794      5797      5799
      5803      5801      5808      5803      5801      5810      5808      5801      5810
      5801      5803      5805      5801      5803      5806      5801      5803      5807
      5805      5803      5806      5805      5803      5807      5806      5803      5807
      5801      5810      5812      5819      5817      5824      5819      5817      5826
      5824      5817      5826      5817      5819      5821      5817      5819      5822
      5817      5819      5823      5821      5819      5822      5821      5819      5823
      5822      5819      5823      5817      5826      5828      5835      5833      5840
      5835      5833      5842      5840      5833      5842      5833      5835      5837
      5833      5835      5838      5833      5835      5839      5837      5835      5838
      5837      5835      5839      5838      5835      5839      5833      5842      5844
      5851      5849      5856      5851      5849      5858      5856      5849      5858
      5849      5851      5853      5849      5851      5854      5849      5851      5855
      5853      5851      5854      5853      5851      5855      5854      5851      5855
      5849      5858      5860      5867      5865      5872      5867      5865      5874
      5872      5865      5874      5865      5867      5869      5865      5867      5870
      5865      5867      5871      5869      5867      5870      5869      5867      5871
      5870      5867      5871      5865      5874      5876      5883      5881      5888
      5883      5881      5890      5888      5881      5890      5881      5883      5885
      5881      5883      5886      5881      5883      5887      5885      5883      5886
      5885      5883      5887      5886      5883      5887      5881      5890      5892
      5899      5897      5904      5899      5897      5906      5904      5897      5906
      5897      5899      5901      5897      5899      5902      5897      5899      5903
      5901      5899      5902      5901      5899      5903      5902      5899      5903
      5897      5906      5908      5915      5913      5920      5915      5913      5922
      5920      5913      5922      5913      5915      5917      5913      5915      5918
      5913      5915      5919      5917      5915      5918      5917      5915      5919
      5918      5915      5919      5913      5922      5924      5931      5929      5936
      5931      5929      5938      5936      5929      5938      5929      5931      5933
      5929      5931      5934      5929      5931      5935      5933      5931      5934
      5933      5931      5935      5934      5931      5935      5929      5938      5940
      5947      5945      5952      5947      5945      5954      5952      5945      5954
      5945      5947      5949      5945      5947      5950      5945      5947      5951
      5949      5947      5950      5949      5947      5951      5950      5947      5951
      5945      5954      5956      5963      5961      5968      5963      5961      5970
      5968      5961      5970      5961      5963      5965      5961      5963      5966
      5961      5963      5967      5965      5963      5966      5965      5963      5967
      5966      5963      5967      5961      5970      5972      5979      5977      5984
      5979      5977      5986      5984      5977      5986      5977      5979      5981
      5977      5979      5982      5977      5979      5983      5981      5979      5982
      5981      5979      5983      5982      5979      5983      5977      5986      5988
      5995      5993      6000      5995      5993      6002      6000      5993      6002
      5993      5995      5997      5993      5995      5998      5993      5995      5999
      5997      5995      5998      5997      5995      5999      5998      5995      5999
      5993      6002      6004      6011      6009      6016      6011      6009      6018
      6016      6009      6018      6009      6011      6013      6009      6011      6014
      6009      6011      6015      6013      6011      6014      6013      6011      6015
      6014      6011      6015      6009      6018      6020      6027      6025      6032
      6027      6025      6034      6032      6025      6034      6025      6027      6029
      6025      6027      6030      6025      6027      6031      6029      6027      6030
      6029      6027      6031      6030      6027      6031      6025      6034      6036
      6043      6041      6048      6043      6041      6050      6048      6041      6050
      6041      6043      6045      6041      6043      6046      6041      6043      6047
      6045      6043      6046      6045      6043      6047      6046      6043      6047
      6041      6050      6052      6059      6057      6064      6059      6057      6066
      6064      6057      6066      6057      6059      6061      6057      6059      6062
      6057      6059      6063      6061      6059      6062      6061      6059      6063
      6062      6059      6063      6057      6066      6068      6075      6073      6080
      6075      6073      6082      6080      6073      6082      6073      6075      6077
      6073      6075      6078      6073      6075      6079      6077      6075      6078
      6077      6075      6079      6078      6075      6079      6073      6082      6084
      6091      6089      6096      6091      6089      6098      6096      6089      6098
      6089      6091      6093      6089      6091      6094      6089      6091      6095
      6093      6091      6094      6093      6091      6095      6094      6091      6095
      6089      6098      6100      6107      6105      6112      6107      6105      6114
      6112      6105      6114      6105      6107      6109      6105      6107      6110
      6105      6107      6111      6109      6107      6110      6109      6107      6111
      6110      6107      6111      6105      6114      6116      6123      6121      6128
      6123      6121      6130      6128      6121      6130      6121      6123      6125
      6121      6123      6126      6121      6123      6127      6125      6123      6126
      6125      6123      6127      6126      6123      6127      6121      6130      6132
      6139      6137      6144      6139      6137      6146      6144      6137      6146
      6137      6139      6141      6137      6139      6142      6137      6139      6143
      6141      6139      6142      6141      6139      6143      6142      6139      6143
      6137      6146      6148      6155      6153      6160      6155      6153      6162
      6160      6153      6162      6153      6155      6157      6153      6155      6158
      6153      6155      6159      6157      6155      6158      6157      6155      6159
      6158      6155      6159      6153      6162      6164      6171      6169      6176
      6171      6169      6178      6176      6169      6178      6169      6171      6173
      6169      6171      6174      6169      6171      6175      6173      6171      6174
      6173      6171      6175      6174      6171      6175      6169      6178      6180
      6187      6185      6192      6187      6185      6194      6192      6185      6194
      6185      6187      6189      6185      6187      6190      6185      6187      6191
      6189      6187      6190      6189      6187      6191      6190      6187      6191
      6185      6194      6196      6203      6201      6208      6203      6201      6210
      6208      6201      6210      6201      6203      6205      6201      6203      6206
      6201      6203      6207      6205      6203      6206      6205      6203      6207
      6206      6203      6207      6201      6210      6212      6219      6217      6224
      6219      6217      6226      6224      6217      6226      6217      6219      6221
      6217      6219      6222      6217      6219      6223      6221      6219      6222
      6221      6219      6223      6222      6219      6223      6217      6226      6228
      6235      6233      6240      6235      6233      6242      6240      6233      6242
      6233      6235      6237      6233      6235      6238      6233      6235      6239
      6237      6235      6238      6237      6235      6239      6238      6235      6239
      6233      6242      6244      6251      6249      6256      6251      6249      6258
      6256      6249      6258      6249      6251      6253      6249      6251      6254
      6249      6251      6255      6253      6251      6254      6253      6251      6255
      6254      6251      6255      6249      6258      6260      6267      6265      6272
      6267      6265      6274      6272      6265      6274      6265      6267      6269
      6265      6267      6270      6265      6267      6271      6269      6267      6270
      6269      6267      6271      6270      6267      6271      6265      6274      6276
      6283      6281      6288      6283      6281      6290      6288      6281      6290
      6281      6283      6285      6281      6283      6286      6281      6283      6287
      6285      6283      6286      6285      6283      6287      6286      6283      6287
      6281      6290      6292      6299      6297      6304      6299      6297      6306
      6304      6297      6306      6297      6299      6301      6297      6299      6302
      6297      6299      6303      6301      6299      6302      6301      6299      6303
      6302      6299      6303      6297      6306      6308      6315      6313      6320
      6315      6313      6322      6320      6313      6322      6313      6315      6317
      6313      6315      6318      6313      6315      6319      6317      6315      6318
      6317      6315      6319      6318      6315      6319      6313      6322      6324
      6331      6329      6336      6331      6329      6338      6336      6329      6338
      6329      6331      6333      6329      6331      6334      6329      6331      6335
      6333      6331      6334      6333      6331      6335      6334      6331      6335
      6329      6338      6340      6347      6345      6352      6347      6345      6354
      6352      6345      6354      6345      6347      6349      6345      6347      6350
      6345      6347      6351      6349      6347      6350      6349      6347      6351
      6350      6347      6351      6345      6354      6356      6363      6361      6368
      6363      6361      6370      6368      6361      6370      6361      6363      6365
      6361      6363      6366      6361      6363      6367      6365      6363      6366
      6365      6363      6367      6366      6363      6367      6361      6370      6372
      6379      6377      6384      6379      6377      6386      6384      6377      6386
      6377      6379      6381      6377      6379      6382      6377      6379      6383
      6381      6379      6382      6381      6379      6383      6382      6379      6383
      6377      6386      6388      6395      6393      6400      6395      6393      6402
      6400      6393      6402      6393      6395      6397      6393      6395      6398
      6393      6395      6399      6397      6395      6398      6397      6395      6399
      6398      6395      6399      6393      6402      6404      6411      6409      6416
      6411      6409      6418      6416      6409      6418      6409      6411      6413
      6409      6411      6414      6409      6411      6415      6413      6411      6414
      6413      6411      6415      6414      6411      6415      6409      6418      6420
      6427      6425      6432      6427      6425      6434      6432      6425      6434
      6425      6427      6429      6425      6427      6430      6425      6427      6431
      6429      6427      6430      6429      6427      6431      6430      6427      6431
      6425      6434      6436      6443      6441      6448      6443      6441      6450
      6448      6441      6450      6441      6443      6445      6441      6443      6446
      6441      6443      6447      6445      6443      6446      6445      6443      6447
      6446      6443      6447      6441      6450      6452      6459      6457      6464
      6459      6457      6466      6464      6457      6466      6457      6459      6461
      6457      6459      6462      6457      6459      6463      6461      6459      6462
      6461      6459      6463      6462      6459      6463      6457      6466      6468
      6475      6473      6480      6475      6473      6482      6480      6473      6482
      6473      6475      6477      6473      6475      6478      6473      6475      6479
      6477      6475      6478      6477      6475      6479      6478      6475      6479
      6473      6482      6484      6491      6489      6496      6491      6489      6498
      6496      6489      6498      6489      6491      6493      6489      6491      6494
      6489      6491      6495      6493      6491      6494      6493      6491      6495
      6494      6491      6495      6489      6498      6500      6507      6505      6512
      6507      6505      6514      6512      6505      6514      6505      6507      6509
      6505      6507      6510      6505      6507      6511      6509      6507      6510
      6509      6507      6511      6510      6507      6511      6505      6514      6516
      6523      6521      6528      6523      6521      6530      6528      6521      6530
      6521      6523      6525      6521      6523      6526      6521      6523      6527
      6525      6523      6526      6525      6523      6527      6526      6523      6527
      6521      6530      6532      6539      6537      6544      6539      6537      6546
      6544      6537      6546      6537      6539      6541      6537      6539      6542
      6537      6539      6543      6541      6539      6542      6541      6539      6543
      6542      6539      6543      6537      6546      6548      6555      6553      6560
      6555      6553      6562      6560      6553      6562      6553      6555      6557
      6553      6555      6558      6553      6555      6559      6557      6555      6558
      6557      6555      6559      6558      6555      6559      6553      6562      6564
      6571      6569      6576      6571      6569      6578      6576      6569      6578
      6569      6571      6573      6569      6571      6574      6569      6571      6575
      6573      6571      6574      6573      6571      6575      6574      6571      6575
      6569      6578      6580      6587      6585      6592      6587      6585      6594
      6592      6585      6594      6585      6587      6589      6585      6587      6590
      6585      6587      6591      6589      6587      6590      6589      6587      6591
      6590      6587      6591      6585      6594      6596      6603      6601      6608
      6603      6601      6610      6608      6601      6610      6601      6603      6605
      6601      6603      6606      6601      6603      6607      6605      6603      6606
      6605      6603      6607      6606      6603      6607      6601      6610      6612
      6619      6617      6624      6619      6617      6626      6624      6617      6626
      6617      6619      6621      6617      6619      6622      6617      6619      6623
      6621      6619      6622      6621      6619      6623      6622      6619      6623
      6617      6626      6628      6635      6633      6640      6635      6633      6642
      6640      6633      6642      6633      6635      6637      6633      6635      6638
      6633      6635      6639      6637      6635      6638      6637      6635      6639
      6638      6635      6639      6633      6642      6644      6651      6649      6656
      6651      6649      6658      6656      6649      6658      6649      6651      6653
      6649      6651      6654      6649      6651      6655      6653      6651      6654
      6653      6651      6655      6654      6651      6655      6649      6658      6660
      6667      6665      6672      6667      6665      6674      6672      6665      6674
      6665      6667      6669      6665      6667      6670      6665      6667      6671
      6669      6667      6670      6669      6667      6671      6670      6667      6671
      6665      6674      6676      6683      6681      6688      6683      6681      6690
      6688      6681      6690      6681      6683      6685      6681      6683      6686
      6681      6683      6687      6685      6683      6686      6685      6683      6687
      6686      6683      6687      6681      6690      6692      6699      6697      6704
      6699      6697      6706      6704      6697      6706      6697      6699      6701
      6697      6699      6702      6697      6699      6703      6701      6699      6702
      6701      6699      6703      6702      6699      6703      6697      6706      6708
      6715      6713      6720      6715      6713      6722      6720      6713      6722
      6713      6715      6717      6713      6715      6718      6713      6715      6719
      6717      6715      6718      6717      6715      6719      6718      6715      6719
      6713      6722      6724      6731      6729      6736      6731      6729      6738
      6736      6729      6738      6729      6731      6733      6729      6731      6734
      6729      6731      6735      6733      6731      6734      6733      6731      6735
      6734      6731      6735      6729      6738      6740      6747      6745      6752
      6747      6745      6754      6752      6745      6754      6745      6747      6749
      6745      6747      6750      6745      6747      6751      6749      6747      6750
      6749      6747      6751      6750      6747      6751      6745      6754      6756
      6763      6761      6768      6763      6761      6770      6768      6761      6770
      6761      6763      6765      6761      6763      6766      6761      6763      6767
      6765      6763      6766      6765      6763      6767      6766      6763      6767
      6761      6770      6772      6779      6777      6784      6779      6777      6786
      6784      6777      6786      6777      6779      6781      6777      6779      6782
      6777      6779      6783      6781      6779      6782      6781      6779      6783
      6782      6779      6783      6777      6786      6788      6795      6793      6800
      6795      6793      6802      6800      6793      6802      6793      6795      6797
      6793      6795      6798      6793      6795      6799      6797      6795      6798
      6797      6795      6799      6798      6795      6799      6793      6802      6804
      6811      6809      6816      6811      6809      6818      6816      6809      6818
      6809      6811      6813      6809      6811      6814      6809      6811      6815
      6813      6811      6814      6813      6811      6815      6814      6811      6815
      6809      6818      6820      6827      6825      6832      6827      6825      6834
      6832      6825      6834      6825      6827      6829      6825      6827      6830
      6825      6827      6831      6829      6827      6830      6829      6827      6831
      6830      6827      6831      6825      6834      6836      6843      6841      6848
      6843      6841      6850      6848      6841      6850      6841      6843      6845
      6841      6843      6846      6841      6843      6847      6845      6843      6846
      6845      6843      6847      6846      6843      6847      6841      6850      6852
      6859      6857      6864      6859      6857      6866      6864      6857      6866
      6857      6859      6861      6857      6859      6862      6857      6859      6863
      6861      6859      6862      6861      6859      6863      6862      6859      6863
      6857      6866      6868      6875      6873      6880      6875      6873      6882
      6880      6873      6882      6873      6875      6877      6873      6875      6878
      6873      6875      6879      6877      6875      6878      6877      6875      6879
      6878      6875      6879      6873      6882      6884      6891      6889      6896
      6891      6889      6898      6896      6889      6898      6889      6891      6893
      6889      6891      6894      6889      6891      6895      6893      6891      6894
      6893      6891      6895      6894      6891      6895      6889      6898      6900
      6907      6905      6912      6907      6905      6914      6912      6905      6914
      6905      6907      6909      6905      6907      6910      6905      6907      6911
      6909      6907      6910      6909      6907      6911      6910      6907      6911
      6905      6914      6916      6923      6921      6928      6923      6921      6930
      6928      6921      6930      6921      6923      6925      6921      6923      6926
      6921      6923      6927      6925      6923      6926      6925      6923      6927
      6926      6923      6927      6921      6930      6932      6939      6937      6944
      6939      6937      6946      6944      6937      6946      6937      6939      6941
      6937      6939      6942      6937      6939      6943      6941      6939      6942
      6941      6939      6943      6942      6939      6943      6937      6946      6948
      6955      6953      6960      6955      6953      6962      6960      6953      6962
      6953      6955      6957      6953      6955      6958      6953      6955      6959
      6957      6955      6958      6957      6955      6959      6958      6955      6959
      6953      6962      6964      6971      6969      6976      6971      6969      6978
      6976      6969      6978      6969      6971      6973      6969      6971      6974
      6969      6971      6975      6973      6971      6974      6973      6971      6975
      6974      6971      6975      6969      6978      6980      6987      6985      6992
      6987      6985      6994      6992      6985      6994      6985      6987      6989
      6985      6987      6990      6985      6987      6991      6989      6987      6990
      6989      6987      6991      6990      6987      6991      6985      6994      6996
      7003      7001      7008      7003      7001      7010      7008      7001      7010
      7001      7003      7005      7001      7003      7006      7001      7003      7007
      7005      7003      7006      7005      7003      7007      7006      7003      7007
      7001      7010      7012      7019      7017      7024      7019      7017      7026
      7024      7017      7026      7017      7019      7021      7017      7019      7022
      7017      7019      7023      7021      7019      7022      7021      7019      7023
      7022      7019      7023      7017      7026      7028      7035      7033      7040
      7035      7033      7042      7040      7033      7042      7033      7035      7037
      7033      7035      7038      7033      7035      7039      7037      7035      7038
      7037      7035      7039      7038      7035      7039      7033      7042      7044
      7051      7049      7056      7051      7049      7058      7056      7049      7058
      7049      7051      7053      7049      7051      7054      7049      7051      7055
      7053      7051      7054      7053      7051      7055      7054      7051      7055
      7049      7058      7060      7067      7065      7072      7067      7065      7074
      7072      7065      7074      7065      7067      7069      7065      7067      7070
      7065      7067      7071      7069      7067      7070      7069      7067      7071
      7070      7067      7071      7065      7074      7076      7083      7081      7088
      7083      7081      7090      7088      7081      7090      7081      7083      7085
      7081      7083      7086      7081      7083      7087      7085      7083      7086
      7085      7083      7087      7086      7083      7087      7081      7090      7092
      7099      7097      7104      7099      7097      7106      7104      7097      7106
      7097      7099      7101      7097      7099      7102      7097      7099      7103
      7101      7099      7102      7101      7099      7103      7102      7099      7103
      7097      7106      7108      7115      7113      7120      7115      7113      7122
      7120      7113      7122      7113      7115      7117      7113      7115      7118
      7113      7115      7119      7117      7115      7118      7117      7115      7119
      7118      7115      7119      7113      7122      7124      7131      7129      7136
      7131      7129      7138      7136      7129      7138      7129      7131      7133
      7129      7131      7134      7129      7131      7135      7133      7131      7134
      7133      7131      7135      7134      7131      7135      7129      7138      7140
      7147      7145      7152      7147      7145      7154      7152      7145      7154
      7145      7147      7149      7145      7147      7150      7145      7147      7151
      7149      7147      7150      7149      7147      7151      7150      7147      7151
      7145      7154      7156      7163      7161      7168      7163      7161      7170
      7168      7161      7170      7161      7163      7165      7161      7163      7166
      7161      7163      7167      7165      7163      7166      7165      7163      7167
      7166      7163      7167      7161      7170      7172      7179      7177      7184
      7179      7177      7186      7184      7177      7186      7177      7179      7181
      7177      7179      7182      7177      7179      7183      7181      7179      7182
      7181      7179      7183      7182      7179      7183      7177      7186      7188
      7195      7193      7200      7195      7193      7202      7200      7193      7202
      7193      7195      7197      7193      7195      7198      7193      7195      7199
      7197      7195      7198      7197      7195      7199      7198      7195      7199
      7193      7202      7204      7211      7209      7216      7211      7209      7218
      7216      7209      7218      7209      7211      7213      7209      7211      7214
      7209      7211      7215      7213      7211      7214      7213      7211      7215
      7214      7211      7215      7209      7218      7220      7227      7225      7232
      7227      7225      7234      7232      7225      7234      7225      7227      7229
      7225      7227      7230      7225      7227      7231      7229      7227      7230
      7229      7227      7231      7230      7227      7231      7225      7234      7236
      7243      7241      7244      7243      7241      7245      7243      7241      7246
      7244      7241      7245      7244      7241      7246      7245      7241      7246
      7241      7246      7248      7241      7246      7254      7248      7246      7254
      7246      7248      7250      7246      7248      7251      7250      7248      7251
      7248      7251      7253      7248      7251      7257      7253      7251      7257
      7246      7254      7256      7246      7254      7257      7256      7254      7257
      7251      7257      7254      7251      7257      7259      7254      7257      7259
      7263      7261      7264      7263      7261      7265      7263      7261      7266
      7264      7261      7265      7264      7261      7266      7265      7261      7266
      7261      7266      7268      7261      7266      7274      7268      7266      7274
      7266      7268      7270      7266      7268      7271      7270      7268      7271
      7268      7271      7273      7268      7271      7277      7273      7271      7277
      7266      7274      7276      7266      7274      7277      7276      7274      7277
      7271      7277      7274      7271      7277      7279      7274      7277      7279
      7283      7281      7284      7283      7281      7285      7283      7281      7286
      7284      7281      7285      7284      7281      7286      7285      7281      7286
      7281      7286      7288      7281      7286      7294      7288      7286      7294
      7286      7288      7290      7286      7288      7291      7290      7288      7291
      7288      7291      7293      7288      7291      7297      7293      7291      7297
      7286      7294      7296      7286      7294      7297      7296      7294      7297
      7291      7297      7294      7291      7297      7299      7294      7297      7299
      7303      7301      7304      7303      7301      7305      7303      7301      7306
      7304      7301      7305      7304      7301      7306      7305      7301      7306
      7301      7306      7308      7301      7306      7314      7308      7306      7314
      7306      7308      7310      7306      7308      7311      7310      7308      7311
      7308      7311      7313      7308      7311      7317      7313      7311      7317
      7306      7314      7316      7306      7314      7317      7316      7314      7317
      7311      7317      7314      7311      7317      7319      7314      7317      7319
      7323      7321      7324      7323      7321      7325      7323      7321      7326
      7324      7321      7325      7324      7321      7326      7325      7321      7326
      7321      7326      7328      7321      7326      7334      7328      7326      7334
      7326      7328      7330      7326      7328      7331      7330      7328      7331
      7328      7331      7333      7328      7331      7337      7333      7331      7337
      7326      7334      7336      7326      7334      7337      7336      7334      7337
      7331      7337      7334      7331      7337      7339      7334      7337      7339
      7343      7341      7344      7343      7341      7345      7343      7341      7346
      7344      7341      7345      7344      7341      7346      7345      7341      7346
      7341      7346      7348      7341      7346      7354      7348      7346      7354
      7346      7348      7350      7346      7348      7351      7350      7348      7351
      7348      7351      7353      7348      7351      7357      7353      7351      7357
      7346      7354      7356      7346      7354      7357      7356      7354      7357
      7351      7357      7354      7351      7357      7359      7354      7357      7359
      7363      7361      7364      7363      7361      7365      7363      7361      7366
      7364      7361      7365      7364      7361      7366      7365      7361      7366
      7361      7366      7368      7361      7366      7374      7368      7366      7374
      7366      7368      7370      7366      7368      7371      7370      7368      7371
      7368      7371      7373      7368      7371      7377      7373      7371      7377
      7366      7374      7376      7366      7374      7377      7376      7374      7377
      7371      7377      7374      7371      7377      7379      7374      7377      7379
      7383      7381      7384      7383      7381      7385      7383      7381      7386
      7384      7381      7385      7384      7381      7386      7385      7381      7386
      7381      7386      7388      7381      7386      7394      7388      7386      7394
      7386      7388      7390      7386      7388      7391      7390      7388      7391
      7388      7391      7393      7388      7391      7397      7393      7391      7397
      7386      7394      7396      7386      7394      7397      7396      7394      7397
      7391      7397      7394      7391      7397      7399      7394      7397      7399
      7403      7401      7404      7403      7401      7405      7403      7401      7406
      7404      7401      7405      7404      7401      7406      7405      7401      7406
      7401      7406      7408      7401      7406      7414      7408      7406      7414
      7406      7408      7410      7406      7408      7411      7410      7408      7411
      7408      7411      7413      7408      7411      7417      7413      7411      7417
      7406      7414      7416      7406      7414      7417      7416      7414      7417
      7411      7417      7414      7411      7417      7419      7414      7417      7419
      7423      7421      7424      7423      7421      7425      7423      7421      7426
      7424      7421      7425      7424      7421      7426      7425      7421      7426
      7421      7426      7428      7421      7426      7434      7428      7426      7434
      7426      7428      7430      7426      7428      7431      7430      7428      7431
      7428      7431      7433      7428      7431      7437      7433      7431      7437
      7426      7434      7436      7426      7434      7437      7436      7434      7437
      7431      7437      7434      7431      7437      7439      7434      7437      7439
      7443      7441      7444      7443      7441      7445      7443      7441      7446
      7444      7441      7445      7444      7441      7446      7445      7441      7446
      7441      7446      7448      7441      7446      7454      7448      7446      7454
      7446      7448      7450      7446      7448      7451      7450      7448      7451
      7448      7451      7453      7448      7451      7457      7453      7451      7457
      7446      7454      7456      7446      7454      7457      7456      7454      7457
      7451      7457      7454      7451      7457      7459      7454      7457      7459
      7463      7461      7464      7463      7461      7465      7463      7461      7466
      7464      7461      7465      7464      7461      7466      7465      7461      7466
      7461      7466      7468      7461      7466      7474      7468      7466      7474
      7466      7468      7470      7466      7468      7471      7470      7468      7471
      7468      7471      7473      7468      7471      7477      7473      7471      7477
      7466      7474      7476      7466      7474      7477      7476      7474      7477
      7471      7477      7474      7471      7477      7479      7474      7477      7479
      7483      7481      7484      7483      7481      7485      7483      7481      7486
      7484      7481      7485      7484      7481      7486      7485      7481      7486
      7481      7486      7488      7481      7486      7494      7488      7486      7494
      7486      7488      7490      7486      7488      7491      7490      7488      7491
      7488      7491      7493      7488      7491      7497      7493      7491      7497
      7486      7494      7496      7486      7494      7497      7496      7494      7497
      7491      7497      7494      7491      7497      7499      7494      7497      7499
      7503      7501      7504      7503      7501      7505      7503      7501      7506
      7504      7501      7505      7504      7501      7506      7505      7501      7506
      7501      7506      7508      7501      7506      7514      7508      7506      7514
      7506      7508      7510      7506      7508      7511      7510      7508      7511
      7508      7511      7513      7508      7511      7517      7513      7511      7517
      7506      7514      7516      7506      7514      7517      7516      7514      7517
      7511      7517      7514      7511      7517      7519      7514      7517      7519
      7523      7521      7524      7523      7521      7525      7523      7521      7526
      7524      7521      7525      7524      7521      7526      7525      7521      7526
      7521      7526      7528      7521      7526      7534      7528      7526      7534
      7526      7528      7530      7526      7528      7531      7530      7528      7531
      7528      7531      7533      7528      7531      7537      7533      7531      7537
      7526      7534      7536      7526      7534      7537      7536      7534      7537
      7531      7537      7534      7531      7537      7539      7534      7537      7539
      7543      7541      7544      7543      7541      7545      7543      7541      7546
      7544      7541      7545      7544      7541      7546      7545      7541      7546
      7541      7546      7548      7541      7546      7554      7548      7546      7554
      7546      7548      7550      7546      7548      7551      7550      7548      7551
      7548      7551      7553      7548      7551      7557      7553      7551      7557
      7546      7554      7556      7546      7554      7557      7556      7554      7557
      7551      7557      7554      7551      7557      7559      7554      7557      7559
      7563      7561      7564      7563      7561      7565      7563      7561      7566
      7564      7561      7565      7564      7561      7566      7565      7561      7566
      7561      7566      7568      7561      7566      7574      7568      7566      7574
      7566      7568      7570      7566      7568      7571      7570      7568      7571
      7568      7571      7573      7568      7571      7577      7573      7571      7577
      7566      7574      7576      7566      7574      7577      7576      7574      7577
      7571      7577      7574      7571      7577      7579      7574      7577      7579
      7583      7581      7584      7583      7581      7585      7583      7581      7586
      7584      7581      7585      7584      7581      7586      7585      7581      7586
      7581      7586      7588      7581      7586      7594      7588      7586      7594
      7586      7588      7590      7586      7588      7591      7590      7588      7591
      7588      7591      7593      7588      7591      7597      7593      7591      7597
      7586      7594      7596      7586      7594      7597      7596      7594      7597
      7591      7597      7594      7591      7597      7599      7594      7597      7599
      7603      7601      7604      7603      7601      7605      7603      7601      7606
      7604      7601      7605      7604      7601      7606      7605      7601      7606
      7601      7606      7608      7601      7606      7614      7608      7606      7614
      7606      7608      7610      7606      7608      7611      7610      7608      7611
      7608      7611      7613      7608      7611      7617      7613      7611      7617
      7606      7614      7616      7606      7614      7617      7616      7614      7617
      7611      7617      7614      7611      7617      7619      7614      7617      7619
      7623      7621      7624      7623      7621      7625      7623      7621      7626
      7624      7621      7625      7624      7621      7626      7625      7621      7626
      7621      7626      7628      7621      7626      7634      7628      7626      7634
      7626      7628      7630      7626      7628      7631      7630      7628      7631
      7628      7631      7633      7628      7631      7637      7633      7631      7637
      7626      7634      7636      7626      7634      7637      7636      7634      7637
      7631      7637      7634      7631      7637      7639      7634      7637      7639
      7643      7641      7644      7643      7641      7645      7643      7641      7646
      7644      7641      7645      7644      7641      7646      7645      7641      7646
      7641      7646      7648      7641      7646      7654      7648      7646      7654
      7646      7648      7650      7646      7648      7651      7650      7648      7651
      7648      7651      7653      7648      7651      7657      7653      7651      7657
      7646      7654      7656      7646      7654      7657      7656      7654      7657
      7651      7657      7654      7651      7657      7659      7654      7657      7659
      7663      7661      7664      7663      7661      7665      7663      7661      7666
      7664      7661      7665      7664      7661      7666      7665      7661      7666
      7661      7666      7668      7661      7666      7674      7668      7666      7674
      7666      7668      7670      7666      7668      7671      7670      7668      7671
      7668      7671      7673      7668      7671      7677      7673      7671      7677
      7666      7674      7676      7666      7674      7677      7676      7674      7677
      7671      7677      7674      7671      7677      7679      7674      7677      7679
      7683      7681      7684      7683      7681      7685      7683      7681      7686
      7684      7681      7685      7684      7681      7686      7685      7681      7686
      7681      7686      7688      7681      7686      7694      7688      7686      7694
      7686      7688      7690      7686      7688      7691      7690      7688      7691
      7688      7691      7693      7688      7691      7697      7693      7691      7697
      7686      7694      7696      7686      7694      7697      7696      7694      7697
      7691      7697      7694      7691      7697      7699      7694      7697      7699
      7703      7701      7704      7703      7701      7705      7703      7701      7706
      7704      7701      7705      7704      7701      7706      7705      7701      7706
      7701      7706      7708      7701      7706      7714      7708      7706      7714
      7706      7708      7710      7706      7708      7711      7710      7708      7711
      7708      7711      7713      7708      7711      7717      7713      7711      7717
      7706      7714      7716      7706      7714      7717      7716      7714      7717
      7711      7717      7714      7711      7717      7719      7714      7717      7719
      7723      7721      7724      7723      7721      7725      7723      7721      7726
      7724      7721      7725      7724      7721      7726      7725      7721      7726
      7721      7726      7728      7721      7726      7734      7728      7726      7734
      7726      7728      7730      7726      7728      7731      7730      7728      7731
      7728      7731      7733      7728      7731      7737      7733      7731      7737
      7726      7734      7736      7726      7734      7737      7736      7734      7737
      7731      7737      7734      7731      7737      7739      7734      7737      7739
      7743      7741      7744      7743      7741      7745      7743      7741      7746
      7744      7741      7745      7744      7741      7746      7745      7741      7746
      7741      7746      7748      7741      7746      7754      7748      7746      7754
      7746      7748      7750      7746      7748      7751      7750      7748      7751
      7748      7751      7753      7748      7751      7757      7753      7751      7757
      7746      7754      7756      7746      7754      7757      7756      7754      7757
      7751      7757      7754      7751      7757      7759      7754      7757      7759
      7763      7761      7764      7763      7761      7765      7763      7761      7766
      7764      7761      7765      7764      7761      7766      7765      7761      7766
      7761      7766      7768      7761      7766      7774      7768      7766      7774
      7766      7768      7770      7766      7768      7771      7770      7768      7771
      7768      7771      7773      7768      7771      7777      7773      7771      7777
      7766      7774      7776      7766      7774      7777      7776      7774      7777
      7771      7777      7774      7771      7777      7779      7774      7777      7779
      7783      7781      7784      7783      7781      7785      7783      7781      7786
      7784      7781      7785      7784      7781      7786      7785      7781      7786
      7781      7786      7788      7781      7786      7794      7788      7786      7794
      7786      7788      7790      7786      7788      7791      7790      7788      7791
      7788      7791      7793      7788      7791      7797      7793      7791      7797
      7786      7794      7796      7786      7794      7797      7796      7794      7797
      7791      7797      7794      7791      7797      7799      7794      7797      7799
      7803      7801      7804      7803      7801      7805      7803      7801      7806
      7804      7801      7805      7804      7801      7806      7805      7801      7806
      7801      7806      7808      7801      7806      7814      7808      7806      7814
      7806      7808      7810      7806      7808      7811      7810      7808      7811
      7808      7811      7813      7808      7811      7817      7813      7811      7817
      7806      7814      7816      7806      7814      7817      7816      7814      7817
      7811      7817      7814      7811      7817      7819      7814      7817      7819
      7823      7821      7824      7823      7821      7825      7823      7821      7826
      7824      7821      7825      7824      7821      7826      7825      7821      7826
      7821      7826      7828      7821      7826      7834      7828      7826      7834
      7826      7828      7830      7826      7828      7831      7830      7828      7831
      7828      7831      7833      7828      7831      7837      7833      7831      7837
      7826      7834      7836      7826      7834      7837      7836      7834      7837
      7831      7837      7834      7831      7837      7839      7834      7837      7839
      7843      7841      7844      7843      7841      7845      7843      7841      7846
      7844      7841      7845      7844      7841      7846      7845      7841      7846
      7841      7846      7848      7841      7846      7854      7848      7846      7854
      7846      7848      7850      7846      7848      7851      7850      7848      7851
      7848      7851      7853      7848      7851      7857      7853      7851      7857
      7846      7854      7856      7846      7854      7857      7856      7854      7857
      7851      7857      7854      7851      7857      7859      7854      7857      7859
      7863      7861      7864      7863      7861      7865      7863      7861      7866
      7864      7861      7865      7864      7861      7866      7865      7861      7866
      7861      7866      7868      7861      7866      7874      7868      7866      7874
      7866      7868      7870      7866      7868      7871      7870      7868      7871
      7868      7871      7873      7868      7871      7877      7873      7871      7877
      7866      7874      7876      7866      7874      7877      7876      7874      7877
      7871      7877      7874      7871      7877      7879      7874      7877      7879
      7883      7881      7884      7883      7881      7885      7883      7881      7886
      7884      7881      7885      7884      7881      7886      7885      7881      7886
      7881      7886      7888      7881      7886      7894      7888      7886      7894
      7886      7888      7890      7886      7888      7891      7890      7888      7891
      7888      7891      7893      7888      7891      7897      7893      7891      7897
      7886      7894      7896      7886      7894      7897      7896      7894      7897
      7891      7897      7894      7891      7897      7899      7894      7897      7899
      7903      7901      7904      7903      7901      7905      7903      7901      7906
      7904      7901      7905      7904      7901      7906      7905      7901      7906
      7901      7906      7908      7901      7906      7914      7908      7906      7914
      7906      7908      7910      7906      7908      7911      7910      7908      7911
      7908      7911      7913      7908      7911      7917      7913      7911      7917
      7906      7914      7916      7906      7914      7917      7916      7914      7917
      7911      7917      7914      7911      7917      7919      7914      7917      7919
      7923      7921      7924      7923      7921      7925      7923      7921      7926
      7924      7921      7925      7924      7921      7926      7925      7921      7926
      7921      7926      7928      7921      7926      7934      7928      7926      7934
      7926      7928      7930      7926      7928      7931      7930      7928      7931
      7928      7931      7933      7928      7931      7937      7933      7931      7937
      7926      7934      7936      7926      7934      7937      7936      7934      7937
      7931      7937      7934      7931      7937      7939      7934      7937      7939
      7943      7941      7944      7943      7941      7945      7943      7941      7946
      7944      7941      7945      7944      7941      7946      7945      7941      7946
      7941      7946      7948      7941      7946      7954      7948      7946      7954
      7946      7948      7950      7946      7948      7951      7950      7948      7951
      7948      7951      7953      7948      7951      7957      7953      7951      7957
      7946      7954      7956      7946      7954      7957      7956      7954      7957
      7951      7957      7954      7951      7957      7959      7954      7957      7959
      7963      7961      7964      7963      7961      7965      7963      7961      7966
      7964      7961      7965      7964      7961      7966      7965      7961      7966
      7961      7966      7968      7961      7966      7974      7968      7966      7974
      7966      7968      7970      7966      7968      7971      7970      7968      7971
      7968      7971      7973      7968      7971      7977      7973      7971      7977
      7966      7974      7976      7966      7974      7977      7976      7974      7977
      7971      7977      7974      7971      7977      7979      7974      7977      7979
      7983      7981      7984      7983      7981      7985      7983      7981      7986
      7984      7981      7985      7984      7981      7986      7985      7981      7986
      7981      7986      7988      7981      7986      7994      7988      7986      7994
      7986      7988      7990      7986      7988      7991      7990      7988      7991
      7988      7991      7993      7988      7991      7997      7993      7991      7997
      7986      7994      7996      7986      7994      7997      7996      7994      7997
      7991      7997      7994      7991      7997      7999      7994      7997      7999
      8003      8001      8004      8003      8001      8005      8003      8001      8006
      8004      8001      8005      8004      8001      8006      8005      8001      8006
      8001      8006      8008      8001      8006      8014      8008      8006      8014
      8006      8008      8010      8006      8008      8011      8010      8008      8011
      8008      8011      8013      8008      8011      8017      8013      8011      8017
      8006      8014      8016      8006      8014      8017      8016      8014      8017
      8011      8017      8014      8011      8017      8019      8014      8017      8019
      8023      8021      8024      8023      8021      8025      8023      8021      8026
      8024      8021      8025      8024      8021      8026      8025      8021      8026
      8021      8026      8028      8021      8026      8034      8028      8026      8034
      8026      8028      8030      8026      8028      8031      8030      8028      8031
      8028      8031      8033      8028      8031      8037      8033      8031      8037
      8026      8034      8036      8026      8034      8037      8036      8034      8037
      8031      8037      8034      8031      8037      8039      8034      8037      8039
      8043      8041      8044      8043      8041      8045      8043      8041      8046
      8044      8041      8045      8044      8041      8046      8045      8041      8046
      8041      8046      8048      8041      8046      8054      8048      8046      8054
      8046      8048      8050      8046      8048      8051      8050      8048      8051
      8048      8051      8053      8048      8051      8057      8053      8051      8057
      8046      8054      8056      8046      8054      8057      8056      8054      8057
      8051      8057      8054      8051      8057      8059      8054      8057      8059
      8063      8061      8064      8063      8061      8065      8063      8061      8066
      8064      8061      8065      8064      8061      8066      8065      8061      8066
      8061      8066      8068      8061      8066      8074      8068      8066      8074
      8066      8068      8070      8066      8068      8071      8070      8068      8071
      8068      8071      8073      8068      8071      8077      8073      8071      8077
      8066      8074      8076      8066      8074      8077      8076      8074      8077
      8071      8077      8074      8071      8077      8079      8074      8077      8079
      8083      8081      8084      8083      8081      8085      8083      8081      8086
      8084      8081      8085      8084      8081      8086      8085      8081      8086
      8081      8086      8088      8081      8086      8094      8088      8086      8094
      8086      8088      8090      8086      8088      8091      8090      8088      8091
      8088      8091      8093      8088      8091      8097      8093      8091      8097
      8086      8094      8096      8086      8094      8097      8096      8094      8097
      8091      8097      8094      8091      8097      8099      8094      8097      8099
      8103      8101      8104      8103      8101      8105      8103      8101      8106
      8104      8101      8105      8104      8101      8106      8105      8101      8106
      8101      8106      8108      8101      8106      8114      8108      8106      8114
      8106      8108      8110      8106      8108      8111      8110      8108      8111
      8108      8111      8113      8108      8111      8117      8113      8111      8117
      8106      8114      8116      8106      8114      8117      8116      8114      8117
      8111      8117      8114      8111      8117      8119      8114      8117      8119
      8123      8121      8124      8123      8121      8125      8123      8121      8126
      8124      8121      8125      8124      8121      8126      8125      8121      8126
      8121      8126      8128      8121      8126      8134      8128      8126      8134
      8126      8128      8130      8126      8128      8131      8130      8128      8131
      8128      8131      8133      8128      8131      8137      8133      8131      8137
      8126      8134      8136      8126      8134      8137      8136      8134      8137
      8131      8137      8134      8131      8137      8139      8134      8137      8139
      8143      8141      8144      8143      8141      8145      8143      8141      8146
      8144      8141      8145      8144      8141      8146      8145      8141      8146
      8141      8146      8148      8141      8146      8154      8148      8146      8154
      8146      8148      8150      8146      8148      8151      8150      8148      8151
      8148      8151      8153      8148      8151      8157      8153      8151      8157
      8146      8154      8156      8146      8154      8157      8156      8154      8157
      8151      8157      8154      8151      8157      8159      8154      8157      8159
      8163      8161      8164      8163      8161      8165      8163      8161      8166
      8164      8161      8165      8164      8161      8166      8165      8161      8166
      8161      8166      8168      8161      8166      8174      8168      8166      8174
      8166      8168      8170      8166      8168      8171      8170      8168      8171
      8168      8171      8173      8168      8171      8177      8173      8171      8177
      8166      8174      8176      8166      8174      8177      8176      8174      8177
      8171      8177      8174      8171      8177      8179      8174      8177      8179
      8183      8181      8184      8183      8181      8185      8183      8181      8186
      8184      8181      8185      8184      8181      8186      8185      8181      8186
      8181      8186      8188      8181      8186      8194      8188      8186      8194
      8186      8188      8190      8186      8188      8191      8190      8188      8191
      8188      8191      8193      8188      8191      8197      8193      8191      8197
      8186      8194      8196      8186      8194      8197      8196      8194      8197
      8191      8197      8194      8191      8197      8199      8194      8197      8199
      8203      8201      8204      8203      8201      8205      8203      8201      8206
      8204      8201      8205      8204      8201      8206      8205      8201      8206
      8201      8206      8208      8201      8206      8214      8208      8206      8214
      8206      8208      8210      8206      8208      8211      8210      8208      8211
      8208      8211      8213      8208      8211      8217      8213      8211      8217
      8206      8214      8216      8206      8214      8217      8216      8214      8217
      8211      8217      8214      8211      8217      8219      8214      8217      8219
      8223      8221      8224      8223      8221      8225      8223      8221      8226
      8224      8221      8225      8224      8221      8226      8225      8221      8226
      8221      8226      8228      8221      8226      8234      8228      8226      8234
      8226      8228      8230      8226      8228      8231      8230      8228      8231
      8228      8231      8233      8228      8231      8237      8233      8231      8237
      8226      8234      8236      8226      8234      8237      8236      8234      8237
      8231      8237      8234      8231      8237      8239      8234      8237      8239
      8243      8241      8244      8243      8241      8245      8243      8241      8246
      8244      8241      8245      8244      8241      8246      8245      8241      8246
      8241      8246      8248      8241      8246      8254      8248      8246      8254
      8246      8248      8250      8246      8248      8251      8250      8248      8251
      8248      8251      8253      8248      8251      8257      8253      8251      8257
      8246      8254      8256      8246      8254      8257      8256      8254      8257
      8251      8257      8254      8251      8257      8259      8254      8257      8259
      8263      8261      8264      8263      8261      8265      8263      8261      8266
      8264      8261      8265      8264      8261      8266      8265      8261      8266
      8261      8266      8268      8261      8266      8274      8268      8266      8274
      8266      8268      8270      8266      8268      8271      8270      8268      8271
      8268      8271      8273      8268      8271      8277      8273      8271      8277
      8266      8274      8276      8266      8274      8277      8276      8274      8277
      8271      8277      8274      8271      8277      8279      8274      8277      8279
      8283      8281      8284      8283      8281      8285      8283      8281      8286
      8284      8281      8285      8284      8281      8286      8285      8281      8286
      8281      8286      8288      8281      8286      8294      8288      8286      8294
      8286      8288      8290      8286      8288      8291      8290      8288      8291
      8288      8291      8293      8288      8291      8297      8293      8291      8297
      8286      8294      8296      8286      8294      8297      8296      8294      8297
      8291      8297      8294      8291      8297      8299      8294      8297      8299
      8303      8301      8304      8303      8301      8305      8303      8301      8306
      8304      8301      8305      8304      8301      8306      8305      8301      8306
      8301      8306      8308      8301      8306      8314      8308      8306      8314
      8306      8308      8310      8306      8308      8311      8310      8308      8311
      8308      8311      8313      8308      8311      8317      8313      8311      8317
      8306      8314      8316      8306      8314      8317      8316      8314      8317
      8311      8317      8314      8311      8317      8319      8314      8317      8319
      8323      8321      8324      8323      8321      8325      8323      8321      8326
      8324      8321      8325      8324      8321      8326      8325      8321      8326
      8321      8326      8328      8321      8326      8334      8328      8326      8334
      8326      8328      8330      8326      8328      8331      8330      8328      8331
      8328      8331      8333      8328      8331      8337      8333      8331      8337
      8326      8334      8336      8326      8334      8337      8336      8334      8337
      8331      8337      8334      8331      8337      8339      8334      8337      8339
      8343      8341      8344      8343      8341      8345      8343      8341      8346
      8344      8341      8345      8344      8341      8346      8345      8341      8346
      8341      8346      8348      8341      8346      8354      8348      8346      8354
      8346      8348      8350      8346      8348      8351      8350      8348      8351
      8348      8351      8353      8348      8351      8357      8353      8351      8357
      8346      8354      8356      8346      8354      8357      8356      8354      8357
      8351      8357      8354      8351      8357      8359      8354      8357      8359
      8363      8361      8364      8363      8361      8365      8363      8361      8366
      8364      8361      8365      8364      8361      8366      8365      8361      8366
      8361      8366      8368      8361      8366      8374      8368      8366      8374
      8366      8368      8370      8366      8368      8371      8370      8368      8371
      8368      8371      8373      8368      8371      8377      8373      8371      8377
      8366      8374      8376      8366      8374      8377      8376      8374      8377
      8371      8377      8374      8371      8377      8379      8374      8377      8379
      8383      8381      8384      8383      8381      8385      8383      8381      8386
      8384      8381      8385      8384      8381      8386      8385      8381      8386
      8381      8386      8388      8381      8386      8394      8388      8386      8394
      8386      8388      8390      8386      8388      8391      8390      8388      8391
      8388      8391      8393      8388      8391      8397      8393      8391      8397
      8386      8394      8396      8386      8394      8397      8396      8394      8397
      8391      8397      8394      8391      8397      8399      8394      8397      8399
      8403      8401      8404      8403      8401      8405      8403      8401      8406
      8404      8401      8405      8404      8401      8406      8405      8401      8406
      8401      8406      8408      8401      8406      8414      8408      8406      8414
      8406      8408      8410      8406      8408      8411      8410      8408      8411
      8408      8411      8413      8408      8411      8417      8413      8411      8417
      8406      8414      8416      8406      8414      8417      8416      8414      8417
      8411      8417      8414      8411      8417      8419      8414      8417      8419
      8423      8421      8424      8423      8421      8425      8423      8421      8426
      8424      8421      8425      8424      8421      8426      8425      8421      8426
      8421      8426      8428      8421      8426      8434      8428      8426      8434
      8426      8428      8430      8426      8428      8431      8430      8428      8431
      8428      8431      8433      8428      8431      8437      8433      8431      8437
      8426      8434      8436      8426      8434      8437      8436      8434      8437
      8431      8437      8434      8431      8437      8439      8434      8437      8439
      8443      8441      8444      8443      8441      8445      8443      8441      8446
      8444      8441      8445      8444      8441      8446      8445      8441      8446
      8441      8446      8448      8441      8446      8454      8448      8446      8454
      8446      8448      8450      8446      8448      8451      8450      8448      8451
      8448      8451      8453      8448      8451      8457      8453      8451      8457
      8446      8454      8456      8446      8454      8457      8456      8454      8457
      8451      8457      8454      8451      8457      8459      8454      8457      8459
      8463      8461      8464      8463      8461      8465      8463      8461      8466
      8464      8461      8465      8464      8461      8466      8465      8461      8466
      8461      8466      8468      8461      8466      8474      8468      8466      8474
      8466      8468      8470      8466      8468      8471      8470      8468      8471
      8468      8471      8473      8468      8471      8477      8473      8471      8477
      8466      8474      8476      8466      8474      8477      8476      8474      8477
      8471      8477      8474      8471      8477      8479      8474      8477      8479
      8483      8481      8484      8483      8481      8485      8483      8481      8486
      8484      8481      8485      8484      8481      8486      8485      8481      8486
      8481      8486      8488      8481      8486      8494      8488      8486      8494
      8486      8488      8490      8486      8488      8491      8490      8488      8491
      8488      8491      8493      8488      8491      8497      8493      8491      8497
      8486      8494      8496      8486      8494      8497      8496      8494      8497
      8491      8497      8494      8491      8497      8499      8494      8497      8499
      8503      8501      8504      8503      8501      8505      8503      8501      8506
      8504      8501      8505      8504      8501      8506      8505      8501      8506
      8501      8506      8508      8501      8506      8514      8508      8506      8514
      8506      8508      8510      8506      8508      8511      8510      8508      8511
      8508      8511      8513      8508      8511      8517      8513      8511      8517
      8506      8514      8516      8506      8514      8517      8516      8514      8517
      8511      8517      8514      8511      8517      8519      8514      8517      8519
      8523      8521      8524      8523      8521      8525      8523      8521      8526
      8524      8521      8525      8524      8521      8526      8525      8521      8526
      8521      8526      8528      8521      8526      8534      8528      8526      8534
      8526      8528      8530      8526      8528      8531      8530      8528      8531
      8528      8531      8533      8528      8531      8537      8533      8531      8537
      8526      8534      8536      8526      8534      8537      8536      8534      8537
      8531      8537      8534      8531      8537      8539      8534      8537      8539
      8543      8541      8544      8543      8541      8545      8543      8541      8546
      8544      8541      8545      8544      8541      8546      8545      8541      8546
      8541      8546      8548      8541      8546      8554      8548      8546      8554
      8546      8548      8550      8546      8548      8551      8550      8548      8551
      8548      8551      8553      8548      8551      8557      8553      8551      8557
      8546      8554      8556      8546      8554      8557      8556      8554      8557
      8551      8557      8554      8551      8557      8559      8554      8557      8559
      8563      8561      8564      8563      8561      8565      8563      8561      8566
      8564      8561      8565      8564      8561      8566      8565      8561      8566
      8561      8566      8568      8561      8566      8574      8568      8566      8574
      8566      8568      8570      8566      8568      8571      8570      8568      8571
      8568      8571      8573      8568      8571      8577      8573      8571      8577
      8566      8574      8576      8566      8574      8577      8576      8574      8577
      8571      8577      8574      8571      8577      8579      8574      8577      8579
      8583      8581      8584      8583      8581      8585      8583      8581      8586
      8584      8581      8585      8584      8581      8586      8585      8581      8586
      8581      8586      8588      8581      8586      8594      8588      8586      8594
      8586      8588      8590      8586      8588      8591      8590      8588      8591
      8588      8591      8593      8588      8591      8597      8593      8591      8597
      8586      8594      8596      8586      8594      8597      8596      8594      8597
      8591      8597      8594      8591      8597      8599      8594      8597      8599
      8603      8601      8604      8603      8601      8605      8603      8601      8606
      8604      8601      8605      8604      8601      8606      8605      8601      8606
      8601      8606      8608      8601      8606      8614      8608      8606      8614
      8606      8608      8610      8606      8608      8611      8610      8608      8611
      8608      8611      8613      8608      8611      8617      8613      8611      8617
      8606      8614      8616      8606      8614      8617      8616      8614      8617
      8611      8617      8614      8611      8617      8619      8614      8617      8619
      8623      8621      8624      8623      8621      8625      8623      8621      8626
      8624      8621      8625      8624      8621      8626      8625      8621      8626
      8621      8626      8628      8621      8626      8634      8628      8626      8634
      8626      8628      8630      8626      8628      8631      8630      8628      8631
      8628      8631      8633      8628      8631      8637      8633      8631      8637
      8626      8634      8636      8626      8634      8637      8636      8634      8637
      8631      8637      8634      8631      8637      8639      8634      8637      8639
      8643      8641      8644      8643      8641      8645      8643      8641      8646
      8644      8641      8645      8644      8641      8646      8645      8641      8646
      8641      8646      8648      8641      8646      8654      8648      8646      8654
      8646      8648      8650      8646      8648      8651      8650      8648      8651
      8648      8651      8653      8648      8651      8657      8653      8651      8657
      8646      8654      8656      8646      8654      8657      8656      8654      8657
      8651      8657      8654      8651      8657      8659      8654      8657      8659
      8663      8661      8664      8663      8661      8665      8663      8661      8666
      8664      8661      8665      8664      8661      8666      8665      8661      8666
      8661      8666      8668      8661      8666      8674      8668      8666      8674
      8666      8668      8670      8666      8668      8671      8670      8668      8671
      8668      8671      8673      8668      8671      8677      8673      8671      8677
      8666      8674      8676      8666      8674      8677      8676      8674      8677
      8671      8677      8674      8671      8677      8679      8674      8677      8679
      8683      8681      8684      8683      8681      8685      8683      8681      8686
      8684      8681      8685      8684      8681      8686      8685      8681      8686
      8681      8686      8688      8681      8686      8694      8688      8686      8694
      8686      8688      8690      8686      8688      8691      8690      8688      8691
      8688      8691      8693      8688      8691      8697      8693      8691      8697
      8686      8694      8696      8686      8694      8697      8696      8694      8697
      8691      8697      8694      8691      8697      8699      8694      8697      8699
      8703      8701      8704      8703      8701      8705      8703      8701      8706
      8704      8701      8705      8704      8701      8706      8705      8701      8706
      8701      8706      8708      8701      8706      8714      8708      8706      8714
      8706      8708      8710      8706      8708      8711      8710      8708      8711
      8708      8711      8713      8708      8711      8717      8713      8711      8717
      8706      8714      8716      8706      8714      8717      8716      8714      8717
      8711      8717      8714      8711      8717      8719      8714      8717      8719
      8723      8721      8724      8723      8721      8725      8723      8721      8726
      8724      8721      8725      8724      8721      8726      8725      8721      8726
      8721      8726      8728      8721      8726      8734      8728      8726      8734
      8726      8728      8730      8726      8728      8731      8730      8728      8731
      8728      8731      8733      8728      8731      8737      8733      8731      8737
      8726      8734      8736      8726      8734      8737      8736      8734      8737
      8731      8737      8734      8731      8737      8739      8734      8737      8739
      8743      8741      8744      8743      8741      8745      8743      8741      8746
      8744      8741      8745      8744      8741      8746      8745      8741      8746
      8741      8746      8748      8741      8746      8754      8748      8746      8754
      8746      8748      8750      8746      8748      8751      8750      8748      8751
      8748      8751      8753      8748      8751      8757      8753      8751      8757
      8746      8754      8756      8746      8754      8757      8756      8754      8757
      8751      8757      8754      8751      8757      8759      8754      8757      8759
      8763      8761      8764      8763      8761      8765      8763      8761      8766
      8764      8761      8765      8764      8761      8766      8765      8761      8766
      8761      8766      8768      8761      8766      8774      8768      8766      8774
      8766      8768      8770      8766      8768      8771      8770      8768      8771
      8768      8771      8773      8768      8771      8777      8773      8771      8777
      8766      8774      8776      8766      8774      8777      8776      8774      8777
      8771      8777      8774      8771      8777      8779      8774      8777      8779
      8783      8781      8784      8783      8781      8785      8783      8781      8786
      8784      8781      8785      8784      8781      8786      8785      8781      8786
      8781      8786      8788      8781      8786      8794      8788      8786      8794
      8786      8788      8790      8786      8788      8791      8790      8788      8791
      8788      8791      8793      8788      8791      8797      8793      8791      8797
      8786      8794      8796      8786      8794      8797      8796      8794      8797
      8791      8797      8794      8791      8797      8799      8794      8797      8799
      8803      8801      8804      8803      8801      8805      8803      8801      8806
      8804      8801      8805      8804      8801      8806      8805      8801      8806
      8801      8806      8808      8801      8806      8814      8808      8806      8814
      8806      8808      8810      8806      8808      8811      8810      8808      8811
      8808      8811      8813      8808      8811      8817      8813      8811      8817
      8806      8814      8816      8806      8814      8817      8816      8814      8817
      8811      8817      8814      8811      8817      8819      8814      8817      8819
      8823      8821      8824      8823      8821      8825      8823      8821      8826
      8824      8821      8825      8824      8821      8826      8825      8821      8826
      8821      8826      8828      8821      8826      8834      8828      8826      8834
      8826      8828      8830      8826      8828      8831      8830      8828      8831
      8828      8831      8833      8828      8831      8837      8833      8831      8837
      8826      8834      8836      8826      8834      8837      8836      8834      8837
      8831      8837      8834      8831      8837      8839      8834      8837      8839
      8843      8841      8844      8843      8841      8845      8843      8841      8846
      8844      8841      8845      8844      8841      8846      8845      8841      8846
      8841      8846      8848      8841      8846      8854      8848      8846      8854
      8846      8848      8850      8846      8848      8851      8850      8848      8851
      8848      8851      8853      8848      8851      8857      8853      8851      8857
      8846      8854      8856      8846      8854      8857      8856      8854      8857
      8851      8857      8854      8851      8857      8859      8854      8857      8859
      8863      8861      8864      8863      8861      8865      8863      8861      8866
      8864      8861      8865      8864      8861      8866      8865      8861      8866
      8861      8866      8868      8861      8866      8874      8868      8866      8874
      8866      8868      8870      8866      8868      8871      8870      8868      8871
      8868      8871      8873      8868      8871      8877      8873      8871      8877
      8866      8874      8876      8866      8874      8877      8876      8874      8877
      8871      8877      8874      8871      8877      8879      8874      8877      8879
      8883      8881      8884      8883      8881      8885      8883      8881      8886
      8884      8881      8885      8884      8881      8886      8885      8881      8886
      8881      8886      8888      8881      8886      8894      8888      8886      8894
      8886      8888      8890      8886      8888      8891      8890      8888      8891
      8888      8891      8893      8888      8891      8897      8893      8891      8897
      8886      8894      8896      8886      8894      8897      8896      8894      8897
      8891      8897      8894      8891      8897      8899      8894      8897      8899
      8903      8901      8904      8903      8901      8905      8903      8901      8906
      8904      8901      8905      8904      8901      8906      8905      8901      8906
      8901      8906      8908      8901      8906      8914      8908      8906      8914
      8906      8908      8910      8906      8908      8911      8910      8908      8911
      8908      8911      8913      8908      8911      8917      8913      8911      8917
      8906      8914      8916      8906      8914      8917      8916      8914      8917
      8911      8917      8914      8911      8917      8919      8914      8917      8919
      8923      8921      8924      8923      8921      8925      8923      8921      8926
      8924      8921      8925      8924      8921      8926      8925      8921      8926
      8921      8926      8928      8921      8926      8934      8928      8926      8934
      8926      8928      8930      8926      8928      8931      8930      8928      8931
      8928      8931      8933      8928      8931      8937      8933      8931      8937
      8926      8934      8936      8926      8934      8937      8936      8934      8937
      8931      8937      8934      8931      8937      8939      8934      8937      8939
      8943      8941      8944      8943      8941      8945      8943      8941      8946
      8944      8941      8945      8944      8941      8946      8945      8941      8946
      8941      8946      8948      8941      8946      8954      8948      8946      8954
      8946      8948      8950      8946      8948      8951      8950      8948      8951
      8948      8951      8953      8948      8951      8957      8953      8951      8957
      8946      8954      8956      8946      8954      8957      8956      8954      8957
      8951      8957      8954      8951      8957      8959      8954      8957      8959
      8963      8961      8964      8963      8961      8965      8963      8961      8966
      8964      8961      8965      8964      8961      8966      8965      8961      8966
      8961      8966      8968      8961      8966      8974      8968      8966      8974
      8966      8968      8970      8966      8968      8971      8970      8968      8971
      8968      8971      8973      8968      8971      8977      8973      8971      8977
      8966      8974      8976      8966      8974      8977      8976      8974      8977
      8971      8977      8974      8971      8977      8979      8974      8977      8979
      8983      8981      8984      8983      8981      8985      8983      8981      8986
      8984      8981      8985      8984      8981      8986      8985      8981      8986
      8981      8986      8988      8981      8986      8994      8988      8986      8994
      8986      8988      8990      8986      8988      8991      8990      8988      8991
      8988      8991      8993      8988      8991      8997      8993      8991      8997
      8986      8994      8996      8986      8994      8997      8996      8994      8997
      8991      8997      8994      8991      8997      8999      8994      8997      8999
      9003      9001      9004      9003      9001      9005      9003      9001      9006
      9004      9001      9005      9004      9001      9006      9005      9001      9006
      9001      9006      9008      9001      9006      9014      9008      9006      9014
      9006      9008      9010      9006      9008      9011      9010      9008      9011
      9008      9011      9013      9008      9011      9017      9013      9011      9017
      9006      9014      9016      9006      9014      9017      9016      9014      9017
      9011      9017      9014      9011      9017      9019      9014      9017      9019
      9023      9021      9024      9023      9021      9025      9023      9021      9026
      9024      9021      9025      9024      9021      9026      9025      9021      9026
      9021      9026      9028      9021      9026      9034      9028      9026      9034
      9026      9028      9030      9026      9028      9031      9030      9028      9031
      9028      9031      9033      9028      9031      9037      9033      9031      9037
      9026      9034      9036      9026      9034      9037      9036      9034      9037
      9031      9037      9034      9031      9037      9039      9034      9037      9039
      9043      9041      9044      9043      9041      9045      9043      9041      9046
      9044      9041      9045      9044      9041      9046      9045      9041      9046
      9041      9046      9048      9041      9046      9054      9048      9046      9054
      9046      9048      9050      9046      9048      9051      9050      9048      9051
      9048      9051      9053      9048      9051      9057      9053      9051      9057
      9046      9054      9056      9046      9054      9057      9056      9054      9057
      9051      9057      9054      9051      9057      9059      9054      9057      9059
      9063      9061      9064      9063      9061      9065      9063      9061      9066
      9064      9061      9065      9064      9061      9066      9065      9061      9066
      9061      9066      9068      9061      9066      9074      9068      9066      9074
      9066      9068      9070      9066      9068      9071      9070      9068      9071
      9068      9071      9073      9068      9071      9077      9073      9071      9077
      9066      9074      9076      9066      9074      9077      9076      9074      9077
      9071      9077      9074      9071      9077      9079      9074      9077      9079
      9083      9081      9084      9083      9081      9085      9083      9081      9086
      9084      9081      9085      9084      9081      9086      9085      9081      9086
      9081      9086      9088      9081      9086      9094      9088      9086      9094
      9086      9088      9090      9086      9088      9091      9090      9088      9091
      9088      9091      9093      9088      9091      9097      9093      9091      9097
      9086      9094      9096      9086      9094      9097      9096      9094      9097
      9091      9097      9094      9091      9097      9099      9094      9097      9099
      9103      9101      9104      9103      9101      9105      9103      9101      9106
      9104      9101      9105      9104      9101      9106      9105      9101      9106
      9101      9106      9108      9101      9106      9114      9108      9106      9114
      9106      9108      9110      9106      9108      9111      9110      9108      9111
      9108      9111      9113      9108      9111      9117      9113      9111      9117
      9106      9114      9116      9106      9114      9117      9116      9114      9117
      9111      9117      9114      9111      9117      9119      9114      9117      9119
      9123      9121      9124      9123      9121      9125      9123      9121      9126
      9124      9121      9125      9124      9121      9126      9125      9121      9126
      9121      9126      9128      9121      9126      9134      9128      9126      9134
      9126      9128      9130      9126      9128      9131      9130      9128      9131
      9128      9131      9133      9128      9131      9137      9133      9131      9137
      9126      9134      9136      9126      9134      9137      9136      9134      9137
      9131      9137      9134      9131      9137      9139      9134      9137      9139
      9143      9141      9144      9143      9141      9145      9143      9141      9146
      9144      9141      9145      9144      9141      9146      9145      9141      9146
      9141      9146      9148      9141      9146      9154      9148      9146      9154
      9146      9148      9150      9146      9148      9151      9150      9148      9151
      9148      9151      9153      9148      9151      9157      9153      9151      9157
      9146      9154      9156      9146      9154      9157      9156      9154      9157
      9151      9157      9154      9151      9157      9159      9154      9157      9159
      9163      9161      9164      9163      9161      9165      9163      9161      9166
      9164      9161      9165      9164      9161      9166      9165      9161      9166
      9161      9166      9168      9161      9166      9174      9168      9166      9174
      9166      9168      9170      9166      9168      9171      9170      9168      9171
      9168      9171      9173      9168      9171      9177      9173      9171      9177
      9166      9174      9176      9166      9174      9177      9176      9174      9177
      9171      9177      9174      9171      9177      9179      9174      9177      9179
      9183      9181      9184      9183      9181      9185      9183      9181      9186
      9184      9181      9185      9184      9181      9186      9185      9181      9186
      9181      9186      9188      9181      9186      9194      9188      9186      9194
      9186      9188      9190      9186      9188      9191      9190      9188      9191
      9188      9191      9193      9188      9191      9197      9193      9191      9197
      9186      9194      9196      9186      9194      9197      9196      9194      9197
      9191      9197      9194      9191      9197      9199      9194      9197      9199
      9203      9201      9204      9203      9201      9205      9203      9201      9206
      9204      9201      9205      9204      9201      9206      9205      9201      9206
      9201      9206      9208      9201      9206      9214      9208      9206      9214
      9206      9208      9210      9206      9208      9211      9210      9208      9211
      9208      9211      9213      9208      9211      9217      9213      9211      9217
      9206      9214      9216      9206      9214      9217      9216      9214      9217
      9211      9217      9214      9211      9217      9219      9214      9217      9219
      9223      9221      9224      9223      9221      9225      9223      9221      9226
      9224      9221      9225      9224      9221      9226      9225      9221      9226
      9221      9226      9228      9221      9226      9234      9228      9226      9234
      9226      9228      9230      9226      9228      9231      9230      9228      9231
      9228      9231      9233      9228      9231      9237      9233      9231      9237
      9226      9234      9236      9226      9234      9237      9236      9234      9237
      9231      9237      9234      9231      9237      9239      9234      9237      9239
      9243      9241      9244      9243      9241      9245      9243      9241      9246
      9244      9241      9245      9244      9241      9246      9245      9241      9246
      9241      9246      9248      9241      9246      9254      9248      9246      9254
      9246      9248      9250      9246      9248      9251      9250      9248      9251
      9248      9251      9253      9248      9251      9257      9253      9251      9257
      9246      9254      9256      9246      9254      9257      9256      9254      9257
      9251      9257      9254      9251      9257      9259      9254      9257      9259
      9263      9261      9264      9263      9261      9265      9263      9261      9266
      9264      9261      9265      9264      9261      9266      9265      9261      9266
      9261      9266      9268      9261      9266      9274      9268      9266      9274
      9266      9268      9270      9266      9268      9271      9270      9268      9271
      9268      9271      9273      9268      9271      9277      9273      9271      9277
      9266      9274      9276      9266      9274      9277      9276      9274      9277
      9271      9277      9274      9271      9277      9279      9274      9277      9279
      9283      9281      9284      9283      9281      9285      9283      9281      9286
      9284      9281      9285      9284      9281      9286      9285      9281      9286
      9281      9286      9288      9281      9286      9294      9288      9286      9294
      9286      9288      9290      9286      9288      9291      9290      9288      9291
      9288      9291      9293      9288      9291      9297      9293      9291      9297
      9286      9294      9296      9286      9294      9297      9296      9294      9297
      9291      9297      9294      9291      9297      9299      9294      9297      9299
      9303      9301      9304      9303      9301      9305      9303      9301      9306
      9304      9301      9305      9304      9301      9306      9305      9301      9306
      9301      9306      9308      9301      9306      9314      9308      9306      9314
      9306      9308      9310      9306      9308      9311      9310      9308      9311
      9308      9311      9313      9308      9311      9317      9313      9311      9317
      9306      9314      9316      9306      9314      9317      9316      9314      9317
      9311      9317      9314      9311      9317      9319      9314      9317      9319
      9323      9321      9324      9323      9321      9325      9323      9321      9326
      9324      9321      9325      9324      9321      9326      9325      9321      9326
      9321      9326      9328      9321      9326      9334      9328      9326      9334
      9326      9328      9330      9326      9328      9331      9330      9328      9331
      9328      9331      9333      9328      9331      9337      9333      9331      9337
      9326      9334      9336      9326      9334      9337      9336      9334      9337
      9331      9337      9334      9331      9337      9339      9334      9337      9339
      9343      9341      9344      9343      9341      9345      9343      9341      9346
      9344      9341      9345      9344      9341      9346      9345      9341      9346
      9341      9346      9348      9341      9346      9354      9348      9346      9354
      9346      9348      9350      9346      9348      9351      9350      9348      9351
      9348      9351      9353      9348      9351      9357      9353      9351      9357
      9346      9354      9356      9346      9354      9357      9356      9354      9357
      9351      9357      9354      9351      9357      9359      9354      9357      9359
      9363      9361      9364      9363      9361      9365      9363      9361      9366
      9364      9361      9365      9364      9361      9366      9365      9361      9366
      9361      9366      9368      9361      9366      9374      9368      9366      9374
      9366      9368      9370      9366      9368      9371      9370      9368      9371
      9368      9371      9373      9368      9371      9377      9373      9371      9377
      9366      9374      9376      9366      9374      9377      9376      9374      9377
      9371      9377      9374      9371      9377      9379      9374      9377      9379
      9383      9381      9384      9383      9381      9385      9383      9381      9386
      9384      9381      9385      9384      9381      9386      9385      9381      9386
      9381      9386      9388      9381      9386      9394      9388      9386      9394
      9386      9388      9390      9386      9388      9391      9390      9388      9391
      9388      9391      9393      9388      9391      9397      9393      9391      9397
      9386      9394      9396      9386      9394      9397      9396      9394      9397
      9391      9397      9394      9391      9397      9399      9394      9397      9399
      9403      9401      9404      9403      9401      9405      9403      9401      9406
      9404      9401      9405      9404      9401      9406      9405      9401      9406
      9401      9406      9408      9401      9406      9414      9408      9406      9414
      9406      9408      9410      9406      9408      9411      9410      9408      9411
      9408      9411      9413      9408      9411      9417      9413      9411      9417
      9406      9414      9416      9406      9414      9417      9416      9414      9417
      9411      9417      9414      9411      9417      9419      9414      9417      9419
      9423      9421      9424      9423      9421      9425      9423      9421      9426
      9424      9421      9425      9424      9421      9426      9425      9421      9426
      9421      9426      9428      9421      9426      9434      9428      9426      9434
      9426      9428      9430      9426      9428      9431      9430      9428      9431
      9428      9431      9433      9428      9431      9437      9433      9431      9437
      9426      9434      9436      9426      9434      9437      9436      9434      9437
      9431      9437      9434      9431      9437      9439      9434      9437      9439
      9443      9441      9444      9443      9441      9445      9443      9441      9446
      9444      9441      9445      9444      9441      9446      9445      9441      9446
      9441      9446      9448      9441      9446      9454      9448      9446      9454
      9446      9448      9450      9446      9448      9451      9450      9448      9451
      9448      9451      9453      9448      9451      9457      9453      9451      9457
      9446      9454      9456      9446      9454      9457      9456      9454      9457
      9451      9457      9454      9451      9457      9459      9454      9457      9459
      9463      9461      9464      9463      9461      9465      9463      9461      9466
      9464      9461      9465      9464      9461      9466      9465      9461      9466
      9461      9466      9468      9461      9466      9474      9468      9466      9474
      9466      9468      9470      9466      9468      9471      9470      9468      9471
      9468      9471      9473      9468      9471      9477      9473      9471      9477
      9466      9474      9476      9466      9474      9477      9476      9474      9477
      9471      9477      9474      9471      9477      9479      9474      9477      9479
      9483      9481      9484      9483      9481      9485      9483      9481      9486
      9484      9481      9485      9484      9481      9486      9485      9481      9486
      9481      9486      9488      9481      9486      9494      9488      9486      9494
      9486      9488      9490      9486      9488      9491      9490      9488      9491
      9488      9491      9493      9488      9491      9497      9493      9491      9497
      9486      9494      9496      9486      9494      9497      9496      9494      9497
      9491      9497      9494      9491      9497      9499      9494      9497      9499
      9503      9501      9504      9503      9501      9505      9503      9501      9506
      9504      9501      9505      9504      9501      9506      9505      9501      9506
      9501      9506      9508      9501      9506      9514      9508      9506      9514
      9506      9508      9510      9506      9508      9511      9510      9508      9511
      9508      9511      9513      9508      9511      9517      9513      9511      9517
      9506      9514      9516      9506      9514      9517      9516      9514      9517
      9511      9517      9514      9511      9517      9519      9514      9517      9519
      9523      9521      9524      9523      9521      9525      9523      9521      9526
      9524      9521      9525      9524      9521      9526      9525      9521      9526
      9521      9526      9528      9521      9526      9534      9528      9526      9534
      9526      9528      9530      9526      9528      9531      9530      9528      9531
      9528      9531      9533      9528      9531      9537      9533      9531      9537
      9526      9534      9536      9526      9534      9537      9536      9534      9537
      9531      9537      9534      9531      9537      9539      9534      9537      9539
      9543      9541      9544      9543      9541      9545      9543      9541      9546
      9544      9541      9545      9544      9541      9546      9545      9541      9546
      9541      9546      9548      9541      9546      9554      9548      9546      9554
      9546      9548      9550      9546      9548      9551      9550      9548      9551
      9548      9551      9553      9548      9551      9557      9553      9551      9557
      9546      9554      9556      9546      9554      9557      9556      9554      9557
      9551      9557      9554      9551      9557      9559      9554      9557      9559
      9563      9561      9564      9563      9561      9565      9563      9561      9566
      9564      9561      9565      9564      9561      9566      9565      9561      9566
      9561      9566      9568      9561      9566      9574      9568      9566      9574
      9566      9568      9570      9566      9568      9571      9570      9568      9571
      9568      9571      9573      9568      9571      9577      9573      9571      9577
      9566      9574      9576      9566      9574      9577      9576      9574      9577
      9571      9577      9574      9571      9577      9579      9574      9577      9579
      9583      9581      9584      9583      9581      9585      9583      9581      9586
      9584      9581      9585      9584      9581      9586      9585      9581      9586
      9581      9586      9588      9581      9586      9594      9588      9586      9594
      9586      9588      9590      9586      9588      9591      9590      9588      9591
      9588      9591      9593      9588      9591      9597      9593      9591      9597
      9586      9594      9596      9586      9594      9597      9596      9594      9597
      9591      9597      9594      9591      9597      9599      9594      9597      9599
      9603      9601      9604      9603      9601      9605      9603      9601      9606
      9604      9601      9605      9604      9601      9606      9605      9601      9606
      9601      9606      9608      9601      9606      9614      9608      9606      9614
      9606      9608      9610      9606      9608      9611      9610      9608      9611
      9608      9611      9613      9608      9611      9617      9613      9611      9617
      9606      9614      9616      9606      9614      9617      9616      9614      9617
      9611      9617      9614      9611      9617      9619      9614      9617      9619
      9623      9621      9624      9623      9621      9625      9623      9621      9626
      9624      9621      9625      9624      9621      9626      9625      9621      9626
      9621      9626      9628      9621      9626      9634      9628      9626      9634
      9626      9628      9630      9626      9628      9631      9630      9628      9631
      9628      9631      9633      9628      9631      9637      9633      9631      9637
      9626      9634      9636      9626      9634      9637      9636      9634      9637
      9631      9637      9634      9631      9637      9639      9634      9637      9639
      9643      9641      9644      9643      9641      9645      9643      9641      9646
      9644      9641      9645      9644      9641      9646      9645      9641      9646
      9641      9646      9648      9641      9646      9654      9648      9646      9654
      9646      9648      9650      9646      9648      9651      9650      9648      9651
      9648      9651      9653      9648      9651      9657      9653      9651      9657
      9646      9654      9656      9646      9654      9657      9656      9654      9657
      9651      9657      9654      9651      9657      9659      9654      9657      9659
      9663      9661      9664      9663      9661      9665      9663      9661      9666
      9664      9661      9665      9664      9661      9666      9665      9661      9666
      9661      9666      9668      9661      9666      9674      9668      9666      9674
      9666      9668      9670      9666      9668      9671      9670      9668      9671
      9668      9671      9673      9668      9671      9677      9673      9671      9677
      9666      9674      9676      9666      9674      9677      9676      9674      9677
      9671      9677      9674      9671      9677      9679      9674      9677      9679
      9683      9681      9684      9683      9681      9685      9683      9681      9686
      9684      9681      9685      9684      9681      9686      9685      9681      9686
      9681      9686      9688      9681      9686      9694      9688      9686      9694
      9686      9688      9690      9686      9688      9691      9690      9688      9691
      9688      9691      9693      9688      9691      9697      9693      9691      9697
      9686      9694      9696      9686      9694      9697      9696      9694      9697
      9691      9697      9694      9691      9697      9699      9694      9697      9699
      9703      9701      9704      9703      9701      9705      9703      9701      9706
      9704      9701      9705      9704      9701      9706      9705      9701      9706
      9701      9706      9708      9701      9706      9714      9708      9706      9714
      9706      9708      9710      9706      9708      9711      9710      9708      9711
      9708      9711      9713      9708      9711      9717      9713      9711      9717
      9706      9714      9716      9706      9714      9717      9716      9714      9717
      9711      9717      9714      9711      9717      9719      9714      9717      9719
      9723      9721      9724      9723      9721      9725      9723      9721      9726
      9724      9721      9725      9724      9721      9726      9725      9721      9726
      9721      9726      9728      9721      9726      9734      9728      9726      9734
      9726      9728      9730      9726      9728      9731      9730      9728      9731
      9728      9731      9733      9728      9731      9737      9733      9731      9737
      9726      9734      9736      9726      9734      9737      9736      9734      9737
      9731      9737      9734      9731      9737      9739      9734      9737      9739
      9743      9741      9744      9743      9741      9745      9743      9741      9746
      9744      9741      9745      9744      9741      9746      9745      9741      9746
      9741      9746      9748      9741      9746      9754      9748      9746      9754
      9746      9748      9750      9746      9748      9751      9750      9748      9751
      9748      9751      9753      9748      9751      9757      9753      9751      9757
      9746      9754      9756      9746      9754      9757      9756      9754      9757
      9751      9757      9754      9751      9757      9759      9754      9757      9759
      9763      9761      9764      9763      9761      9765      9763      9761      9766
      9764      9761      9765      9764      9761      9766      9765      9761      9766
      9761      9766      9768      9761      9766      9774      9768      9766      9774
      9766      9768      9770      9766      9768      9771      9770      9768      9771
      9768      9771      9773      9768      9771      9777      9773      9771      9777
      9766      9774      9776      9766      9774      9777      9776      9774      9777
      9771      9777      9774      9771      9777      9779      9774      9777      9779
      9783      9781      9784      9783      9781      9785      9783      9781      9786
      9784      9781      9785      9784      9781      9786      9785      9781      9786
      9781      9786      9788      9781      9786      9794      9788      9786      9794
      9786      9788      9790      9786      9788      9791      9790      9788      9791
      9788      9791      9793      9788      9791      9797      9793      9791      9797
      9786      9794      9796      9786      9794      9797      9796      9794      9797
      9791      9797      9794      9791      9797      9799      9794      9797      9799
      9803      9801      9804      9803      9801      9805      9803      9801      9806
      9804      9801      9805      9804      9801      9806      9805      9801      9806
      9801      9806      9808      9801      9806      9814      9808      9806      9814
      9806      9808      9810      9806      9808      9811      9810      9808      9811
      9808      9811      9813      9808      9811      9817      9813      9811      9817
      9806      9814      9816      9806      9814      9817      9816      9814      9817
      9811      9817      9814      9811      9817      9819      9814      9817      9819
      9823      9821      9824      9823      9821      9825      9823      9821      9826
      9824      9821      9825      9824      9821      9826      9825      9821      9826
      9821      9826      9828      9821      9826      9834      9828      9826      9834
      9826      9828      9830      9826      9828      9831      9830      9828      9831
      9828      9831      9833      9828      9831      9837      9833      9831      9837
      9826      9834      9836      9826      9834      9837      9836      9834      9837
      9831      9837      9834      9831      9837      9839      9834      9837      9839
      9843      9841      9844      9843      9841      9845      9843      9841      9846
      9844      9841      9845      9844      9841      9846      9845      9841      9846
      9841      9846      9848      9841      9846      9854      9848      9846      9854
      9846      9848      9850      9846      9848      9851      9850      9848      9851
      9848      9851      9853      9848      9851      9857      9853      9851      9857
      9846      9854      9856      9846      9854      9857      9856      9854      9857
      9851      9857      9854      9851      9857      9859      9854      9857      9859
      9863      9861      9864      9863      9861      9865      9863      9861      9866
      9864      9861      9865      9864      9861      9866      9865      9861      9866
      9861      9866      9868      9861      9866      9874      9868      9866      9874
      9866      9868      9870      9866      9868      9871      9870      9868      9871
      9868      9871      9873      9868      9871      9877      9873      9871      9877
      9866      9874      9876      9866      9874      9877      9876      9874      9877
      9871      9877      9874      9871      9877      9879      9874      9877      9879
      9883      9881      9884      9883      9881      9885      9883      9881      9886
      9884      9881      9885      9884      9881      9886      9885      9881      9886
      9881      9886      9888      9881      9886      9894      9888      9886      9894
      9886      9888      9890      9886      9888      9891      9890      9888      9891
      9888      9891      9893      9888      9891      9897      9893      9891      9897
      9886      9894      9896      9886      9894      9897      9896      9894      9897
      9891      9897      9894      9891      9897      9899      9894      9897      9899
      9903      9901      9904      9903      9901      9905      9903      9901      9906
      9904      9901      9905      9904      9901      9906      9905      9901      9906
      9901      9906      9908      9901      9906      9914      9908      9906      9914
      9906      9908      9910      9906      9908      9911      9910      9908      9911
      9908      9911      9913      9908      9911      9917      9913      9911      9917
      9906      9914      9916      9906      9914      9917      9916      9914      9917
      9911      9917      9914      9911      9917      9919      9914      9917      9919
      9923      9921      9924      9923      9921      9925      9923      9921      9926
      9924      9921      9925      9924      9921      9926      9925      9921      9926
      9921      9926      9928      9921      9926      9934      9928      9926      9934
      9926      9928      9930      9926      9928      9931      9930      9928      9931
      9928      9931      9933      9928      9931      9937      9933      9931      9937
      9926      9934      9936      9926      9934      9937      9936      9934      9937
      9931      9937      9934      9931      9937      9939      9934      9937      9939
      9943      9941      9944      9943      9941      9945      9943      9941      9946
      9944      9941      9945      9944      9941      9946      9945      9941      9946
      9941      9946      9948      9941      9946      9954      9948      9946      9954
      9946      9948      9950      9946      9948      9951      9950      9948      9951
      9948      9951      9953      9948      9951      9957      9953      9951      9957
      9946      9954      9956      9946      9954      9957      9956      9954      9957
      9951      9957      9954      9951      9957      9959      9954      9957      9959
      9963      9961      9964      9963      9961      9965      9963      9961      9966
      9964      9961      9965      9964      9961      9966      9965      9961      9966
      9961      9966      9968      9961      9966      9974      9968      9966      9974
      9966      9968      9970      9966      9968      9971      9970      9968      9971
      9968      9971      9973      9968      9971      9977      9973      9971      9977
      9966      9974      9976      9966      9974      9977      9976      9974      9977
      9971      9977      9974      9971      9977      9979      9974      9977      9979
      9983      9981      9984      9983      9981      9985      9983      9981      9986
      9984      9981      9985      9984      9981      9986      9985      9981      9986
      9981      9986      9988      9981      9986      9994      9988      9986      9994
      9986      9988      9990      9986      9988      9991      9990      9988      9991
      9988      9991      9993      9988      9991      9997      9993      9991      9997
      9986      9994      9996      9986      9994      9997      9996      9994      9997
      9991      9997      9994      9991      9997      9999      9994      9997      9999
     10003     10001     10004     10003     10001     10005     10003     10001     10006
     10004     10001     10005     10004     10001     10006     10005     10001     10006
     10001     10006     10008     10001     10006     10014     10008     10006     10014
     10006     10008     10010     10006     10008     10011     10010     10008     10011
     10008     10011     10013     10008     10011     10017     10013     10011     10017
     10006     10014     10016     10006     10014     10017     10016     10014     10017
     10011     10017     10014     10011     10017     10019     10014     10017     10019
     10023     10021     10024     10023     10021     10025     10023     10021     10026
     10024     10021     10025     10024     10021     10026     10025     10021     10026
     10021     10026     10028     10021     10026     10034     10028     10026     10034
     10026     10028     10030     10026     10028     10031     10030     10028     10031
     10028     10031     10033     10028     10031     10037     10033     10031     10037
     10026     10034     10036     10026     10034     10037     10036     10034     10037
     10031     10037     10034     10031     10037     10039     10034     10037     10039
     10043     10041     10044     10043     10041     10045     10043     10041     10046
     10044     10041     10045     10044     10041     10046     10045     10041     10046
     10041     10046     10048     10041     10046     10054     10048     10046     10054
     10046     10048     10050     10046     10048     10051     10050     10048     10051
     10048     10051     10053     10048     10051     10057     10053     10051     10057
     10046     10054     10056     10046     10054     10057     10056     10054     10057
     10051     10057     10054     10051     10057     10059     10054     10057     10059
     10063     10061     10064     10063     10061     10065     10063     10061     10066
     10064     10061     10065     10064     10061     10066     10065     10061     10066
     10061     10066     10068     10061     10066     10074     10068     10066     10074
     10066     10068     10070     10066     10068     10071     10070     10068     10071
     10068     10071     10073     10068     10071     10077     10073     10071     10077
     10066     10074     10076     10066     10074     10077     10076     10074     10077
     10071     10077     10074     10071     10077     10079     10074     10077     10079
     10083     10081     10084     10083     10081     10085     10083     10081     10086
     10084     10081     10085     10084     10081     10086     10085     10081     10086
     10081     10086     10088     10081     10086     10094     10088     10086     10094
     10086     10088     10090     10086     10088     10091     10090     10088     10091
     10088     10091     10093     10088     10091     10097     10093     10091     10097
     10086     10094     10096     10086     10094     10097     10096     10094     10097
     10091     10097     10094     10091     10097     10099     10094     10097     10099
     10103     10101     10104     10103     10101     10105     10103     10101     10106
     10104     10101     10105     10104     10101     10106     10105     10101     10106
     10101     10106     10108     10101     10106     10114     10108     10106     10114
     10106     10108     10110     10106     10108     10111     10110     10108     10111
     10108     10111     10113     10108     10111     10117     10113     10111     10117
     10106     10114     10116     10106     10114     10117     10116     10114     10117
     10111     10117     10114     10111     10117     10119     10114     10117     10119
     10123     10121     10124     10123     10121     10125     10123     10121     10126
     10124     10121     10125     10124     10121     10126     10125     10121     10126
     10121     10126     10128     10121     10126     10134     10128     10126     10134
     10126     10128     10130     10126     10128     10131     10130     10128     10131
     10128     10131     10133     10128     10131     10137     10133     10131     10137
     10126     10134     10136     10126     10134     10137     10136     10134     10137
     10131     10137     10134     10131     10137     10139     10134     10137     10139
     10143     10141     10144     10143     10141     10145     10143     10141     10146
     10144     10141     10145     10144     10141     10146     10145     10141     10146
     10141     10146     10148     10141     10146     10154     10148     10146     10154
     10146     10148     10150     10146     10148     10151     10150     10148     10151
     10148     10151     10153     10148     10151     10157     10153     10151     10157
     10146     10154     10156     10146     10154     10157     10156     10154     10157
     10151     10157     10154     10151     10157     10159     10154     10157     10159
     10163     10161     10164     10163     10161     10165     10163     10161     10166
     10164     10161     10165     10164     10161     10166     10165     10161     10166
     10161     10166     10168     10161     10166     10174     10168     10166     10174
     10166     10168     10170     10166     10168     10171     10170     10168     10171
     10168     10171     10173     10168     10171     10177     10173     10171     10177
     10166     10174     10176     10166     10174     10177     10176     10174     10177
     10171     10177     10174     10171     10177     10179     10174     10177     10179
     10183     10181     10184     10183     10181     10185     10183     10181     10186
     10184     10181     10185     10184     10181     10186     10185     10181     10186
     10181     10186     10188     10181     10186     10194     10188     10186     10194
     10186     10188     10190     10186     10188     10191     10190     10188     10191
     10188     10191     10193     10188     10191     10197     10193     10191     10197
     10186     10194     10196     10186     10194     10197     10196     10194     10197
     10191     10197     10194     10191     10197     10199     10194     10197     10199
     10203     10201     10204     10203     10201     10205     10203     10201     10206
     10204     10201     10205     10204     10201     10206     10205     10201     10206
     10201     10206     10208     10201     10206     10214     10208     10206     10214
     10206     10208     10210     10206     10208     10211     10210     10208     10211
     10208     10211     10213     10208     10211     10217     10213     10211     10217
     10206     10214     10216     10206     10214     10217     10216     10214     10217
     10211     10217     10214     10211     10217     10219     10214     10217     10219
     10223     10221     10224     10223     10221     10225     10223     10221     10226
     10224     10221     10225     10224     10221     10226     10225     10221     10226
     10221     10226     10228     10221     10226     10234     10228     10226     10234
     10226     10228     10230     10226     10228     10231     10230     10228     10231
     10228     10231     10233     10228     10231     10237     10233     10231     10237
     10226     10234     10236     10226     10234     10237     10236     10234     10237
     10231     10237     10234     10231     10237     10239     10234     10237     10239
     10243     10241     10244     10243     10241     10245     10243     10241     10246
     10244     10241     10245     10244     10241     10246     10245     10241     10246
     10241     10246     10248     10241     10246     10254     10248     10246     10254
     10246     10248     10250     10246     10248     10251     10250     10248     10251
     10248     10251     10253     10248     10251     10257     10253     10251     10257
     10246     10254     10256     10246     10254     10257     10256     10254     10257
     10251     10257     10254     10251     10257     10259     10254     10257     10259
     10263     10261     10264     10263     10261     10265     10263     10261     10266
     10264     10261     10265     10264     10261     10266     10265     10261     10266
     10261     10266     10268     10261     10266     10274     10268     10266     10274
     10266     10268     10270     10266     10268     10271     10270     10268     10271
     10268     10271     10273     10268     10271     10277     10273     10271     10277
     10266     10274     10276     10266     10274     10277     10276     10274     10277
     10271     10277     10274     10271     10277     10279     10274     10277     10279
     10283     10281     10284     10283     10281     10285     10283     10281     10286
     10284     10281     10285     10284     10281     10286     10285     10281     10286
     10281     10286     10288     10281     10286     10294     10288     10286     10294
     10286     10288     10290     10286     10288     10291     10290     10288     10291
     10288     10291     10293     10288     10291     10297     10293     10291     10297
     10286     10294     10296     10286     10294     10297     10296     10294     10297
     10291     10297     10294     10291     10297     10299     10294     10297     10299
     10303     10301     10304     10303     10301     10305     10303     10301     10306
     10304     10301     10305     10304     10301     10306     10305     10301     10306
     10301     10306     10308     10301     10306     10314     10308     10306     10314
     10306     10308     10310     10306     10308     10311     10310     10308     10311
     10308     10311     10313     10308     10311     10317     10313     10311     10317
     10306     10314     10316     10306     10314     10317     10316     10314     10317
     10311     10317     10314     10311     10317     10319     10314     10317     10319
     10323     10321     10324     10323     10321     10325     10323     10321     10326
     10324     10321     10325     10324     10321     10326     10325     10321     10326
     10321     10326     10328     10321     10326     10334     10328     10326     10334
     10326     10328     10330     10326     10328     10331     10330     10328     10331
     10328     10331     10333     10328     10331     10337     10333     10331     10337
     10326     10334     10336     10326     10334     10337     10336     10334     10337
     10331     10337     10334     10331     10337     10339     10334     10337     10339
     10343     10341     10344     10343     10341     10345     10343     10341     10346
     10344     10341     10345     10344     10341     10346     10345     10341     10346
     10341     10346     10348     10341     10346     10354     10348     10346     10354
     10346     10348     10350     10346     10348     10351     10350     10348     10351
     10348     10351     10353     10348     10351     10357     10353     10351     10357
     10346     10354     10356     10346     10354     10357     10356     10354     10357
     10351     10357     10354     10351     10357     10359     10354     10357     10359
     10363     10361     10364     10363     10361     10365     10363     10361     10366
     10364     10361     10365     10364     10361     10366     10365     10361     10366
     10361     10366     10368     10361     10366     10374     10368     10366     10374
     10366     10368     10370     10366     10368     10371     10370     10368     10371
     10368     10371     10373     10368     10371     10377     10373     10371     10377
     10366     10374     10376     10366     10374     10377     10376     10374     10377
     10371     10377     10374     10371     10377     10379     10374     10377     10379
     10383     10381     10384     10383     10381     10385     10383     10381     10386
     10384     10381     10385     10384     10381     10386     10385     10381     10386
     10381     10386     10388     10381     10386     10394     10388     10386     10394
     10386     10388     10390     10386     10388     10391     10390     10388     10391
     10388     10391     10393     10388     10391     10397     10393     10391     10397
     10386     10394     10396     10386     10394     10397     10396     10394     10397
     10391     10397     10394     10391     10397     10399     10394     10397     10399
     10403     10401     10404     10403     10401     10405     10403     10401     10406
     10404     10401     10405     10404     10401     10406     10405     10401     10406
     10401     10406     10408     10401     10406     10414     10408     10406     10414
     10406     10408     10410     10406     10408     10411     10410     10408     10411
     10408     10411     10413     10408     10411     10417     10413     10411     10417
     10406     10414     10416     10406     10414     10417     10416     10414     10417
     10411     10417     10414     10411     10417     10419     10414     10417     10419
     10423     10421     10424     10423     10421     10425     10423     10421     10426
     10424     10421     10425     10424     10421     10426     10425     10421     10426
     10421     10426     10428     10421     10426     10434     10428     10426     10434
     10426     10428     10430     10426     10428     10431     10430     10428     10431
     10428     10431     10433     10428     10431     10437     10433     10431     10437
     10426     10434     10436     10426     10434     10437     10436     10434     10437
     10431     10437     10434     10431     10437     10439     10434     10437     10439
     10443     10441     10444     10443     10441     10445     10443     10441     10446
     10444     10441     10445     10444     10441     10446     10445     10441     10446
     10441     10446     10448     10441     10446     10454     10448     10446     10454
     10446     10448     10450     10446     10448     10451     10450     10448     10451
     10448     10451     10453     10448     10451     10457     10453     10451     10457
     10446     10454     10456     10446     10454     10457     10456     10454     10457
     10451     10457     10454     10451     10457     10459     10454     10457     10459
     10463     10461     10464     10463     10461     10465     10463     10461     10466
     10464     10461     10465     10464     10461     10466     10465     10461     10466
     10461     10466     10468     10461     10466     10474     10468     10466     10474
     10466     10468     10470     10466     10468     10471     10470     10468     10471
     10468     10471     10473     10468     10471     10477     10473     10471     10477
     10466     10474     10476     10466     10474     10477     10476     10474     10477
     10471     10477     10474     10471     10477     10479     10474     10477     10479
     10483     10481     10484     10483     10481     10485     10483     10481     10486
     10484     10481     10485     10484     10481     10486     10485     10481     10486
     10481     10486     10488     10481     10486     10494     10488     10486     10494
     10486     10488     10490     10486     10488     10491     10490     10488     10491
     10488     10491     10493     10488     10491     10497     10493     10491     10497
     10486     10494     10496     10486     10494     10497     10496     10494     10497
     10491     10497     10494     10491     10497     10499     10494     10497     10499
     10503     10501     10504     10503     10501     10505     10503     10501     10506
     10504     10501     10505     10504     10501     10506     10505     10501     10506
     10501     10506     10508     10501     10506     10514     10508     10506     10514
     10506     10508     10510     10506     10508     10511     10510     10508     10511
     10508     10511     10513     10508     10511     10517     10513     10511     10517
     10506     10514     10516     10506     10514     10517     10516     10514     10517
     10511     10517     10514     10511     10517     10519     10514     10517     10519
     10523     10521     10524     10523     10521     10525     10523     10521     10526
     10524     10521     10525     10524     10521     10526     10525     10521     10526
     10521     10526     10528     10521     10526     10534     10528     10526     10534
     10526     10528     10530     10526     10528     10531     10530     10528     10531
     10528     10531     10533     10528     10531     10537     10533     10531     10537
     10526     10534     10536     10526     10534     10537     10536     10534     10537
     10531     10537     10534     10531     10537     10539     10534     10537     10539
     10543     10541     10544     10543     10541     10545     10543     10541     10546
     10544     10541     10545     10544     10541     10546     10545     10541     10546
     10541     10546     10548     10541     10546     10554     10548     10546     10554
     10546     10548     10550     10546     10548     10551     10550     10548     10551
     10548     10551     10553     10548     10551     10557     10553     10551     10557
     10546     10554     10556     10546     10554     10557     10556     10554     10557
     10551     10557     10554     10551     10557     10559     10554     10557     10559
     10563     10561     10564     10563     10561     10565     10563     10561     10566
     10564     10561     10565     10564     10561     10566     10565     10561     10566
     10561     10566     10568     10561     10566     10574     10568     10566     10574
     10566     10568     10570     10566     10568     10571     10570     10568     10571
     10568     10571     10573     10568     10571     10577     10573     10571     10577
     10566     10574     10576     10566     10574     10577     10576     10574     10577
     10571     10577     10574     10571     10577     10579     10574     10577     10579
     10583     10581     10584     10583     10581     10585     10583     10581     10586
     10584     10581     10585     10584     10581     10586     10585     10581     10586
     10581     10586     10588     10581     10586     10594     10588     10586     10594
     10586     10588     10590     10586     10588     10591     10590     10588     10591
     10588     10591     10593     10588     10591     10597     10593     10591     10597
     10586     10594     10596     10586     10594     10597     10596     10594     10597
     10591     10597     10594     10591     10597     10599     10594     10597     10599
     10603     10601     10604     10603     10601     10605     10603     10601     10606
     10604     10601     10605     10604     10601     10606     10605     10601     10606
     10601     10606     10608     10601     10606     10614     10608     10606     10614
     10606     10608     10610     10606     10608     10611     10610     10608     10611
     10608     10611     10613     10608     10611     10617     10613     10611     10617
     10606     10614     10616     10606     10614     10617     10616     10614     10617
     10611     10617     10614     10611     10617     10619     10614     10617     10619
     10623     10621     10624     10623     10621     10625     10623     10621     10626
     10624     10621     10625     10624     10621     10626     10625     10621     10626
     10621     10626     10628     10621     10626     10634     10628     10626     10634
     10626     10628     10630     10626     10628     10631     10630     10628     10631
     10628     10631     10633     10628     10631     10637     10633     10631     10637
     10626     10634     10636     10626     10634     10637     10636     10634     10637
     10631     10637     10634     10631     10637     10639     10634     10637     10639
     10643     10641     10644     10643     10641     10645     10643     10641     10646
     10644     10641     10645     10644     10641     10646     10645     10641     10646
     10641     10646     10648     10641     10646     10654     10648     10646     10654
     10646     10648     10650     10646     10648     10651     10650     10648     10651
     10648     10651     10653     10648     10651     10657     10653     10651     10657
     10646     10654     10656     10646     10654     10657     10656     10654     10657
     10651     10657     10654     10651     10657     10659     10654     10657     10659
     10663     10661     10664     10663     10661     10665     10663     10661     10666
     10664     10661     10665     10664     10661     10666     10665     10661     10666
     10661     10666     10668     10661     10666     10674     10668     10666     10674
     10666     10668     10670     10666     10668     10671     10670     10668     10671
     10668     10671     10673     10668     10671     10677     10673     10671     10677
     10666     10674     10676     10666     10674     10677     10676     10674     10677
     10671     10677     10674     10671     10677     10679     10674     10677     10679
     10683     10681     10684     10683     10681     10685     10683     10681     10686
     10684     10681     10685     10684     10681     10686     10685     10681     10686
     10681     10686     10688     10681     10686     10694     10688     10686     10694
     10686     10688     10690     10686     10688     10691     10690     10688     10691
     10688     10691     10693     10688     10691     10697     10693     10691     10697
     10686     10694     10696     10686     10694     10697     10696     10694     10697
     10691     10697     10694     10691     10697     10699     10694     10697     10699
     10703     10701     10704     10703     10701     10705     10703     10701     10706
     10704     10701     10705     10704     10701     10706     10705     10701     10706
     10701     10706     10708     10701     10706     10714     10708     10706     10714
     10706     10708     10710     10706     10708     10711     10710     10708     10711
     10708     10711     10713     10708     10711     10717     10713     10711     10717
     10706     10714     10716     10706     10714     10717     10716     10714     10717
     10711     10717     10714     10711     10717     10719     10714     10717     10719
     10723     10721     10724     10723     10721     10725     10723     10721     10726
     10724     10721     10725     10724     10721     10726     10725     10721     10726
     10721     10726     10728     10721     10726     10734     10728     10726     10734
     10726     10728     10730     10726     10728     10731     10730     10728     10731
     10728     10731     10733     10728     10731     10737     10733     10731     10737
     10726     10734     10736     10726     10734     10737     10736     10734     10737
     10731     10737     10734     10731     10737     10739     10734     10737     10739
     10743     10741     10744     10743     10741     10745     10743     10741     10746
     10744     10741     10745     10744     10741     10746     10745     10741     10746
     10741     10746     10748     10741     10746     10754     10748     10746     10754
     10746     10748     10750     10746     10748     10751     10750     10748     10751
     10748     10751     10753     10748     10751     10757     10753     10751     10757
     10746     10754     10756     10746     10754     10757     10756     10754     10757
     10751     10757     10754     10751     10757     10759     10754     10757     10759
     10763     10761     10764     10763     10761     10765     10763     10761     10766
     10764     10761     10765     10764     10761     10766     10765     10761     10766
     10761     10766     10768     10761     10766     10774     10768     10766     10774
     10766     10768     10770     10766     10768     10771     10770     10768     10771
     10768     10771     10773     10768     10771     10777     10773     10771     10777
     10766     10774     10776     10766     10774     10777     10776     10774     10777
     10771     10777     10774     10771     10777     10779     10774     10777     10779
     10783     10781     10784     10783     10781     10785     10783     10781     10786
     10784     10781     10785     10784     10781     10786     10785     10781     10786
     10781     10786     10788     10781     10786     10794     10788     10786     10794
     10786     10788     10790     10786     10788     10791     10790     10788     10791
     10788     10791     10793     10788     10791     10797     10793     10791     10797
     10786     10794     10796     10786     10794     10797     10796     10794     10797
     10791     10797     10794     10791     10797     10799     10794     10797     10799
     10803     10801     10804     10803     10801     10805     10803     10801     10806
     10804     10801     10805     10804     10801     10806     10805     10801     10806
     10801     10806     10808     10801     10806     10814     10808     10806     10814
     10806     10808     10810     10806     10808     10811     10810     10808     10811
     10808     10811     10813     10808     10811     10817     10813     10811     10817
     10806     10814     10816     10806     10814     10817     10816     10814     10817
     10811     10817     10814     10811     10817     10819     10814     10817     10819
     10823     10821     10824     10823     10821     10825     10823     10821     10826
     10824     10821     10825     10824     10821     10826     10825     10821     10826
     10821     10826     10828     10821     10826     10834     10828     10826     10834
     10826     10828     10830     10826     10828     10831     10830     10828     10831
     10828     10831     10833     10828     10831     10837     10833     10831     10837
     10826     10834     10836     10826     10834     10837     10836     10834     10837
     10831     10837     10834     10831     10837     10839     10834     10837     10839
     10843     10841     10844     10843     10841     10845     10843     10841     10846
     10844     10841     10845     10844     10841     10846     10845     10841     10846
     10841     10846     10848     10841     10846     10854     10848     10846     10854
     10846     10848     10850     10846     10848     10851     10850     10848     10851
     10848     10851     10853     10848     10851     10857     10853     10851     10857
     10846     10854     10856     10846     10854     10857     10856     10854     10857
     10851     10857     10854     10851     10857     10859     10854     10857     10859
     10863     10861     10864     10863     10861     10865     10863     10861     10866
     10864     10861     10865     10864     10861     10866     10865     10861     10866
     10861     10866     10868     10861     10866     10874     10868     10866     10874
     10866     10868     10870     10866     10868     10871     10870     10868     10871
     10868     10871     10873     10868     10871     10877     10873     10871     10877
     10866     10874     10876     10866     10874     10877     10876     10874     10877
     10871     10877     10874     10871     10877     10879     10874     10877     10879
     10883     10881     10884     10883     10881     10885     10883     10881     10886
     10884     10881     10885     10884     10881     10886     10885     10881     10886
     10881     10886     10888     10881     10886     10894     10888     10886     10894
     10886     10888     10890     10886     10888     10891     10890     10888     10891
     10888     10891     10893     10888     10891     10897     10893     10891     10897
     10886     10894     10896     10886     10894     10897     10896     10894     10897
     10891     10897     10894     10891     10897     10899     10894     10897     10899
     10903     10901     10904     10903     10901     10905     10903     10901     10906
     10904     10901     10905     10904     10901     10906     10905     10901     10906
     10901     10906     10908     10901     10906     10914     10908     10906     10914
     10906     10908     10910     10906     10908     10911     10910     10908     10911
     10908     10911     10913     10908     10911     10917     10913     10911     10917
     10906     10914     10916     10906     10914     10917     10916     10914     10917
     10911     10917     10914     10911     10917     10919     10914     10917     10919
     10923     10921     10924     10923     10921     10925     10923     10921     10926
     10924     10921     10925     10924     10921     10926     10925     10921     10926
     10921     10926     10928     10921     10926     10934     10928     10926     10934
     10926     10928     10930     10926     10928     10931     10930     10928     10931
     10928     10931     10933     10928     10931     10937     10933     10931     10937
     10926     10934     10936     10926     10934     10937     10936     10934     10937
     10931     10937     10934     10931     10937     10939     10934     10937     10939
     10943     10941     10944     10943     10941     10945     10943     10941     10946
     10944     10941     10945     10944     10941     10946     10945     10941     10946
     10941     10946     10948     10941     10946     10954     10948     10946     10954
     10946     10948     10950     10946     10948     10951     10950     10948     10951
     10948     10951     10953     10948     10951     10957     10953     10951     10957
     10946     10954     10956     10946     10954     10957     10956     10954     10957
     10951     10957     10954     10951     10957     10959     10954     10957     10959
     10963     10961     10964     10963     10961     10965     10963     10961     10966
     10964     10961     10965     10964     10961     10966     10965     10961     10966
     10961     10966     10968     10961     10966     10974     10968     10966     10974
     10966     10968     10970     10966     10968     10971     10970     10968     10971
     10968     10971     10973     10968     10971     10977     10973     10971     10977
     10966     10974     10976     10966     10974     10977     10976     10974     10977
     10971     10977     10974     10971     10977     10979     10974     10977     10979
     10983     10981     10984     10983     10981     10985     10983     10981     10986
     10984     10981     10985     10984     10981     10986     10985     10981     10986
     10981     10986     10988     10981     10986     10994     10988     10986     10994
     10986     10988     10990     10986     10988     10991     10990     10988     10991
     10988     10991     10993     10988     10991     10997     10993     10991     10997
     10986     10994     10996     10986     10994     10997     10996     10994     10997
     10991     10997     10994     10991     10997     10999     10994     10997     10999
     11003     11001     11004     11003     11001     11005     11003     11001     11006
     11004     11001     11005     11004     11001     11006     11005     11001     11006
     11001     11006     11008     11001     11006     11014     11008     11006     11014
     11006     11008     11010     11006     11008     11011     11010     11008     11011
     11008     11011     11013     11008     11011     11017     11013     11011     11017
     11006     11014     11016     11006     11014     11017     11016     11014     11017
     11011     11017     11014     11011     11017     11019     11014     11017     11019
     11023     11021     11024     11023     11021     11025     11023     11021     11026
     11024     11021     11025     11024     11021     11026     11025     11021     11026
     11021     11026     11028     11021     11026     11034     11028     11026     11034
     11026     11028     11030     11026     11028     11031     11030     11028     11031
     11028     11031     11033     11028     11031     11037     11033     11031     11037
     11026     11034     11036     11026     11034     11037     11036     11034     11037
     11031     11037     11034     11031     11037     11039     11034     11037     11039
     11043     11041     11044     11043     11041     11045     11043     11041     11046
     11044     11041     11045     11044     11041     11046     11045     11041     11046
     11041     11046     11048     11041     11046     11054     11048     11046     11054
     11046     11048     11050     11046     11048     11051     11050     11048     11051
     11048     11051     11053     11048     11051     11057     11053     11051     11057
     11046     11054     11056     11046     11054     11057     11056     11054     11057
     11051     11057     11054     11051     11057     11059     11054     11057     11059
     11063     11061     11064     11063     11061     11065     11063     11061     11066
     11064     11061     11065     11064     11061     11066     11065     11061     11066
     11061     11066     11068     11061     11066     11074     11068     11066     11074
     11066     11068     11070     11066     11068     11071     11070     11068     11071
     11068     11071     11073     11068     11071     11077     11073     11071     11077
     11066     11074     11076     11066     11074     11077     11076     11074     11077
     11071     11077     11074     11071     11077     11079     11074     11077     11079
     11083     11081     11084     11083     11081     11085     11083     11081     11086
     11084     11081     11085     11084     11081     11086     11085     11081     11086
     11081     11086     11088     11081     11086     11094     11088     11086     11094
     11086     11088     11090     11086     11088     11091     11090     11088     11091
     11088     11091     11093     11088     11091     11097     11093     11091     11097
     11086     11094     11096     11086     11094     11097     11096     11094     11097
     11091     11097     11094     11091     11097     11099     11094     11097     11099
     11103     11101     11104     11103     11101     11105     11103     11101     11106
     11104     11101     11105     11104     11101     11106     11105     11101     11106
     11101     11106     11108     11101     11106     11114     11108     11106     11114
     11106     11108     11110     11106     11108     11111     11110     11108     11111
     11108     11111     11113     11108     11111     11117     11113     11111     11117
     11106     11114     11116     11106     11114     11117     11116     11114     11117
     11111     11117     11114     11111     11117     11119     11114     11117     11119
     11123     11121     11124     11123     11121     11125     11123     11121     11126
     11124     11121     11125     11124     11121     11126     11125     11121     11126
     11121     11126     11128     11121     11126     11134     11128     11126     11134
     11126     11128     11130     11126     11128     11131     11130     11128     11131
     11128     11131     11133     11128     11131     11137     11133     11131     11137
     11126     11134     11136     11126     11134     11137     11136     11134     11137
     11131     11137     11134     11131     11137     11139     11134     11137     11139
     11143     11141     11144     11143     11141     11145     11143     11141     11146
     11144     11141     11145     11144     11141     11146     11145     11141     11146
     11141     11146     11148     11141     11146     11154     11148     11146     11154
     11146     11148     11150     11146     11148     11151     11150     11148     11151
     11148     11151     11153     11148     11151     11157     11153     11151     11157
     11146     11154     11156     11146     11154     11157     11156     11154     11157
     11151     11157     11154     11151     11157     11159     11154     11157     11159
     11163     11161     11164     11163     11161     11165     11163     11161     11166
     11164     11161     11165     11164     11161     11166     11165     11161     11166
     11161     11166     11168     11161     11166     11174     11168     11166     11174
     11166     11168     11170     11166     11168     11171     11170     11168     11171
     11168     11171     11173     11168     11171     11177     11173     11171     11177
     11166     11174     11176     11166     11174     11177     11176     11174     11177
     11171     11177     11174     11171     11177     11179     11174     11177     11179
     11183     11181     11184     11183     11181     11185     11183     11181     11186
     11184     11181     11185     11184     11181     11186     11185     11181     11186
     11181     11186     11188     11181     11186     11194     11188     11186     11194
     11186     11188     11190     11186     11188     11191     11190     11188     11191
     11188     11191     11193     11188     11191     11197     11193     11191     11197
     11186     11194     11196     11186     11194     11197     11196     11194     11197
     11191     11197     11194     11191     11197     11199     11194     11197     11199
     11203     11201     11204     11203     11201     11205     11203     11201     11206
     11204     11201     11205     11204     11201     11206     11205     11201     11206
     11201     11206     11208     11201     11206     11214     11208     11206     11214
     11206     11208     11210     11206     11208     11211     11210     11208     11211
     11208     11211     11213     11208     11211     11217     11213     11211     11217
     11206     11214     11216     11206     11214     11217     11216     11214     11217
     11211     11217     11214     11211     11217     11219     11214     11217     11219
     11223     11221     11224     11223     11221     11225     11223     11221     11226
     11224     11221     11225     11224     11221     11226     11225     11221     11226
     11221     11226     11228     11221     11226     11234     11228     11226     11234
     11226     11228     11230     11226     11228     11231     11230     11228     11231
     11228     11231     11233     11228     11231     11237     11233     11231     11237
     11226     11234     11236     11226     11234     11237     11236     11234     11237
     11231     11237     11234     11231     11237     11239     11234     11237     11239
     11243     11241     11244     11243     11241     11245     11243     11241     11246
     11244     11241     11245     11244     11241     11246     11245     11241     11246
     11241     11246     11248     11241     11246     11254     11248     11246     11254
     11246     11248     11250     11246     11248     11251     11250     11248     11251
     11248     11251     11253     11248     11251     11257     11253     11251     11257
     11246     11254     11256     11246     11254     11257     11256     11254     11257
     11251     11257     11254     11251     11257     11259     11254     11257     11259
     11263     11261     11264     11263     11261     11265     11263     11261     11266
     11264     11261     11265     11264     11261     11266     11265     11261     11266
     11261     11266     11268     11261     11266     11274     11268     11266     11274
     11266     11268     11270     11266     11268     11271     11270     11268     11271
     11268     11271     11273     11268     11271     11277     11273     11271     11277
     11266     11274     11276     11266     11274     11277     11276     11274     11277
     11271     11277     11274     11271     11277     11279     11274     11277     11279
     11283     11281     11284     11283     11281     11285     11283     11281     11286
     11284     11281     11285     11284     11281     11286     11285     11281     11286
     11281     11286     11288     11281     11286     11294     11288     11286     11294
     11286     11288     11290     11286     11288     11291     11290     11288     11291
     11288     11291     11293     11288     11291     11297     11293     11291     11297
     11286     11294     11296     11286     11294     11297     11296     11294     11297
     11291     11297     11294     11291     11297     11299     11294     11297     11299
     11303     11301     11304     11303     11301     11305     11303     11301     11306
     11304     11301     11305     11304     11301     11306     11305     11301     11306
     11301     11306     11308     11301     11306     11314     11308     11306     11314
     11306     11308     11310     11306     11308     11311     11310     11308     11311
     11308     11311     11313     11308     11311     11317     11313     11311     11317
     11306     11314     11316     11306     11314     11317     11316     11314     11317
     11311     11317     11314     11311     11317     11319     11314     11317     11319
     11323     11321     11324     11323     11321     11325     11323     11321     11326
     11324     11321     11325     11324     11321     11326     11325     11321     11326
     11321     11326     11328     11321     11326     11334     11328     11326     11334
     11326     11328     11330     11326     11328     11331     11330     11328     11331
     11328     11331     11333     11328     11331     11337     11333     11331     11337
     11326     11334     11336     11326     11334     11337     11336     11334     11337
     11331     11337     11334     11331     11337     11339     11334     11337     11339
     11343     11341     11344     11343     11341     11345     11343     11341     11346
     11344     11341     11345     11344     11341     11346     11345     11341     11346
     11341     11346     11348     11341     11346     11354     11348     11346     11354
     11346     11348     11350     11346     11348     11351     11350     11348     11351
     11348     11351     11353     11348     11351     11357     11353     11351     11357
     11346     11354     11356     11346     11354     11357     11356     11354     11357
     11351     11357     11354     11351     11357     11359     11354     11357     11359
     11363     11361     11364     11363     11361     11365     11363     11361     11366
     11364     11361     11365     11364     11361     11366     11365     11361     11366
     11361     11366     11368     11361     11366     11374     11368     11366     11374
     11366     11368     11370     11366     11368     11371     11370     11368     11371
     11368     11371     11373     11368     11371     11377     11373     11371     11377
     11366     11374     11376     11366     11374     11377     11376     11374     11377
     11371     11377     11374     11371     11377     11379     11374     11377     11379
     11383     11381     11384     11383     11381     11385     11383     11381     11386
     11384     11381     11385     11384     11381     11386     11385     11381     11386
     11381     11386     11388     11381     11386     11394     11388     11386     11394
     11386     11388     11390     11386     11388     11391     11390     11388     11391
     11388     11391     11393     11388     11391     11397     11393     11391     11397
     11386     11394     11396     11386     11394     11397     11396     11394     11397
     11391     11397     11394     11391     11397     11399     11394     11397     11399
     11403     11401     11404     11403     11401     11405     11403     11401     11406
     11404     11401     11405     11404     11401     11406     11405     11401     11406
     11401     11406     11408     11401     11406     11414     11408     11406     11414
     11406     11408     11410     11406     11408     11411     11410     11408     11411
     11408     11411     11413     11408     11411     11417     11413     11411     11417
     11406     11414     11416     11406     11414     11417     11416     11414     11417
     11411     11417     11414     11411     11417     11419     11414     11417     11419
     11423     11421     11424     11423     11421     11425     11423     11421     11426
     11424     11421     11425     11424     11421     11426     11425     11421     11426
     11421     11426     11428     11421     11426     11434     11428     11426     11434
     11426     11428     11430     11426     11428     11431     11430     11428     11431
     11428     11431     11433     11428     11431     11437     11433     11431     11437
     11426     11434     11436     11426     11434     11437     11436     11434     11437
     11431     11437     11434     11431     11437     11439     11434     11437     11439
     11443     11441     11448     11443     11441     11450     11448     11441     11450
     11441     11443     11445     11441     11443     11446     11441     11443     11447
     11445     11443     11446     11445     11443     11447     11446     11443     11447
     11441     11450     11452     11459     11457     11464     11459     11457     11466
     11464     11457     11466     11457     11459     11461     11457     11459     11462
     11457     11459     11463     11461     11459     11462     11461     11459     11463
     11462     11459     11463     11457     11466     11468     11475     11473     11480
     11475     11473     11482     11480     11473     11482     11473     11475     11477
     11473     11475     11478     11473     11475     11479     11477     11475     11478
     11477     11475     11479     11478     11475     11479     11473     11482     11484
     11491     11489     11496     11491     11489     11498     11496     11489     11498
     11489     11491     11493     11489     11491     11494     11489     11491     11495
     11493     11491     11494     11493     11491     11495     11494     11491     11495
     11489     11498     11500     11507     11505     11512     11507     11505     11514
     11512     11505     11514     11505     11507     11509     11505     11507     11510
     11505     11507     11511     11509     11507     11510     11509     11507     11511
     11510     11507     11511     11505     11514     11516     11523     11521     11528
     11523     11521     11530     11528     11521     11530     11521     11523     11525
     11521     11523     11526     11521     11523     11527     11525     11523     11526
     11525     11523     11527     11526     11523     11527     11521     11530     11532
     11539     11537     11544     11539     11537     11546     11544     11537     11546
     11537     11539     11541     11537     11539     11542     11537     11539     11543
     11541     11539     11542     11541     11539     11543     11542     11539     11543
     11537     11546     11548     11555     11553     11560     11555     11553     11562
     11560     11553     11562     11553     11555     11557     11553     11555     11558
     11553     11555     11559     11557     11555     11558     11557     11555     11559
     11558     11555     11559     11553     11562     11564     11571     11569     11576
     11571     11569     11578     11576     11569     11578     11569     11571     11573
     11569     11571     11574     11569     11571     11575     11573     11571     11574
     11573     11571     11575     11574     11571     11575     11569     11578     11580
     11587     11585     11592     11587     11585     11594     11592     11585     11594
     11585     11587     11589     11585     11587     11590     11585     11587     11591
     11589     11587     11590     11589     11587     11591     11590     11587     11591
     11585     11594     11596     11603     11601     11608     11603     11601     11610
     11608     11601     11610     11601     11603     11605     11601     11603     11606
     11601     11603     11607     11605     11603     11606     11605     11603     11607
     11606     11603     11607     11601     11610     11612     11619     11617     11624
     11619     11617     11626     11624     11617     11626     11617     11619     11621
     11617     11619     11622     11617     11619     11623     11621     11619     11622
     11621     11619     11623     11622     11619     11623     11617     11626     11628
     11635     11633     11640     11635     11633     11642     11640     11633     11642
     11633     11635     11637     11633     11635     11638     11633     11635     11639
     11637     11635     11638     11637     11635     11639     11638     11635     11639
     11633     11642     11644     11651     11649     11656     11651     11649     11658
     11656     11649     11658     11649     11651     11653     11649     11651     11654
     11649     11651     11655     11653     11651     11654     11653     11651     11655
     11654     11651     11655     11649     11658     11660     11667     11665     11672
     11667     11665     11674     11672     11665     11674     11665     11667     11669
     11665     11667     11670     11665     11667     11671     11669     11667     11670
     11669     11667     11671     11670     11667     11671     11665     11674     11676
     11683     11681     11688     11683     11681     11690     11688     11681     11690
     11681     11683     11685     11681     11683     11686     11681     11683     11687
     11685     11683     11686     11685     11683     11687     11686     11683     11687
     11681     11690     11692     11699     11697     11704     11699     11697     11706
     11704     11697     11706     11697     11699     11701     11697     11699     11702
     11697     11699     11703     11701     11699     11702     11701     11699     11703
     11702     11699     11703     11697     11706     11708     11715     11713     11720
     11715     11713     11722     11720     11713     11722     11713     11715     11717
     11713     11715     11718     11713     11715     11719     11717     11715     11718
     11717     11715     11719     11718     11715     11719     11713     11722     11724
     11731     11729     11736     11731     11729     11738     11736     11729     11738
     11729     11731     11733     11729     11731     11734     11729     11731     11735
     11733     11731     11734     11733     11731     11735     11734     11731     11735
     11729     11738     11740     11747     11745     11752     11747     11745     11754
     11752     11745     11754     11745     11747     11749     11745     11747     11750
     11745     11747     11751     11749     11747     11750     11749     11747     11751
     11750     11747     11751     11745     11754     11756     11763     11761     11768
     11763     11761     11770     11768     11761     11770     11761     11763     11765
     11761     11763     11766     11761     11763     11767     11765     11763     11766
     11765     11763     11767     11766     11763     11767     11761     11770     11772
     11779     11777     11784     11779     11777     11786     11784     11777     11786
     11777     11779     11781     11777     11779     11782     11777     11779     11783
     11781     11779     11782     11781     11779     11783     11782     11779     11783
     11777     11786     11788     11795     11793     11800     11795     11793     11802
     11800     11793     11802     11793     11795     11797     11793     11795     11798
     11793     11795     11799     11797     11795     11798     11797     11795     11799
     11798     11795     11799     11793     11802     11804     11811     11809     11816
     11811     11809     11818     11816     11809     11818     11809     11811     11813
     11809     11811     11814     11809     11811     11815     11813     11811     11814
     11813     11811     11815     11814     11811     11815     11809     11818     11820
     11827     11825     11832     11827     11825     11834     11832     11825     11834
     11825     11827     11829     11825     11827     11830     11825     11827     11831
     11829     11827     11830     11829     11827     11831     11830     11827     11831
     11825     11834     11836     11843     11841     11848     11843     11841     11850
     11848     11841     11850     11841     11843     11845     11841     11843     11846
     11841     11843     11847     11845     11843     11846     11845     11843     11847
     11846     11843     11847     11841     11850     11852     11859     11857     11864
     11859     11857     11866     11864     11857     11866     11857     11859     11861
     11857     11859     11862     11857     11859     11863     11861     11859     11862
     11861     11859     11863     11862     11859     11863     11857     11866     11868
     11875     11873     11880     11875     11873     11882     11880     11873     11882
     11873     11875     11877     11873     11875     11878     11873     11875     11879
     11877     11875     11878     11877     11875     11879     11878     11875     11879
     11873     11882     11884     11891     11889     11896     11891     11889     11898
     11896     11889     11898     11889     11891     11893     11889     11891     11894
     11889     11891     11895     11893     11891     11894     11893     11891     11895
     11894     11891     11895     11889     11898     11900     11907     11905     11912
     11907     11905     11914     11912     11905     11914     11905     11907     11909
     11905     11907     11910     11905     11907     11911     11909     11907     11910
     11909     11907     11911     11910     11907     11911     11905     11914     11916
     11923     11921     11928     11923     11921     11930     11928     11921     11930
     11921     11923     11925     11921     11923     11926     11921     11923     11927
     11925     11923     11926     11925     11923     11927     11926     11923     11927
     11921     11930     11932     11939     11937     11944     11939     11937     11946
     11944     11937     11946     11937     11939     11941     11937     11939     11942
     11937     11939     11943     11941     11939     11942     11941     11939     11943
     11942     11939     11943     11937     11946     11948     11955     11953     11960
     11955     11953     11962     11960     11953     11962     11953     11955     11957
     11953     11955     11958     11953     11955     11959     11957     11955     11958
     11957     11955     11959     11958     11955     11959     11953     11962     11964
     11971     11969     11976     11971     11969     11978     11976     11969     11978
     11969     11971     11973     11969     11971     11974     11969     11971     11975
     11973     11971     11974     11973     11971     11975     11974     11971     11975
     11969     11978     11980     11987     11985     11992     11987     11985     11994
     11992     11985     11994     11985     11987     11989     11985     11987     11990
     11985     11987     11991     11989     11987     11990     11989     11987     11991
     11990     11987     11991     11985     11994     11996     12003     12001     12008
     12003     12001     12010     12008     12001     12010     12001     12003     12005
     12001     12003     12006     12001     12003     12007     12005     12003     12006
     12005     12003     12007     12006     12003     12007     12001     12010     12012
     12019     12017     12024     12019     12017     12026     12024     12017     12026
     12017     12019     12021     12017     12019     12022     12017     12019     12023
     12021     12019     12022     12021     12019     12023     12022     12019     12023
     12017     12026     12028     12035     12033     12040     12035     12033     12042
     12040     12033     12042     12033     12035     12037     12033     12035     12038
     12033     12035     12039     12037     12035     12038     12037     12035     12039
     12038     12035     12039     12033     12042     12044     12051     12049     12056
     12051     12049     12058     12056     12049     12058     12049     12051     12053
     12049     12051     12054     12049     12051     12055     12053     12051     12054
     12053     12051     12055     12054     12051     12055     12049     12058     12060
     12067     12065     12072     12067     12065     12074     12072     12065     12074
     12065     12067     12069     12065     12067     12070     12065     12067     12071
     12069     12067     12070     12069     12067     12071     12070     12067     12071
     12065     12074     12076     12083     12081     12088     12083     12081     12090
     12088     12081     12090     12081     12083     12085     12081     12083     12086
     12081     12083     12087     12085     12083     12086     12085     12083     12087
     12086     12083     12087     12081     12090     12092     12099     12097     12104
     12099     12097     12106     12104     12097     12106     12097     12099     12101
     12097     12099     12102     12097     12099     12103     12101     12099     12102
     12101     12099     12103     12102     12099     12103     12097     12106     12108
     12115     12113     12120     12115     12113     12122     12120     12113     12122
     12113     12115     12117     12113     12115     12118     12113     12115     12119
     12117     12115     12118     12117     12115     12119     12118     12115     12119
     12113     12122     12124     12131     12129     12136     12131     12129     12138
     12136     12129     12138     12129     12131     12133     12129     12131     12134
     12129     12131     12135     12133     12131     12134     12133     12131     12135
     12134     12131     12135     12129     12138     12140     12147     12145     12152
     12147     12145     12154     12152     12145     12154     12145     12147     12149
     12145     12147     12150     12145     12147     12151     12149     12147     12150
     12149     12147     12151     12150     12147     12151     12145     12154     12156
     12163     12161     12168     12163     12161     12170     12168     12161     12170
     12161     12163     12165     12161     12163     12166     12161     12163     12167
     12165     12163     12166     12165     12163     12167     12166     12163     12167
     12161     12170     12172     12179     12177     12184     12179     12177     12186
     12184     12177     12186     12177     12179     12181     12177     12179     12182
     12177     12179     12183     12181     12179     12182     12181     12179     12183
     12182     12179     12183     12177     12186     12188     12195     12193     12200
     12195     12193     12202     12200     12193     12202     12193     12195     12197
     12193     12195     12198     12193     12195     12199     12197     12195     12198
     12197     12195     12199     12198     12195     12199     12193     12202     12204
     12211     12209     12216     12211     12209     12218     12216     12209     12218
     12209     12211     12213     12209     12211     12214     12209     12211     12215
     12213     12211     12214     12213     12211     12215     12214     12211     12215
     12209     12218     12220     12227     12225     12232     12227     12225     12234
     12232     12225     12234     12225     12227     12229     12225     12227     12230
     12225     12227     12231     12229     12227     12230     12229     12227     12231
     12230     12227     12231     12225     12234     12236     12243     12241     12248
     12243     12241     12250     12248     12241     12250     12241     12243     12245
     12241     12243     12246     12241     12243     12247     12245     12243     12246
     12245     12243     12247     12246     12243     12247     12241     12250     12252
     12259     12257     12264     12259     12257     12266     12264     12257     12266
     12257     12259     12261     12257     12259     12262     12257     12259     12263
     12261     12259     12262     12261     12259     12263     12262     12259     12263
     12257     12266     12268     12275     12273     12280     12275     12273     12282
     12280     12273     12282     12273     12275     12277     12273     12275     12278
     12273     12275     12279     12277     12275     12278     12277     12275     12279
     12278     12275     12279     12273     12282     12284     12291     12289     12296
     12291     12289     12298     12296     12289     12298     12289     12291     12293
     12289     12291     12294     12289     12291     12295     12293     12291     12294
     12293     12291     12295     12294     12291     12295     12289     12298     12300
     12307     12305     12312     12307     12305     12314     12312     12305     12314
     12305     12307     12309     12305     12307     12310     12305     12307     12311
     12309     12307     12310     12309     12307     12311     12310     12307     12311
     12305     12314     12316     12323     12321     12328     12323     12321     12330
     12328     12321     12330     12321     12323     12325     12321     12323     12326
     12321     12323     12327     12325     12323     12326     12325     12323     12327
     12326     12323     12327     12321     12330     12332     12339     12337     12344
     12339     12337     12346     12344     12337     12346     12337     12339     12341
     12337     12339     12342     12337     12339     12343     12341     12339     12342
     12341     12339     12343     12342     12339     12343     12337     12346     12348
     12355     12353     12360     12355     12353     12362     12360     12353     12362
     12353     12355     12357     12353     12355     12358     12353     12355     12359
     12357     12355     12358     12357     12355     12359     12358     12355     12359
     12353     12362     12364     12371     12369     12376     12371     12369     12378
     12376     12369     12378     12369     12371     12373     12369     12371     12374
     12369     12371     12375     12373     12371     12374     12373     12371     12375
     12374     12371     12375     12369     12378     12380     12387     12385     12392
     12387     12385     12394     12392     12385     12394     12385     12387     12389
     12385     12387     12390     12385     12387     12391     12389     12387     12390
     12389     12387     12391     12390     12387     12391     12385     12394     12396
     12403     12401     12408     12403     12401     12410     12408     12401     12410
     12401     12403     12405     12401     12403     12406     12401     12403     12407
     12405     12403     12406     12405     12403     12407     12406     12403     12407
     12401     12410     12412     12419     12417     12424     12419     12417     12426
     12424     12417     12426     12417     12419     12421     12417     12419     12422
     12417     12419     12423     12421     12419     12422     12421     12419     12423
     12422     12419     12423     12417     12426     12428     12435     12433     12440
     12435     12433     12442     12440     12433     12442     12433     12435     12437
     12433     12435     12438     12433     12435     12439     12437     12435     12438
     12437     12435     12439     12438     12435     12439     12433     12442     12444
     12451     12449     12456     12451     12449     12458     12456     12449     12458
     12449     12451     12453     12449     12451     12454     12449     12451     12455
     12453     12451     12454     12453     12451     12455     12454     12451     12455
     12449     12458     12460     12467     12465     12472     12467     12465     12474
     12472     12465     12474     12465     12467     12469     12465     12467     12470
     12465     12467     12471     12469     12467     12470     12469     12467     12471
     12470     12467     12471     12465     12474     12476     12483     12481     12488
     12483     12481     12490     12488     12481     12490     12481     12483     12485
     12481     12483     12486     12481     12483     12487     12485     12483     12486
     12485     12483     12487     12486     12483     12487     12481     12490     12492
     12499     12497     12504     12499     12497     12506     12504     12497     12506
     12497     12499     12501     12497     12499     12502     12497     12499     12503
     12501     12499     12502     12501     12499     12503     12502     12499     12503
     12497     12506     12508     12515     12513     12520     12515     12513     12522
     12520     12513     12522     12513     12515     12517     12513     12515     12518
     12513     12515     12519     12517     12515     12518     12517     12515     12519
     12518     12515     12519     12513     12522     12524     12531     12529     12536
     12531     12529     12538     12536     12529     12538     12529     12531     12533
     12529     12531     12534     12529     12531     12535     12533     12531     12534
     12533     12531     12535     12534     12531     12535     12529     12538     12540
     12547     12545     12552     12547     12545     12554     12552     12545     12554
     12545     12547     12549     12545     12547     12550     12545     12547     12551
     12549     12547     12550     12549     12547     12551     12550     12547     12551
     12545     12554     12556     12563     12561     12568     12563     12561     12570
     12568     12561     12570     12561     12563     12565     12561     12563     12566
     12561     12563     12567     12565     12563     12566     12565     12563     12567
     12566     12563     12567     12561     12570     12572     12579     12577     12584
     12579     12577     12586     12584     12577     12586     12577     12579     12581
     12577     12579     12582     12577     12579     12583     12581     12579     12582
     12581     12579     12583     12582     12579     12583     12577     12586     12588
     12595     12593     12600     12595     12593     12602     12600     12593     12602
     12593     12595     12597     12593     12595     12598     12593     12595     12599
     12597     12595     12598     12597     12595     12599     12598     12595     12599
     12593     12602     12604     12611     12609     12616     12611     12609     12618
     12616     12609     12618     12609     12611     12613     12609     12611     12614
     12609     12611     12615     12613     12611     12614     12613     12611     12615
     12614     12611     12615     12609     12618     12620     12627     12625     12632
     12627     12625     12634     12632     12625     12634     12625     12627     12629
     12625     12627     12630     12625     12627     12631     12629     12627     12630
     12629     12627     12631     12630     12627     12631     12625     12634     12636
     12643     12641     12648     12643     12641     12650     12648     12641     12650
     12641     12643     12645     12641     12643     12646     12641     12643     12647
     12645     12643     12646     12645     12643     12647     12646     12643     12647
     12641     12650     12652     12659     12657     12664     12659     12657     12666
     12664     12657     12666     12657     12659     12661     12657     12659     12662
     12657     12659     12663     12661     12659     12662     12661     12659     12663
     12662     12659     12663     12657     12666     12668     12675     12673     12680
     12675     12673     12682     12680     12673     12682     12673     12675     12677
     12673     12675     12678     12673     12675     12679     12677     12675     12678
     12677     12675     12679     12678     12675     12679     12673     12682     12684
     12691     12689     12696     12691     12689     12698     12696     12689     12698
     12689     12691     12693     12689     12691     12694     12689     12691     12695
     12693     12691     12694     12693     12691     12695     12694     12691     12695
     12689     12698     12700     12707     12705     12712     12707     12705     12714
     12712     12705     12714     12705     12707     12709     12705     12707     12710
     12705     12707     12711     12709     12707     12710     12709     12707     12711
     12710     12707     12711     12705     12714     12716     12723     12721     12728
     12723     12721     12730     12728     12721     12730     12721     12723     12725
     12721     12723     12726     12721     12723     12727     12725     12723     12726
     12725     12723     12727     12726     12723     12727     12721     12730     12732
     12739     12737     12744     12739     12737     12746     12744     12737     12746
     12737     12739     12741     12737     12739     12742     12737     12739     12743
     12741     12739     12742     12741     12739     12743     12742     12739     12743
     12737     12746     12748     12755     12753     12760     12755     12753     12762
     12760     12753     12762     12753     12755     12757     12753     12755     12758
     12753     12755     12759     12757     12755     12758     12757     12755     12759
     12758     12755     12759     12753     12762     12764     12771     12769     12776
     12771     12769     12778     12776     12769     12778     12769     12771     12773
     12769     12771     12774     12769     12771     12775     12773     12771     12774
     12773     12771     12775     12774     12771     12775     12769     12778     12780
     12787     12785     12792     12787     12785     12794     12792     12785     12794
     12785     12787     12789     12785     12787     12790     12785     12787     12791
     12789     12787     12790     12789     12787     12791     12790     12787     12791
     12785     12794     12796     12803     12801     12808     12803     12801     12810
     12808     12801     12810     12801     12803     12805     12801     12803     12806
     12801     12803     12807     12805     12803     12806     12805     12803     12807
     12806     12803     12807     12801     12810     12812     12819     12817     12824
     12819     12817     12826     12824     12817     12826     12817     12819     12821
     12817     12819     12822     12817     12819     12823     12821     12819     12822
     12821     12819     12823     12822     12819     12823     12817     12826     12828
     12835     12833     12840     12835     12833     12842     12840     12833     12842
     12833     12835     12837     12833     12835     12838     12833     12835     12839
     12837     12835     12838     12837     12835     12839     12838     12835     12839
     12833     12842     12844     12851     12849     12856     12851     12849     12858
     12856     12849     12858     12849     12851     12853     12849     12851     12854
     12849     12851     12855     12853     12851     12854     12853     12851     12855
     12854     12851     12855     12849     12858     12860     12867     12865     12872
     12867     12865     12874     12872     12865     12874     12865     12867     12869
     12865     12867     12870     12865     12867     12871     12869     12867     12870
     12869     12867     12871     12870     12867     12871     12865     12874     12876
     12883     12881     12888     12883     12881     12890     12888     12881     12890
     12881     12883     12885     12881     12883     12886     12881     12883     12887
     12885     12883     12886     12885     12883     12887     12886     12883     12887
     12881     12890     12892     12899     12897     12904     12899     12897     12906
     12904     12897     12906     12897     12899     12901     12897     12899     12902
     12897     12899     12903     12901     12899     12902     12901     12899     12903
     12902     12899     12903     12897     12906     12908     12915     12913     12920
     12915     12913     12922     12920     12913     12922     12913     12915     12917
     12913     12915     12918     12913     12915     12919     12917     12915     12918
     12917     12915     12919     12918     12915     12919     12913     12922     12924
     12931     12929     12936     12931     12929     12938     12936     12929     12938
     12929     12931     12933     12929     12931     12934     12929     12931     12935
     12933     12931     12934     12933     12931     12935     12934     12931     12935
     12929     12938     12940     12947     12945     12952     12947     12945     12954
     12952     12945     12954     12945     12947     12949     12945     12947     12950
     12945     12947     12951     12949     12947     12950     12949     12947     12951
     12950     12947     12951     12945     12954     12956     12963     12961     12968
     12963     12961     12970     12968     12961     12970     12961     12963     12965
     12961     12963     12966     12961     12963     12967     12965     12963     12966
     12965     12963     12967     12966     12963     12967     12961     12970     12972
     12979     12977     12984     12979     12977     12986     12984     12977     12986
     12977     12979     12981     12977     12979     12982     12977     12979     12983
     12981     12979     12982     12981     12979     12983     12982     12979     12983
     12977     12986     12988     12995     12993     13000     12995     12993     13002
     13000     12993     13002     12993     12995     12997     12993     12995     12998
     12993     12995     12999     12997     12995     12998     12997     12995     12999
     12998     12995     12999     12993     13002     13004     13011     13009     13016
     13011     13009     13018     13016     13009     13018     13009     13011     13013
     13009     13011     13014     13009     13011     13015     13013     13011     13014
     13013     13011     13015     13014     13011     13015     13009     13018     13020
     13027     13025     13032     13027     13025     13034     13032     13025     13034
     13025     13027     13029     13025     13027     13030     13025     13027     13031
     13029     13027     13030     13029     13027     13031     13030     13027     13031
     13025     13034     13036     13043     13041     13048     13043     13041     13050
     13048     13041     13050     13041     13043     13045     13041     13043     13046
     13041     13043     13047     13045     13043     13046     13045     13043     13047
     13046     13043     13047     13041     13050     13052     13059     13057     13064
     13059     13057     13066     13064     13057     13066     13057     13059     13061
     13057     13059     13062     13057     13059     13063     13061     13059     13062
     13061     13059     13063     13062     13059     13063     13057     13066     13068
     13075     13073     13080     13075     13073     13082     13080     13073     13082
     13073     13075     13077     13073     13075     13078     13073     13075     13079
     13077     13075     13078     13077     13075     13079     13078     13075     13079
     13073     13082     13084     13091     13089     13096     13091     13089     13098
     13096     13089     13098     13089     13091     13093     13089     13091     13094
     13089     13091     13095     13093     13091     13094     13093     13091     13095
     13094     13091     13095     13089     13098     13100     13107     13105     13112
     13107     13105     13114     13112     13105     13114     13105     13107     13109
     13105     13107     13110     13105     13107     13111     13109     13107     13110
     13109     13107     13111     13110     13107     13111     13105     13114     13116
     13123     13121     13128     13123     13121     13130     13128     13121     13130
     13121     13123     13125     13121     13123     13126     13121     13123     13127
     13125     13123     13126     13125     13123     13127     13126     13123     13127
     13121     13130     13132     13139     13137     13144     13139     13137     13146
     13144     13137     13146     13137     13139     13141     13137     13139     13142
     13137     13139     13143     13141     13139     13142     13141     13139     13143
     13142     13139     13143     13137     13146     13148     13155     13153     13160
     13155     13153     13162     13160     13153     13162     13153     13155     13157
     13153     13155     13158     13153     13155     13159     13157     13155     13158
     13157     13155     13159     13158     13155     13159     13153     13162     13164
     13171     13169     13176     13171     13169     13178     13176     13169     13178
     13169     13171     13173     13169     13171     13174     13169     13171     13175
     13173     13171     13174     13173     13171     13175     13174     13171     13175
     13169     13178     13180     13187     13185     13192     13187     13185     13194
     13192     13185     13194     13185     13187     13189     13185     13187     13190
     13185     13187     13191     13189     13187     13190     13189     13187     13191
     13190     13187     13191     13185     13194     13196     13203     13201     13208
     13203     13201     13210     13208     13201     13210     13201     13203     13205
     13201     13203     13206     13201     13203     13207     13205     13203     13206
     13205     13203     13207     13206     13203     13207     13201     13210     13212
     13219     13217     13224     13219     13217     13226     13224     13217     13226
     13217     13219     13221     13217     13219     13222     13217     13219     13223
     13221     13219     13222     13221     13219     13223     13222     13219     13223
     13217     13226     13228     13235     13233     13240     13235     13233     13242
     13240     13233     13242     13233     13235     13237     13233     13235     13238
     13233     13235     13239     13237     13235     13238     13237     13235     13239
     13238     13235     13239     13233     13242     13244     13251     13249     13256
     13251     13249     13258     13256     13249     13258     13249     13251     13253
     13249     13251     13254     13249     13251     13255     13253     13251     13254
     13253     13251     13255     13254     13251     13255     13249     13258     13260
     13267     13265     13272     13267     13265     13274     13272     13265     13274
     13265     13267     13269     13265     13267     13270     13265     13267     13271
     13269     13267     13270     13269     13267     13271     13270     13267     13271
     13265     13274     13276     13283     13281     13288     13283     13281     13290
     13288     13281     13290     13281     13283     13285     13281     13283     13286
     13281     13283     13287     13285     13283     13286     13285     13283     13287
     13286     13283     13287     13281     13290     13292     13299     13297     13304
     13299     13297     13306     13304     13297     13306     13297     13299     13301
     13297     13299     13302     13297     13299     13303     13301     13299     13302
     13301     13299     13303     13302     13299     13303     13297     13306     13308
     13315     13313     13320     13315     13313     13322     13320     13313     13322
     13313     13315     13317     13313     13315     13318     13313     13315     13319
     13317     13315     13318     13317     13315     13319     13318     13315     13319
     13313     13322     13324     13331     13329     13336     13331     13329     13338
     13336     13329     13338     13329     13331     13333     13329     13331     13334
     13329     13331     13335     13333     13331     13334     13333     13331     13335
     13334     13331     13335     13329     13338     13340     13347     13345     13352
     13347     13345     13354     13352     13345     13354     13345     13347     13349
     13345     13347     13350     13345     13347     13351     13349     13347     13350
     13349     13347     13351     13350     13347     13351     13345     13354     13356
     13363     13361     13368     13363     13361     13370     13368     13361     13370
     13361     13363     13365     13361     13363     13366     13361     13363     13367
     13365     13363     13366     13365     13363     13367     13366     13363     13367
     13361     13370     13372     13379     13377     13384     13379     13377     13386
     13384     13377     13386     13377     13379     13381     13377     13379     13382
     13377     13379     13383     13381     13379     13382     13381     13379     13383
     13382     13379     13383     13377     13386     13388     13395     13393     13400
     13395     13393     13402     13400     13393     13402     13393     13395     13397
     13393     13395     13398     13393     13395     13399     13397     13395     13398
     13397     13395     13399     13398     13395     13399     13393     13402     13404
     13411     13409     13416     13411     13409     13418     13416     13409     13418
     13409     13411     13413     13409     13411     13414     13409     13411     13415
     13413     13411     13414     13413     13411     13415     13414     13411     13415
     13409     13418     13420     13427     13425     13432     13427     13425     13434
     13432     13425     13434     13425     13427     13429     13425     13427     13430
     13425     13427     13431     13429     13427     13430     13429     13427     13431
     13430     13427     13431     13425     13434     13436     13443     13441     13448
     13443     13441     13450     13448     13441     13450     13441     13443     13445
     13441     13443     13446     13441     13443     13447     13445     13443     13446
     13445     13443     13447     13446     13443     13447     13441     13450     13452
     13459     13457     13464     13459     13457     13466     13464     13457     13466
     13457     13459     13461     13457     13459     13462     13457     13459     13463
     13461     13459     13462     13461     13459     13463     13462     13459     13463
     13457     13466     13468     13475     13473     13480     13475     13473     13482
     13480     13473     13482     13473     13475     13477     13473     13475     13478
     13473     13475     13479     13477     13475     13478     13477     13475     13479
     13478     13475     13479     13473     13482     13484     13491     13489     13496
     13491     13489     13498     13496     13489     13498     13489     13491     13493
     13489     13491     13494     13489     13491     13495     13493     13491     13494
     13493     13491     13495     13494     13491     13495     13489     13498     13500
     13507     13505     13512     13507     13505     13514     13512     13505     13514
     13505     13507     13509     13505     13507     13510     13505     13507     13511
     13509     13507     13510     13509     13507     13511     13510     13507     13511
     13505     13514     13516     13523     13521     13528     13523     13521     13530
     13528     13521     13530     13521     13523     13525     13521     13523     13526
     13521     13523     13527     13525     13523     13526     13525     13523     13527
     13526     13523     13527     13521     13530     13532     13539     13537     13544
     13539     13537     13546     13544     13537     13546     13537     13539     13541
     13537     13539     13542     13537     13539     13543     13541     13539     13542
     13541     13539     13543     13542     13539     13543     13537     13546     13548
     13555     13553     13560     13555     13553     13562     13560     13553     13562
     13553     13555     13557     13553     13555     13558     13553     13555     13559
     13557     13555     13558     13557     13555     13559     13558     13555     13559
     13553     13562     13564     13571     13569     13576     13571     13569     13578
     13576     13569     13578     13569     13571     13573     13569     13571     13574
     13569     13571     13575     13573     13571     13574     13573     13571     13575
     13574     13571     13575     13569     13578     13580     13587     13585     13592
     13587     13585     13594     13592     13585     13594     13585     13587     13589
     13585     13587     13590     13585     13587     13591     13589     13587     13590
     13589     13587     13591     13590     13587     13591     13585     13594     13596
     13603     13601     13608     13603     13601     13610     13608     13601     13610
     13601     13603     13605     13601     13603     13606     13601     13603     13607
     13605     13603     13606     13605     13603     13607     13606     13603     13607
     13601     13610     13612     13619     13617     13624     13619     13617     13626
     13624     13617     13626     13617     13619     13621     13617     13619     13622
     13617     13619     13623     13621     13619     13622     13621     13619     13623
     13622     13619     13623     13617     13626     13628     13635     13633     13640
     13635     13633     13642     13640     13633     13642     13633     13635     13637
     13633     13635     13638     13633     13635     13639     13637     13635     13638
     13637     13635     13639     13638     13635     13639     13633     13642     13644
     13651     13649     13656     13651     13649     13658     13656     13649     13658
     13649     13651     13653     13649     13651     13654     13649     13651     13655
     13653     13651     13654     13653     13651     13655     13654     13651     13655
     13649     13658     13660     13667     13665     13672     13667     13665     13674
     13672     13665     13674     13665     13667     13669     13665     13667     13670
     13665     13667     13671     13669     13667     13670     13669     13667     13671
     13670     13667     13671     13665     13674     13676     13683     13681     13688
     13683     13681     13690     13688     13681     13690     13681     13683     13685
     13681     13683     13686     13681     13683     13687     13685     13683     13686
     13685     13683     13687     13686     13683     13687     13681     13690     13692
     13699     13697     13704     13699     13697     13706     13704     13697     13706
     13697     13699     13701     13697     13699     13702     13697     13699     13703
     13701     13699     13702     13701     13699     13703     13702     13699     13703
     13697     13706     13708     13715     13713     13720     13715     13713     13722
     13720     13713     13722     13713     13715     13717     13713     13715     13718
     13713     13715     13719     13717     13715     13718     13717     13715     13719
     13718     13715     13719     13713     13722     13724     13731     13729     13736
     13731     13729     13738     13736     13729     13738     13729     13731     13733
     13729     13731     13734     13729     13731     13735     13733     13731     13734
     13733     13731     13735     13734     13731     13735     13729     13738     13740
     13747     13745     13752     13747     13745     13754     13752     13745     13754
     13745     13747     13749     13745     13747     13750     13745     13747     13751
     13749     13747     13750     13749     13747     13751     13750     13747     13751
     13745     13754     13756     13763     13761     13768     13763     13761     13770
     13768     13761     13770     13761     13763     13765     13761     13763     13766
     13761     13763     13767     13765     13763     13766     13765     13763     13767
     13766     13763     13767     13761     13770     13772     13779     13777     13784
     13779     13777     13786     13784     13777     13786     13777     13779     13781
     13777     13779     13782     13777     13779     13783     13781     13779     13782
     13781     13779     13783     13782     13779     13783     13777     13786     13788
     13795     13793     13800     13795     13793     13802     13800     13793     13802
     13793     13795     13797     13793     13795     13798     13793     13795     13799
     13797     13795     13798     13797     13795     13799     13798     13795     13799
     13793     13802     13804     13811     13809     13816     13811     13809     13818
     13816     13809     13818     13809     13811     13813     13809     13811     13814
     13809     13811     13815     13813     13811     13814     13813     13811     13815
     13814     13811     13815     13809     13818     13820     13827     13825     13832
     13827     13825     13834     13832     13825     13834     13825     13827     13829
     13825     13827     13830     13825     13827     13831     13829     13827     13830
     13829     13827     13831     13830     13827     13831     13825     13834     13836
     13843     13841     13848     13843     13841     13850     13848     13841     13850
     13841     13843     13845     13841     13843     13846     13841     13843     13847
     13845     13843     13846     13845     13843     13847     13846     13843     13847
     13841     13850     13852     13859     13857     13864     13859     13857     13866
     13864     13857     13866     13857     13859     13861     13857     13859     13862
     13857     13859     13863     13861     13859     13862     13861     13859     13863
     13862     13859     13863     13857     13866     13868     13875     13873     13880
     13875     13873     13882     13880     13873     13882     13873     13875     13877
     13873     13875     13878     13873     13875     13879     13877     13875     13878
     13877     13875     13879     13878     13875     13879     13873     13882     13884
     13891     13889     13896     13891     13889     13898     13896     13889     13898
     13889     13891     13893     13889     13891     13894     13889     13891     13895
     13893     13891     13894     13893     13891     13895     13894     13891     13895
     13889     13898     13900     13907     13905     13912     13907     13905     13914
     13912     13905     13914     13905     13907     13909     13905     13907     13910
     13905     13907     13911     13909     13907     13910     13909     13907     13911
     13910     13907     13911     13905     13914     13916     13923     13921     13928
     13923     13921     13930     13928     13921     13930     13921     13923     13925
     13921     13923     13926     13921     13923     13927     13925     13923     13926
     13925     13923     13927     13926     13923     13927     13921     13930     13932
     13939     13937     13944     13939     13937     13946     13944     13937     13946
     13937     13939     13941     13937     13939     13942     13937     13939     13943
     13941     13939     13942     13941     13939     13943     13942     13939     13943
     13937     13946     13948     13955     13953     13960     13955     13953     13962
     13960     13953     13962     13953     13955     13957     13953     13955     13958
     13953     13955     13959     13957     13955     13958     13957     13955     13959
     13958     13955     13959     13953     13962     13964     13971     13969     13976
     13971     13969     13978     13976     13969     13978     13969     13971     13973
     13969     13971     13974     13969     13971     13975     13973     13971     13974
     13973     13971     13975     13974     13971     13975     13969     13978     13980
     13987     13985     13992     13987     13985     13994     13992     13985     13994
     13985     13987     13989     13985     13987     13990     13985     13987     13991
     13989     13987     13990     13989     13987     13991     13990     13987     13991
     13985     13994     13996     14003     14001     14008     14003     14001     14010
     14008     14001     14010     14001     14003     14005     14001     14003     14006
     14001     14003     14007     14005     14003     14006     14005     14003     14007
     14006     14003     14007     14001     14010     14012     14019     14017     14024
     14019     14017     14026     14024     14017     14026     14017     14019     14021
     14017     14019     14022     14017     14019     14023     14021     14019     14022
     14021     14019     14023     14022     14019     14023     14017     14026     14028
     14035     14033     14040     14035     14033     14042     14040     14033     14042
     14033     14035     14037     14033     14035     14038     14033     14035     14039
     14037     14035     14038     14037     14035     14039     14038     14035     14039
     14033     14042     14044     14051     14049     14056     14051     14049     14058
     14056     14049     14058     14049     14051     14053     14049     14051     14054
     14049     14051     14055     14053     14051     14054     14053     14051     14055
     14054     14051     14055     14049     14058     14060     14067     14065     14072
     14067     14065     14074     14072     14065     14074     14065     14067     14069
     14065     14067     14070     14065     14067     14071     14069     14067     14070
     14069     14067     14071     14070     14067     14071     14065     14074     14076
     14083     14081     14088     14083     14081     14090     14088     14081     14090
     14081     14083     14085     14081     14083     14086     14081     14083     14087
     14085     14083     14086     14085     14083     14087     14086     14083     14087
     14081     14090     14092     14099     14097     14104     14099     14097     14106
     14104     14097     14106     14097     14099     14101     14097     14099     14102
     14097     14099     14103     14101     14099     14102     14101     14099     14103
     14102     14099     14103     14097     14106     14108     14115     14113     14120
     14115     14113     14122     14120     14113     14122     14113     14115     14117
     14113     14115     14118     14113     14115     14119     14117     14115     14118
     14117     14115     14119     14118     14115     14119     14113     14122     14124
     14131     14129     14136     14131     14129     14138     14136     14129     14138
     14129     14131     14133     14129     14131     14134     14129     14131     14135
     14133     14131     14134     14133     14131     14135     14134     14131     14135
     14129     14138     14140     14147     14145     14152     14147     14145     14154
     14152     14145     14154     14145     14147     14149     14145     14147     14150
     14145     14147     14151     14149     14147     14150     14149     14147     14151
     14150     14147     14151     14145     14154     14156     14163     14161     14168
     14163     14161     14170     14168     14161     14170     14161     14163     14165
     14161     14163     14166     14161     14163     14167     14165     14163     14166
     14165     14163     14167     14166     14163     14167     14161     14170     14172
     14179     14177     14184     14179     14177     14186     14184     14177     14186
     14177     14179     14181     14177     14179     14182     14177     14179     14183
     14181     14179     14182     14181     14179     14183     14182     14179     14183
     14177     14186     14188     14195     14193     14200     14195     14193     14202
     14200     14193     14202     14193     14195     14197     14193     14195     14198
     14193     14195     14199     14197     14195     14198     14197     14195     14199
     14198     14195     14199     14193     14202     14204     14211     14209     14216
     14211     14209     14218     14216     14209     14218     14209     14211     14213
     14209     14211     14214     14209     14211     14215     14213     14211     14214
     14213     14211     14215     14214     14211     14215     14209     14218     14220
     14227     14225     14232     14227     14225     14234     14232     14225     14234
     14225     14227     14229     14225     14227     14230     14225     14227     14231
     14229     14227     14230     14229     14227     14231     14230     14227     14231
     14225     14234     14236     14243     14241     14248     14243     14241     14250
     14248     14241     14250     14241     14243     14245     14241     14243     14246
     14241     14243     14247     14245     14243     14246     14245     14243     14247
     14246     14243     14247     14241     14250     14252     14259     14257     14264
     14259     14257     14266     14264     14257     14266     14257     14259     14261
     14257     14259     14262     14257     14259     14263     14261     14259     14262
     14261     14259     14263     14262     14259     14263     14257     14266     14268
     14275     14273     14280     14275     14273     14282     14280     14273     14282
     14273     14275     14277     14273     14275     14278     14273     14275     14279
     14277     14275     14278     14277     14275     14279     14278     14275     14279
     14273     14282     14284     14291     14289     14296     14291     14289     14298
     14296     14289     14298     14289     14291     14293     14289     14291     14294
     14289     14291     14295     14293     14291     14294     14293     14291     14295
     14294     14291     14295     14289     14298     14300     14307     14305     14312
     14307     14305     14314     14312     14305     14314     14305     14307     14309
     14305     14307     14310     14305     14307     14311     14309     14307     14310
     14309     14307     14311     14310     14307     14311     14305     14314     14316
     14323     14321     14328     14323     14321     14330     14328     14321     14330
     14321     14323     14325     14321     14323     14326     14321     14323     14327
     14325     14323     14326     14325     14323     14327     14326     14323     14327
     14321     14330     14332     14339     14337     14344     14339     14337     14346
     14344     14337     14346     14337     14339     14341     14337     14339     14342
     14337     14339     14343     14341     14339     14342     14341     14339     14343
     14342     14339     14343     14337     14346     14348     14355     14353     14360
     14355     14353     14362     14360     14353     14362     14353     14355     14357
     14353     14355     14358     14353     14355     14359     14357     14355     14358
     14357     14355     14359     14358     14355     14359     14353     14362     14364
     14371     14369     14376     14371     14369     14378     14376     14369     14378
     14369     14371     14373     14369     14371     14374     14369     14371     14375
     14373     14371     14374     14373     14371     14375     14374     14371     14375
     14369     14378     14380     14387     14385     14392     14387     14385     14394
     14392     14385     14394     14385     14387     14389     14385     14387     14390
     14385     14387     14391     14389     14387     14390     14389     14387     14391
     14390     14387     14391     14385     14394     14396     14403     14401     14408
     14403     14401     14410     14408     14401     14410     14401     14403     14405
     14401     14403     14406     14401     14403     14407     14405     14403     14406
     14405     14403     14407     14406     14403     14407     14401     14410     14412
     14419     14417     14424     14419     14417     14426     14424     14417     14426
     14417     14419     14421     14417     14419     14422     14417     14419     14423
     14421     14419     14422     14421     14419     14423     14422     14419     14423
     14417     14426     14428     14435     14433     14440     14435     14433     14442
     14440     14433     14442     14433     14435     14437     14433     14435     14438
     14433     14435     14439     14437     14435     14438     14437     14435     14439
     14438     14435     14439     14433     14442     14444     14451     14449     14456
     14451     14449     14458     14456     14449     14458     14449     14451     14453
     14449     14451     14454     14449     14451     14455     14453     14451     14454
     14453     14451     14455     14454     14451     14455     14449     14458     14460
     14467     14465     14472     14467     14465     14474     14472     14465     14474
     14465     14467     14469     14465     14467     14470     14465     14467     14471
     14469     14467     14470     14469     14467     14471     14470     14467     14471
     14465     14474     14476     14483     14481     14488     14483     14481     14490
     14488     14481     14490     14481     14483     14485     14481     14483     14486
     14481     14483     14487     14485     14483     14486     14485     14483     14487
     14486     14483     14487     14481     14490     14492     14499     14497     14504
     14499     14497     14506     14504     14497     14506     14497     14499     14501
     14497     14499     14502     14497     14499     14503     14501     14499     14502
     14501     14499     14503     14502     14499     14503     14497     14506     14508
     14515     14513     14520     14515     14513     14522     14520     14513     14522
     14513     14515     14517     14513     14515     14518     14513     14515     14519
     14517     14515     14518     14517     14515     14519     14518     14515     14519
     14513     14522     14524     14531     14529     14536     14531     14529     14538
     14536     14529     14538     14529     14531     14533     14529     14531     14534
     14529     14531     14535     14533     14531     14534     14533     14531     14535
     14534     14531     14535     14529     14538     14540     14547     14545     14552
     14547     14545     14554     14552     14545     14554     14545     14547     14549
     14545     14547     14550     14545     14547     14551     14549     14547     14550
     14549     14547     14551     14550     14547     14551     14545     14554     14556
     14563     14561     14568     14563     14561     14570     14568     14561     14570
     14561     14563     14565     14561     14563     14566     14561     14563     14567
     14565     14563     14566     14565     14563     14567     14566     14563     14567
     14561     14570     14572     14579     14577     14584     14579     14577     14586
     14584     14577     14586     14577     14579     14581     14577     14579     14582
     14577     14579     14583     14581     14579     14582     14581     14579     14583
     14582     14579     14583     14577     14586     14588     14595     14593     14600
     14595     14593     14602     14600     14593     14602     14593     14595     14597
     14593     14595     14598     14593     14595     14599     14597     14595     14598
     14597     14595     14599     14598     14595     14599     14593     14602     14604
     14611     14609     14616     14611     14609     14618     14616     14609     14618
     14609     14611     14613     14609     14611     14614     14609     14611     14615
     14613     14611     14614     14613     14611     14615     14614     14611     14615
     14609     14618     14620     14627     14625     14632     14627     14625     14634
     14632     14625     14634     14625     14627     14629     14625     14627     14630
     14625     14627     14631     14629     14627     14630     14629     14627     14631
     14630     14627     14631     14625     14634     14636     14643     14641     14648
     14643     14641     14650     14648     14641     14650     14641     14643     14645
     14641     14643     14646     14641     14643     14647     14645     14643     14646
     14645     14643     14647     14646     14643     14647     14641     14650     14652
     14659     14657     14664     14659     14657     14666     14664     14657     14666
     14657     14659     14661     14657     14659     14662     14657     14659     14663
     14661     14659     14662     14661     14659     14663     14662     14659     14663
     14657     14666     14668     14675     14673     14680     14675     14673     14682
     14680     14673     14682     14673     14675     14677     14673     14675     14678
     14673     14675     14679     14677     14675     14678     14677     14675     14679
     14678     14675     14679     14673     14682     14684     14691     14689     14696
     14691     14689     14698     14696     14689     14698     14689     14691     14693
     14689     14691     14694     14689     14691     14695     14693     14691     14694
     14693     14691     14695     14694     14691     14695     14689     14698     14700
     14707     14705     14712     14707     14705     14714     14712     14705     14714
     14705     14707     14709     14705     14707     14710     14705     14707     14711
     14709     14707     14710     14709     14707     14711     14710     14707     14711
     14705     14714     14716     14723     14721     14728     14723     14721     14730
     14728     14721     14730     14721     14723     14725     14721     14723     14726
     14721     14723     14727     14725     14723     14726     14725     14723     14727
     14726     14723     14727     14721     14730     14732     14739     14737     14744
     14739     14737     14746     14744     14737     14746     14737     14739     14741
     14737     14739     14742     14737     14739     14743     14741     14739     14742
     14741     14739     14743     14742     14739     14743     14737     14746     14748
     14755     14753     14760     14755     14753     14762     14760     14753     14762
     14753     14755     14757     14753     14755     14758     14753     14755     14759
     14757     14755     14758     14757     14755     14759     14758     14755     14759
     14753     14762     14764     14771     14769     14776     14771     14769     14778
     14776     14769     14778     14769     14771     14773     14769     14771     14774
     14769     14771     14775     14773     14771     14774     14773     14771     14775
     14774     14771     14775     14769     14778     14780     14787     14785     14792
     14787     14785     14794     14792     14785     14794     14785     14787     14789
     14785     14787     14790     14785     14787     14791     14789     14787     14790
     14789     14787     14791     14790     14787     14791     14785     14794     14796
     14803     14801     14810     14803     14801     14812     14810     14801     14812
     14801     14803     14804     14801     14803     14806     14801     14803     14808
     14804     14803     14806     14804     14803     14808     14806     14803     14808
     14820     14818     14827     14820     14818     14829     14827     14818     14829
     14818     14820     14821     14818     14820     14823     14818     14820     14825
     14821     14820     14823     14821     14820     14825     14823     14820     14825
     14837     14835     14844     14837     14835     14846     14844     14835     14846
     14835     14837     14838     14835     14837     14840     14835     14837     14842
     14838     14837     14840     14838     14837     14842     14840     14837     14842
     14854     14852     14861     14854     14852     14863     14861     14852     14863
     14852     14854     14855     14852     14854     14857     14852     14854     14859
     14855     14854     14857     14855     14854     14859     14857     14854     14859
     14871     14869     14878     14871     14869     14880     14878     14869     14880
     14869     14871     14872     14869     14871     14874     14869     14871     14876
     14872     14871     14874     14872     14871     14876     14874     14871     14876
     14888     14886     14895     14888     14886     14897     14895     14886     14897
     14886     14888     14889     14886     14888     14891     14886     14888     14893
     14889     14888     14891     14889     14888     14893     14891     14888     14893
     14905     14903     14912     14905     14903     14914     14912     14903     14914
     14903     14905     14906     14903     14905     14908     14903     14905     14910
     14906     14905     14908     14906     14905     14910     14908     14905     14910
     14922     14920     14929     14922     14920     14931     14929     14920     14931
     14920     14922     14923     14920     14922     14925     14920     14922     14927
     14923     14922     14925     14923     14922     14927     14925     14922     14927
     14939     14937     14946     14939     14937     14948     14946     14937     14948
     14937     14939     14940     14937     14939     14942     14937     14939     14944
     14940     14939     14942     14940     14939     14944     14942     14939     14944
     14956     14954     14963     14956     14954     14965     14963     14954     14965
     14954     14956     14957     14954     14956     14959     14954     14956     14961
     14957     14956     14959     14957     14956     14961     14959     14956     14961
     14973     14971     14980     14973     14971     14982     14980     14971     14982
     14971     14973     14974     14971     14973     14976     14971     14973     14978
     14974     14973     14976     14974     14973     14978     14976     14973     14978
     14990     14988     14997     14990     14988     14999     14997     14988     14999
     14988     14990     14991     14988     14990     14993     14988     14990     14995
     14991     14990     14993     14991     14990     14995     14993     14990     14995
     15007     15005     15014     15007     15005     15016     15014     15005     15016
     15005     15007     15008     15005     15007     15010     15005     15007     15012
     15008     15007     15010     15008     15007     15012     15010     15007     15012
     15024     15022     15031     15024     15022     15033     15031     15022     15033
     15022     15024     15025     15022     15024     15027     15022     15024     15029
     15025     15024     15027     15025     15024     15029     15027     15024     15029
     15041     15039     15048     15041     15039     15050     15048     15039     15050
     15039     15041     15042     15039     15041     15044     15039     15041     15046
     15042     15041     15044     15042     15041     15046     15044     15041     15046
     15058     15056     15065     15058     15056     15067     15065     15056     15067
     15056     15058     15059     15056     15058     15061     15056     15058     15063
     15059     15058     15061     15059     15058     15063     15061     15058     15063
     15075     15073     15082     15075     15073     15084     15082     15073     15084
     15073     15075     15076     15073     15075     15078     15073     15075     15080
     15076     15075     15078     15076     15075     15080     15078     15075     15080
     15092     15090     15099     15092     15090     15101     15099     15090     15101
     15090     15092     15093     15090     15092     15095     15090     15092     15097
     15093     15092     15095     15093     15092     15097     15095     15092     15097
     15109     15107     15116     15109     15107     15118     15116     15107     15118
     15107     15109     15110     15107     15109     15112     15107     15109     15114
     15110     15109     15112     15110     15109     15114     15112     15109     15114
     15126     15124     15133     15126     15124     15135     15133     15124     15135
     15124     15126     15127     15124     15126     15129     15124     15126     15131
     15127     15126     15129     15127     15126     15131     15129     15126     15131
     15143     15141     15150     15143     15141     15152     15150     15141     15152
     15141     15143     15144     15141     15143     15146     15141     15143     15148
     15144     15143     15146     15144     15143     15148     15146     15143     15148
     15160     15158     15167     15160     15158     15169     15167     15158     15169
     15158     15160     15161     15158     15160     15163     15158     15160     15165
     15161     15160     15163     15161     15160     15165     15163     15160     15165
     15177     15175     15184     15177     15175     15186     15184     15175     15186
     15175     15177     15178     15175     15177     15180     15175     15177     15182
     15178     15177     15180     15178     15177     15182     15180     15177     15182
     15194     15192     15201     15194     15192     15203     15201     15192     15203
     15192     15194     15195     15192     15194     15197     15192     15194     15199
     15195     15194     15197     15195     15194     15199     15197     15194     15199
     15211     15209     15218     15211     15209     15220     15218     15209     15220
     15209     15211     15212     15209     15211     15214     15209     15211     15216
     15212     15211     15214     15212     15211     15216     15214     15211     15216
     15228     15226     15235     15228     15226     15237     15235     15226     15237
     15226     15228     15229     15226     15228     15231     15226     15228     15233
     15229     15228     15231     15229     15228     15233     15231     15228     15233
     15245     15243     15252     15245     15243     15254     15252     15243     15254
     15243     15245     15246     15243     15245     15248     15243     15245     15250
     15246     15245     15248     15246     15245     15250     15248     15245     15250
     15262     15260     15269     15262     15260     15271     15269     15260     15271
     15260     15262     15263     15260     15262     15265     15260     15262     15267
     15263     15262     15265     15263     15262     15267     15265     15262     15267
     15279     15277     15286     15279     15277     15288     15286     15277     15288
     15277     15279     15280     15277     15279     15282     15277     15279     15284
     15280     15279     15282     15280     15279     15284     15282     15279     15284
     15296     15294     15303     15296     15294     15305     15303     15294     15305
     15294     15296     15297     15294     15296     15299     15294     15296     15301
     15297     15296     15299     15297     15296     15301     15299     15296     15301
     15313     15311     15320     15313     15311     15322     15320     15311     15322
     15311     15313     15314     15311     15313     15316     15311     15313     15318
     15314     15313     15316     15314     15313     15318     15316     15313     15318
     15330     15328     15337     15330     15328     15339     15337     15328     15339
     15328     15330     15331     15328     15330     15333     15328     15330     15335
     15331     15330     15333     15331     15330     15335     15333     15330     15335
     15347     15345     15354     15347     15345     15356     15354     15345     15356
     15345     15347     15348     15345     15347     15350     15345     15347     15352
     15348     15347     15350     15348     15347     15352     15350     15347     15352
     15364     15362     15371     15364     15362     15373     15371     15362     15373
     15362     15364     15365     15362     15364     15367     15362     15364     15369
     15365     15364     15367     15365     15364     15369     15367     15364     15369
     15381     15379     15388     15381     15379     15390     15388     15379     15390
     15379     15381     15382     15379     15381     15384     15379     15381     15386
     15382     15381     15384     15382     15381     15386     15384     15381     15386
     15398     15396     15405     15398     15396     15407     15405     15396     15407
     15396     15398     15399     15396     15398     15401     15396     15398     15403
     15399     15398     15401     15399     15398     15403     15401     15398     15403
     15415     15413     15422     15415     15413     15424     15422     15413     15424
     15413     15415     15416     15413     15415     15418     15413     15415     15420
     15416     15415     15418     15416     15415     15420     15418     15415     15420
     15432     15430     15439     15432     15430     15441     15439     15430     15441
     15430     15432     15433     15430     15432     15435     15430     15432     15437
     15433     15432     15435     15433     15432     15437     15435     15432     15437
     15449     15447     15456     15449     15447     15458     15456     15447     15458
     15447     15449     15450     15447     15449     15452     15447     15449     15454
     15450     15449     15452     15450     15449     15454     15452     15449     15454
     15466     15464     15473     15466     15464     15475     15473     15464     15475
     15464     15466     15467     15464     15466     15469     15464     15466     15471
     15467     15466     15469     15467     15466     15471     15469     15466     15471
     15483     15481     15490     15483     15481     15492     15490     15481     15492
     15481     15483     15484     15481     15483     15486     15481     15483     15488
     15484     15483     15486     15484     15483     15488     15486     15483     15488
     15500     15498     15507     15500     15498     15509     15507     15498     15509
     15498     15500     15501     15498     15500     15503     15498     15500     15505
     15501     15500     15503     15501     15500     15505     15503     15500     15505
     15517     15515     15524     15517     15515     15526     15524     15515     15526
     15515     15517     15518     15515     15517     15520     15515     15517     15522
     15518     15517     15520     15518     15517     15522     15520     15517     15522
     15534     15532     15541     15534     15532     15543     15541     15532     15543
     15532     15534     15535     15532     15534     15537     15532     15534     15539
     15535     15534     15537     15535     15534     15539     15537     15534     15539
     15551     15549     15558     15551     15549     15560     15558     15549     15560
     15549     15551     15552     15549     15551     15554     15549     15551     15556
     15552     15551     15554     15552     15551     15556     15554     15551     15556
     15568     15566     15575     15568     15566     15577     15575     15566     15577
     15566     15568     15569     15566     15568     15571     15566     15568     15573
     15569     15568     15571     15569     15568     15573     15571     15568     15573
     15585     15583     15592     15585     15583     15594     15592     15583     15594
     15583     15585     15586     15583     15585     15588     15583     15585     15590
     15586     15585     15588     15586     15585     15590     15588     15585     15590
     15602     15600     15609     15602     15600     15611     15609     15600     15611
     15600     15602     15603     15600     15602     15605     15600     15602     15607
     15603     15602     15605     15603     15602     15607     15605     15602     15607
     15619     15617     15626     15619     15617     15628     15626     15617     15628
     15617     15619     15620     15617     15619     15622     15617     15619     15624
     15620     15619     15622     15620     15619     15624     15622     15619     15624
     15636     15634     15643     15636     15634     15645     15643     15634     15645
     15634     15636     15637     15634     15636     15639     15634     15636     15641
     15637     15636     15639     15637     15636     15641     15639     15636     15641
     15653     15651     15660     15653     15651     15662     15660     15651     15662
     15651     15653     15654     15651     15653     15656     15651     15653     15658
     15654     15653     15656     15654     15653     15658     15656     15653     15658
     15670     15668     15677     15670     15668     15679     15677     15668     15679
     15668     15670     15671     15668     15670     15673     15668     15670     15675
     15671     15670     15673     15671     15670     15675     15673     15670     15675
     15687     15685     15694     15687     15685     15696     15694     15685     15696
     15685     15687     15688     15685     15687     15690     15685     15687     15692
     15688     15687     15690     15688     15687     15692     15690     15687     15692
     15704     15702     15711     15704     15702     15713     15711     15702     15713
     15702     15704     15705     15702     15704     15707     15702     15704     15709
     15705     15704     15707     15705     15704     15709     15707     15704     15709
     15721     15719     15728     15721     15719     15730     15728     15719     15730
     15719     15721     15722     15719     15721     15724     15719     15721     15726
     15722     15721     15724     15722     15721     15726     15724     15721     15726
     15738     15736     15745     15738     15736     15747     15745     15736     15747
     15736     15738     15739     15736     15738     15741     15736     15738     15743
     15739     15738     15741     15739     15738     15743     15741     15738     15743
     15755     15753     15762     15755     15753     15764     15762     15753     15764
     15753     15755     15756     15753     15755     15758     15753     15755     15760
     15756     15755     15758     15756     15755     15760     15758     15755     15760
     15772     15770     15779     15772     15770     15781     15779     15770     15781
     15770     15772     15773     15770     15772     15775     15770     15772     15777
     15773     15772     15775     15773     15772     15777     15775     15772     15777
     15789     15787     15796     15789     15787     15798     15796     15787     15798
     15787     15789     15790     15787     15789     15792     15787     15789     15794
     15790     15789     15792     15790     15789     15794     15792     15789     15794
     15806     15804     15813     15806     15804     15815     15813     15804     15815
     15804     15806     15807     15804     15806     15809     15804     15806     15811
     15807     15806     15809     15807     15806     15811     15809     15806     15811
     15823     15821     15830     15823     15821     15832     15830     15821     15832
     15821     15823     15824     15821     15823     15826     15821     15823     15828
     15824     15823     15826     15824     15823     15828     15826     15823     15828
     15840     15838     15847     15840     15838     15849     15847     15838     15849
     15838     15840     15841     15838     15840     15843     15838     15840     15845
     15841     15840     15843     15841     15840     15845     15843     15840     15845
     15857     15855     15864     15857     15855     15866     15864     15855     15866
     15855     15857     15858     15855     15857     15860     15855     15857     15862
     15858     15857     15860     15858     15857     15862     15860     15857     15862
     15874     15872     15881     15874     15872     15883     15881     15872     15883
     15872     15874     15875     15872     15874     15877     15872     15874     15879
     15875     15874     15877     15875     15874     15879     15877     15874     15879
     15891     15889     15898     15891     15889     15900     15898     15889     15900
     15889     15891     15892     15889     15891     15894     15889     15891     15896
     15892     15891     15894     15892     15891     15896     15894     15891     15896
     15908     15906     15915     15908     15906     15917     15915     15906     15917
     15906     15908     15909     15906     15908     15911     15906     15908     15913
     15909     15908     15911     15909     15908     15913     15911     15908     15913
     15925     15923     15932     15925     15923     15934     15932     15923     15934
     15923     15925     15926     15923     15925     15928     15923     15925     15930
     15926     15925     15928     15926     15925     15930     15928     15925     15930
     15942     15940     15949     15942     15940     15951     15949     15940     15951
     15940     15942     15943     15940     15942     15945     15940     15942     15947
     15943     15942     15945     15943     15942     15947     15945     15942     15947
     15959     15957     15966     15959     15957     15968     15966     15957     15968
     15957     15959     15960     15957     15959     15962     15957     15959     15964
     15960     15959     15962     15960     15959     15964     15962     15959     15964
     15976     15974     15983     15976     15974     15985     15983     15974     15985
     15974     15976     15977     15974     15976     15979     15974     15976     15981
     15977     15976     15979     15977     15976     15981     15979     15976     15981
     15993     15991     16000     15993     15991     16002     16000     15991     16002
     15991     15993     15994     15991     15993     15996     15991     15993     15998
     15994     15993     15996     15994     15993     15998     15996     15993     15998
     16010     16008     16017     16010     16008     16019     16017     16008     16019
     16008     16010     16011     16008     16010     16013     16008     16010     16015
     16011     16010     16013     16011     16010     16015     16013     16010     16015
     16027     16025     16034     16027     16025     16036     16034     16025     16036
     16025     16027     16028     16025     16027     16030     16025     16027     16032
     16028     16027     16030     16028     16027     16032     16030     16027     16032
     16044     16042     16051     16044     16042     16053     16051     16042     16053
     16042     16044     16045     16042     16044     16047     16042     16044     16049
     16045     16044     16047     16045     16044     16049     16047     16044     16049
     16061     16059     16068     16061     16059     16070     16068     16059     16070
     16059     16061     16062     16059     16061     16064     16059     16061     16066
     16062     16061     16064     16062     16061     16066     16064     16061     16066
     16078     16076     16085     16078     16076     16087     16085     16076     16087
     16076     16078     16079     16076     16078     16081     16076     16078     16083
     16079     16078     16081     16079     16078     16083     16081     16078     16083
     16095     16093     16102     16095     16093     16104     16102     16093     16104
     16093     16095     16096     16093     16095     16098     16093     16095     16100
     16096     16095     16098     16096     16095     16100     16098     16095     16100
     16112     16110     16119     16112     16110     16121     16119     16110     16121
     16110     16112     16113     16110     16112     16115     16110     16112     16117
     16113     16112     16115     16113     16112     16117     16115     16112     16117
     16129     16127     16136     16129     16127     16138     16136     16127     16138
     16127     16129     16130     16127     16129     16132     16127     16129     16134
     16130     16129     16132     16130     16129     16134     16132     16129     16134
     16146     16144     16153     16146     16144     16155     16153     16144     16155
     16144     16146     16147     16144     16146     16149     16144     16146     16151
     16147     16146     16149     16147     16146     16151     16149     16146     16151
     16163     16161     16170     16163     16161     16172     16170     16161     16172
     16161     16163     16164     16161     16163     16166     16161     16163     16168
     16164     16163     16166     16164     16163     16168     16166     16163     16168
     16180     16178     16187     16180     16178     16189     16187     16178     16189
     16178     16180     16181     16178     16180     16183     16178     16180     16185
     16181     16180     16183     16181     16180     16185     16183     16180     16185
     16197     16195     16204     16197     16195     16206     16204     16195     16206
     16195     16197     16198     16195     16197     16200     16195     16197     16202
     16198     16197     16200     16198     16197     16202     16200     16197     16202
     16214     16212     16221     16214     16212     16223     16221     16212     16223
     16212     16214     16215     16212     16214     16217     16212     16214     16219
     16215     16214     16217     16215     16214     16219     16217     16214     16219
     16231     16229     16238     16231     16229     16240     16238     16229     16240
     16229     16231     16232     16229     16231     16234     16229     16231     16236
     16232     16231     16234     16232     16231     16236     16234     16231     16236
     16248     16246     16255     16248     16246     16257     16255     16246     16257
     16246     16248     16249     16246     16248     16251     16246     16248     16253
     16249     16248     16251     16249     16248     16253     16251     16248     16253
     16265     16263     16272     16265     16263     16274     16272     16263     16274
     16263     16265     16266     16263     16265     16268     16263     16265     16270
     16266     16265     16268     16266     16265     16270     16268     16265     16270
     16282     16280     16289     16282     16280     16291     16289     16280     16291
     16280     16282     16283     16280     16282     16285     16280     16282     16287
     16283     16282     16285     16283     16282     16287     16285     16282     16287
     16299     16297     16306     16299     16297     16308     16306     16297     16308
     16297     16299     16300     16297     16299     16302     16297     16299     16304
     16300     16299     16302     16300     16299     16304     16302     16299     16304
     16316     16314     16323     16316     16314     16325     16323     16314     16325
     16314     16316     16317     16314     16316     16319     16314     16316     16321
     16317     16316     16319     16317     16316     16321     16319     16316     16321
     16333     16331     16340     16333     16331     16342     16340     16331     16342
     16331     16333     16334     16331     16333     16336     16331     16333     16338
     16334     16333     16336     16334     16333     16338     16336     16333     16338
     16350     16348     16357     16350     16348     16359     16357     16348     16359
     16348     16350     16351     16348     16350     16353     16348     16350     16355
     16351     16350     16353     16351     16350     16355     16353     16350     16355
     16367     16365     16374     16367     16365     16376     16374     16365     16376
     16365     16367     16368     16365     16367     16370     16365     16367     16372
     16368     16367     16370     16368     16367     16372     16370     16367     16372
     16384     16382     16391     16384     16382     16393     16391     16382     16393
     16382     16384     16385     16382     16384     16387     16382     16384     16389
     16385     16384     16387     16385     16384     16389     16387     16384     16389
     16401     16399     16408     16401     16399     16410     16408     16399     16410
     16399     16401     16402     16399     16401     16404     16399     16401     16406
     16402     16401     16404     16402     16401     16406     16404     16401     16406
     16418     16416     16425     16418     16416     16427     16425     16416     16427
     16416     16418     16419     16416     16418     16421     16416     16418     16423
     16419     16418     16421     16419     16418     16423     16421     16418     16423
     16435     16433     16442     16435     16433     16444     16442     16433     16444
     16433     16435     16436     16433     16435     16438     16433     16435     16440
     16436     16435     16438     16436     16435     16440     16438     16435     16440
     16452     16450     16459     16452     16450     16461     16459     16450     16461
     16450     16452     16453     16450     16452     16455     16450     16452     16457
     16453     16452     16455     16453     16452     16457     16455     16452     16457
     16469     16467     16476     16469     16467     16478     16476     16467     16478
     16467     16469     16470     16467     16469     16472     16467     16469     16474
     16470     16469     16472     16470     16469     16474     16472     16469     16474
     16486     16484     16493     16486     16484     16495     16493     16484     16495
     16484     16486     16487     16484     16486     16489     16484     16486     16491
     16487     16486     16489     16487     16486     16491     16489     16486     16491
     16503     16501     16510     16503     16501     16512     16510     16501     16512
     16501     16503     16504     16501     16503     16506     16501     16503     16508
     16504     16503     16506     16504     16503     16508     16506     16503     16508
     16520     16518     16527     16520     16518     16529     16527     16518     16529
     16518     16520     16521     16518     16520     16523     16518     16520     16525
     16521     16520     16523     16521     16520     16525     16523     16520     16525
     16537     16535     16544     16537     16535     16546     16544     16535     16546
     16535     16537     16538     16535     16537     16540     16535     16537     16542
     16538     16537     16540     16538     16537     16542     16540     16537     16542
     16554     16552     16561     16554     16552     16563     16561     16552     16563
     16552     16554     16555     16552     16554     16557     16552     16554     16559
     16555     16554     16557     16555     16554     16559     16557     16554     16559
     16571     16569     16578     16571     16569     16580     16578     16569     16580
     16569     16571     16572     16569     16571     16574     16569     16571     16576
     16572     16571     16574     16572     16571     16576     16574     16571     16576
     16588     16586     16595     16588     16586     16597     16595     16586     16597
     16586     16588     16589     16586     16588     16591     16586     16588     16593
     16589     16588     16591     16589     16588     16593     16591     16588     16593
     16605     16603     16612     16605     16603     16614     16612     16603     16614
     16603     16605     16606     16603     16605     16608     16603     16605     16610
     16606     16605     16608     16606     16605     16610     16608     16605     16610
     16622     16620     16629     16622     16620     16631     16629     16620     16631
     16620     16622     16623     16620     16622     16625     16620     16622     16627
     16623     16622     16625     16623     16622     16627     16625     16622     16627
     16639     16637     16646     16639     16637     16648     16646     16637     16648
     16637     16639     16640     16637     16639     16642     16637     16639     16644
     16640     16639     16642     16640     16639     16644     16642     16639     16644
     16656     16654     16663     16656     16654     16665     16663     16654     16665
     16654     16656     16657     16654     16656     16659     16654     16656     16661
     16657     16656     16659     16657     16656     16661     16659     16656     16661
     16673     16671     16680     16673     16671     16682     16680     16671     16682
     16671     16673     16674     16671     16673     16676     16671     16673     16678
     16674     16673     16676     16674     16673     16678     16676     16673     16678
     16690     16688     16697     16690     16688     16699     16697     16688     16699
     16688     16690     16691     16688     16690     16693     16688     16690     16695
     16691     16690     16693     16691     16690     16695     16693     16690     16695
     16707     16705     16714     16707     16705     16716     16714     16705     16716
     16705     16707     16708     16705     16707     16710     16705     16707     16712
     16708     16707     16710     16708     16707     16712     16710     16707     16712
     16724     16722     16731     16724     16722     16733     16731     16722     16733
     16722     16724     16725     16722     16724     16727     16722     16724     16729
     16725     16724     16727     16725     16724     16729     16727     16724     16729
     16741     16739     16748     16741     16739     16750     16748     16739     16750
     16739     16741     16742     16739     16741     16744     16739     16741     16746
     16742     16741     16744     16742     16741     16746     16744     16741     16746
     16758     16756     16765     16758     16756     16767     16765     16756     16767
     16756     16758     16759     16756     16758     16761     16756     16758     16763
     16759     16758     16761     16759     16758     16763     16761     16758     16763
     16775     16773     16782     16775     16773     16784     16782     16773     16784
     16773     16775     16776     16773     16775     16778     16773     16775     16780
     16776     16775     16778     16776     16775     16780     16778     16775     16780
     16792     16790     16799     16792     16790     16801     16799     16790     16801
     16790     16792     16793     16790     16792     16795     16790     16792     16797
     16793     16792     16795     16793     16792     16797     16795     16792     16797
     16809     16807     16816     16809     16807     16818     16816     16807     16818
     16807     16809     16810     16807     16809     16812     16807     16809     16814
     16810     16809     16812     16810     16809     16814     16812     16809     16814
     16826     16824     16833     16826     16824     16835     16833     16824     16835
     16824     16826     16827     16824     16826     16829     16824     16826     16831
     16827     16826     16829     16827     16826     16831     16829     16826     16831
     16843     16841     16850     16843     16841     16852     16850     16841     16852
     16841     16843     16844     16841     16843     16846     16841     16843     16848
     16844     16843     16846     16844     16843     16848     16846     16843     16848
     16860     16858     16867     16860     16858     16869     16867     16858     16869
     16858     16860     16861     16858     16860     16863     16858     16860     16865
     16861     16860     16863     16861     16860     16865     16863     16860     16865
     16877     16875     16884     16877     16875     16886     16884     16875     16886
     16875     16877     16878     16875     16877     16880     16875     16877     16882
     16878     16877     16880     16878     16877     16882     16880     16877     16882
     16894     16892     16901     16894     16892     16903     16901     16892     16903
     16892     16894     16895     16892     16894     16897     16892     16894     16899
     16895     16894     16897     16895     16894     16899     16897     16894     16899
     16911     16909     16918     16911     16909     16920     16918     16909     16920
     16909     16911     16912     16909     16911     16914     16909     16911     16916
     16912     16911     16914     16912     16911     16916     16914     16911     16916
     16928     16926     16935     16928     16926     16937     16935     16926     16937
     16926     16928     16929     16926     16928     16931     16926     16928     16933
     16929     16928     16931     16929     16928     16933     16931     16928     16933
     16945     16943     16952     16945     16943     16954     16952     16943     16954
     16943     16945     16946     16943     16945     16948     16943     16945     16950
     16946     16945     16948     16946     16945     16950     16948     16945     16950
     16962     16960     16969     16962     16960     16971     16969     16960     16971
     16960     16962     16963     16960     16962     16965     16960     16962     16967
     16963     16962     16965     16963     16962     16967     16965     16962     16967
     16979     16977     16986     16979     16977     16988     16986     16977     16988
     16977     16979     16980     16977     16979     16982     16977     16979     16984
     16980     16979     16982     16980     16979     16984     16982     16979     16984
     16996     16994     17003     16996     16994     17005     17003     16994     17005
     16994     16996     16997     16994     16996     16999     16994     16996     17001
     16997     16996     16999     16997     16996     17001     16999     16996     17001
     17013     17011     17020     17013     17011     17022     17020     17011     17022
     17011     17013     17014     17011     17013     17016     17011     17013     17018
     17014     17013     17016     17014     17013     17018     17016     17013     17018
     17030     17028     17037     17030     17028     17039     17037     17028     17039
     17028     17030     17031     17028     17030     17033     17028     17030     17035
     17031     17030     17033     17031     17030     17035     17033     17030     17035
     17047     17045     17054     17047     17045     17056     17054     17045     17056
     17045     17047     17048     17045     17047     17050     17045     17047     17052
     17048     17047     17050     17048     17047     17052     17050     17047     17052
     17064     17062     17071     17064     17062     17073     17071     17062     17073
     17062     17064     17065     17062     17064     17067     17062     17064     17069
     17065     17064     17067     17065     17064     17069     17067     17064     17069
     17081     17079     17088     17081     17079     17090     17088     17079     17090
     17079     17081     17082     17079     17081     17084     17079     17081     17086
     17082     17081     17084     17082     17081     17086     17084     17081     17086
     17098     17096     17105     17098     17096     17107     17105     17096     17107
     17096     17098     17099     17096     17098     17101     17096     17098     17103
     17099     17098     17101     17099     17098     17103     17101     17098     17103
     17115     17113     17122     17115     17113     17124     17122     17113     17124
     17113     17115     17116     17113     17115     17118     17113     17115     17120
     17116     17115     17118     17116     17115     17120     17118     17115     17120
     17132     17130     17139     17132     17130     17141     17139     17130     17141
     17130     17132     17133     17130     17132     17135     17130     17132     17137
     17133     17132     17135     17133     17132     17137     17135     17132     17137
     17149     17147     17156     17149     17147     17158     17156     17147     17158
     17147     17149     17150     17147     17149     17152     17147     17149     17154
     17150     17149     17152     17150     17149     17154     17152     17149     17154
     17166     17164     17173     17166     17164     17175     17173     17164     17175
     17164     17166     17167     17164     17166     17169     17164     17166     17171
     17167     17166     17169     17167     17166     17171     17169     17166     17171
     17183     17181     17190     17183     17181     17192     17190     17181     17192
     17181     17183     17184     17181     17183     17186     17181     17183     17188
     17184     17183     17186     17184     17183     17188     17186     17183     17188
     17200     17198     17207     17200     17198     17209     17207     17198     17209
     17198     17200     17201     17198     17200     17203     17198     17200     17205
     17201     17200     17203     17201     17200     17205     17203     17200     17205
     17217     17215     17224     17217     17215     17226     17224     17215     17226
     17215     17217     17218     17215     17217     17220     17215     17217     17222
     17218     17217     17220     17218     17217     17222     17220     17217     17222
     17234     17232     17241     17234     17232     17243     17241     17232     17243
     17232     17234     17235     17232     17234     17237     17232     17234     17239
     17235     17234     17237     17235     17234     17239     17237     17234     17239
     17251     17249     17258     17251     17249     17260     17258     17249     17260
     17249     17251     17252     17249     17251     17254     17249     17251     17256
     17252     17251     17254     17252     17251     17256     17254     17251     17256
     17268     17266     17275     17268     17266     17277     17275     17266     17277
     17266     17268     17269     17266     17268     17271     17266     17268     17273
     17269     17268     17271     17269     17268     17273     17271     17268     17273
     17285     17283     17292     17285     17283     17294     17292     17283     17294
     17283     17285     17286     17283     17285     17288     17283     17285     17290
     17286     17285     17288     17286     17285     17290     17288     17285     17290
     17302     17300     17309     17302     17300     17311     17309     17300     17311
     17300     17302     17303     17300     17302     17305     17300     17302     17307
     17303     17302     17305     17303     17302     17307     17305     17302     17307
     17319     17317     17326     17319     17317     17328     17326     17317     17328
     17317     17319     17320     17317     17319     17322     17317     17319     17324
     17320     17319     17322     17320     17319     17324     17322     17319     17324
     17336     17334     17343     17336     17334     17345     17343     17334     17345
     17334     17336     17337     17334     17336     17339     17334     17336     17341
     17337     17336     17339     17337     17336     17341     17339     17336     17341
     17353     17351     17360     17353     17351     17362     17360     17351     17362
     17351     17353     17354     17351     17353     17356     17351     17353     17358
     17354     17353     17356     17354     17353     17358     17356     17353     17358
     17370     17368     17377     17370     17368     17379     17377     17368     17379
     17368     17370     17371     17368     17370     17373     17368     17370     17375
     17371     17370     17373     17371     17370     17375     17373     17370     17375
     17387     17385     17394     17387     17385     17396     17394     17385     17396
     17385     17387     17388     17385     17387     17390     17385     17387     17392
     17388     17387     17390     17388     17387     17392     17390     17387     17392
     17404     17402     17411     17404     17402     17413     17411     17402     17413
     17402     17404     17405     17402     17404     17407     17402     17404     17409
     17405     17404     17407     17405     17404     17409     17407     17404     17409
     17421     17419     17428     17421     17419     17430     17428     17419     17430
     17419     17421     17422     17419     17421     17424     17419     17421     17426
     17422     17421     17424     17422     17421     17426     17424     17421     17426
     17438     17436     17445     17438     17436     17447     17445     17436     17447
     17436     17438     17439     17436     17438     17441     17436     17438     17443
     17439     17438     17441     17439     17438     17443     17441     17438     17443
     17455     17453     17462     17455     17453     17464     17462     17453     17464
     17453     17455     17456     17453     17455     17458     17453     17455     17460
     17456     17455     17458     17456     17455     17460     17458     17455     17460
     17472     17470     17479     17472     17470     17481     17479     17470     17481
     17470     17472     17473     17470     17472     17475     17470     17472     17477
     17473     17472     17475     17473     17472     17477     17475     17472     17477
     17489     17487     17496     17489     17487     17498     17496     17487     17498
     17487     17489     17490     17487     17489     17492     17487     17489     17494
     17490     17489     17492     17490     17489     17494     17492     17489     17494
     17506     17504     17513     17506     17504     17515     17513     17504     17515
     17504     17506     17507     17504     17506     17509     17504     17506     17511
     17507     17506     17509     17507     17506     17511     17509     17506     17511
     17523     17521     17530     17523     17521     17532     17530     17521     17532
     17521     17523     17524     17521     17523     17526     17521     17523     17528
     17524     17523     17526     17524     17523     17528     17526     17523     17528
     17540     17538     17547     17540     17538     17549     17547     17538     17549
     17538     17540     17541     17538     17540     17543     17538     17540     17545
     17541     17540     17543     17541     17540     17545     17543     17540     17545
     17557     17555     17564     17557     17555     17566     17564     17555     17566
     17555     17557     17558     17555     17557     17560     17555     17557     17562
     17558     17557     17560     17558     17557     17562     17560     17557     17562
     17574     17572     17581     17574     17572     17583     17581     17572     17583
     17572     17574     17575     17572     17574     17577     17572     17574     17579
     17575     17574     17577     17575     17574     17579     17577     17574     17579
     17591     17589     17598     17591     17589     17600     17598     17589     17600
     17589     17591     17592     17589     17591     17594     17589     17591     17596
     17592     17591     17594     17592     17591     17596     17594     17591     17596
     17608     17606     17615     17608     17606     17617     17615     17606     17617
     17606     17608     17609     17606     17608     17611     17606     17608     17613
     17609     17608     17611     17609     17608     17613     17611     17608     17613
     17625     17623     17632     17625     17623     17634     17632     17623     17634
     17623     17625     17626     17623     17625     17628     17623     17625     17630
     17626     17625     17628     17626     17625     17630     17628     17625     17630
     17642     17640     17649     17642     17640     17651     17649     17640     17651
     17640     17642     17643     17640     17642     17645     17640     17642     17647
     17643     17642     17645     17643     17642     17647     17645     17642     17647
     17659     17657     17666     17659     17657     17668     17666     17657     17668
     17657     17659     17660     17657     17659     17662     17657     17659     17664
     17660     17659     17662     17660     17659     17664     17662     17659     17664
     17676     17674     17683     17676     17674     17685     17683     17674     17685
     17674     17676     17677     17674     17676     17679     17674     17676     17681
     17677     17676     17679     17677     17676     17681     17679     17676     17681
     17693     17691     17700     17693     17691     17702     17700     17691     17702
     17691     17693     17694     17691     17693     17696     17691     17693     17698
     17694     17693     17696     17694     17693     17698     17696     17693     17698
     17710     17708     17717     17710     17708     17719     17717     17708     17719
     17708     17710     17711     17708     17710     17713     17708     17710     17715
     17711     17710     17713     17711     17710     17715     17713     17710     17715
     17727     17725     17734     17727     17725     17736     17734     17725     17736
     17725     17727     17728     17725     17727     17730     17725     17727     17732
     17728     17727     17730     17728     17727     17732     17730     17727     17732
     17744     17742     17751     17744     17742     17753     17751     17742     17753
     17742     17744     17745     17742     17744     17747     17742     17744     17749
     17745     17744     17747     17745     17744     17749     17747     17744     17749
     17761     17759     17768     17761     17759     17770     17768     17759     17770
     17759     17761     17762     17759     17761     17764     17759     17761     17766
     17762     17761     17764     17762     17761     17766     17764     17761     17766
     17778     17776     17785     17778     17776     17787     17785     17776     17787
     17776     17778     17779     17776     17778     17781     17776     17778     17783
     17779     17778     17781     17779     17778     17783     17781     17778     17783
     17795     17793     17802     17795     17793     17804     17802     17793     17804
     17793     17795     17796     17793     17795     17798     17793     17795     17800
     17796     17795     17798     17796     17795     17800     17798     17795     17800
     17812     17810     17819     17812     17810     17821     17819     17810     17821
     17810     17812     17813     17810     17812     17815     17810     17812     17817
     17813     17812     17815     17813     17812     17817     17815     17812     17817
     17829     17827     17836     17829     17827     17838     17836     17827     17838
     17827     17829     17830     17827     17829     17832     17827     17829     17834
     17830     17829     17832     17830     17829     17834     17832     17829     17834
     17846     17844     17853     17846     17844     17855     17853     17844     17855
     17844     17846     17847     17844     17846     17849     17844     17846     17851
     17847     17846     17849     17847     17846     17851     17849     17846     17851
     17863     17861     17870     17863     17861     17872     17870     17861     17872
     17861     17863     17864     17861     17863     17866     17861     17863     17868
     17864     17863     17866     17864     17863     17868     17866     17863     17868
     17880     17878     17887     17880     17878     17889     17887     17878     17889
     17878     17880     17881     17878     17880     17883     17878     17880     17885
     17881     17880     17883     17881     17880     17885     17883     17880     17885
     17897     17895     17904     17897     17895     17906     17904     17895     17906
     17895     17897     17898     17895     17897     17900     17895     17897     17902
     17898     17897     17900     17898     17897     17902     17900     17897     17902
     17914     17912     17921     17914     17912     17923     17921     17912     17923
     17912     17914     17915     17912     17914     17917     17912     17914     17919
     17915     17914     17917     17915     17914     17919     17917     17914     17919
     17931     17929     17938     17931     17929     17940     17938     17929     17940
     17929     17931     17932     17929     17931     17934     17929     17931     17936
     17932     17931     17934     17932     17931     17936     17934     17931     17936
     17948     17946     17955     17948     17946     17957     17955     17946     17957
     17946     17948     17949     17946     17948     17951     17946     17948     17953
     17949     17948     17951     17949     17948     17953     17951     17948     17953
     17965     17963     17972     17965     17963     17974     17972     17963     17974
     17963     17965     17966     17963     17965     17968     17963     17965     17970
     17966     17965     17968     17966     17965     17970     17968     17965     17970
     17982     17980     17989     17982     17980     17991     17989     17980     17991
     17980     17982     17983     17980     17982     17985     17980     17982     17987
     17983     17982     17985     17983     17982     17987     17985     17982     17987
     17999     17997     18006     17999     17997     18008     18006     17997     18008
     17997     17999     18000     17997     17999     18002     17997     17999     18004
     18000     17999     18002     18000     17999     18004     18002     17999     18004
     18016     18014     18023     18016     18014     18025     18023     18014     18025
     18014     18016     18017     18014     18016     18019     18014     18016     18021
     18017     18016     18019     18017     18016     18021     18019     18016     18021
     18033     18031     18040     18033     18031     18042     18040     18031     18042
     18031     18033     18034     18031     18033     18036     18031     18033     18038
     18034     18033     18036     18034     18033     18038     18036     18033     18038
     18050     18048     18057     18050     18048     18059     18057     18048     18059
     18048     18050     18051     18048     18050     18053     18048     18050     18055
     18051     18050     18053     18051     18050     18055     18053     18050     18055
     18067     18065     18074     18067     18065     18076     18074     18065     18076
     18065     18067     18068     18065     18067     18070     18065     18067     18072
     18068     18067     18070     18068     18067     18072     18070     18067     18072
     18084     18082     18091     18084     18082     18093     18091     18082     18093
     18082     18084     18085     18082     18084     18087     18082     18084     18089
     18085     18084     18087     18085     18084     18089     18087     18084     18089
     18101     18099     18108     18101     18099     18110     18108     18099     18110
     18099     18101     18102     18099     18101     18104     18099     18101     18106
     18102     18101     18104     18102     18101     18106     18104     18101     18106
     18118     18116     18125     18118     18116     18127     18125     18116     18127
     18116     18118     18119     18116     18118     18121     18116     18118     18123
     18119     18118     18121     18119     18118     18123     18121     18118     18123
     18135     18133     18142     18135     18133     18144     18142     18133     18144
     18133     18135     18136     18133     18135     18138     18133     18135     18140
     18136     18135     18138     18136     18135     18140     18138     18135     18140
     18152     18150     18159     18152     18150     18161     18159     18150     18161
     18150     18152     18153     18150     18152     18155     18150     18152     18157
     18153     18152     18155     18153     18152     18157     18155     18152     18157
     18169     18167     18176     18169     18167     18178     18176     18167     18178
     18167     18169     18170     18167     18169     18172     18167     18169     18174
     18170     18169     18172     18170     18169     18174     18172     18169     18174
     18186     18184     18193     18186     18184     18195     18193     18184     18195
     18184     18186     18187     18184     18186     18189     18184     18186     18191
     18187     18186     18189     18187     18186     18191     18189     18186     18191

     16600 !NPHI: dihedrals
         1         6         8        10         1         6         8        11
         1         6        14        16         1         6        14        17
         3         1         6         8         3         1         6        14
         4         1         6         8         4         1         6        14
         5         1         6         8         5         1         6        14
         6         8        11        13         6         8        11        17
         6        14        17        11         6        14        17        19
         8         6        14        16         8         6        14        17
         8        11        17        14         8        11        17        19
        10         8         6        14        10         8        11        13
        10         8        11        17        11         8         6        14
        11        17        14        16        13        11        17        14
        13        11        17        19        16        14        17        19
        21        26        28        30        21        26        28        31
        21        26        34        36        21        26        34        37
        23        21        26        28        23        21        26        34
        24        21        26        28        24        21        26        34
        25        21        26        28        25        21        26        34
        26        28        31        33        26        28        31        37
        26        34        37        31        26        34        37        39
        28        26        34        36        28        26        34        37
        28        31        37        34        28        31        37        39
        30        28        26        34        30        28        31        33
        30        28        31        37        31        28        26        34
        31        37        34        36        33        31        37        34
        33        31        37        39        36        34        37        39
        41        46        48        50        41        46        48        51
        41        46        54        56        41        46        54        57
        43        41        46        48        43        41        46        54
        44        41        46        48        44        41        46        54
        45        41        46        48        45        41        46        54
        46        48        51        53        46        48        51        57
        46        54        57        51        46        54        57        59
        48        46        54        56        48        46        54        57
        48        51        57        54        48        51        57        59
        50        48        46        54        50        48        51        53
        50        48        51        57        51        48        46        54
        51        57        54        56        53        51        57        54
        53        51        57        59        56        54        57        59
        61        66        68        70        61        66        68        71
        61        66        74        76        61        66        74        77
        63        61        66        68        63        61        66        74
        64        61        66        68        64        61        66        74
        65        61        66        68        65        61        66        74
        66        68        71        73        66        68        71        77
        66        74        77        71        66        74        77        79
        68        66        74        76        68        66        74        77
        68        71        77        74        68        71        77        79
        70        68        66        74        70        68        71        73
        70        68        71        77        71        68        66        74
        71        77        74        76        73        71        77        74
        73        71        77        79        76        74        77        79
        81        86        88        90        81        86        88        91
        81        86        94        96        81        86        94        97
        83        81        86        88        83        81        86        94
        84        81        86        88        84        81        86        94
        85        81        86        88        85        81        86        94
        86        88        91        93        86        88        91        97
        86        94        97        91        86        94        97        99
        88        86        94        96        88        86        94        97
        88        91        97        94        88        91        97        99
        90        88        86        94        90        88        91        93
        90        88        91        97        91        88        86        94
        91        97        94        96        93        91        97        94
        93        91        97        99        96        94        97        99
       101       106       108       110       101       106       108       111
       101       106       114       116       101       106       114       117
       103       101       106       108       103       101       106       114
       104       101       106       108       104       101       106       114
       105       101       106       108       105       101       106       114
       106       108       111       113       106       108       111       117
       106       114       117       111       106       114       117       119
       108       106       114       116       108       106       114       117
       108       111       117       114       108       111       117       119
       110       108       106       114       110       108       111       113
       110       108       111       117       111       108       106       114
       111       117       114       116       113       111       117       114
       113       111       117       119       116       114       117       119
       121       126       128       130       121       126       128       131
       121       126       134       136       121       126       134       137
       123       121       126       128       123       121       126       134
       124       121       126       128       124       121       126       134
       125       121       126       128       125       121       126       134
       126       128       131       133       126       128       131       137
       126       134       137       131       126       134       137       139
       128       126       134       136       128       126       134       137
       128       131       137       134       128       131       137       139
       130       128       126       134       130       128       131       133
       130       128       131       137       131       128       126       134
       131       137       134       136       133       131       137       134
       133       131       137       139       136       134       137       139
       141       146       148       150       141       146       148       151
       141       146       154       156       141       146       154       157
       143       141       146       148       143       141       146       154
       144       141       146       148       144       141       146       154
       145       141       146       148       145       141       146       154
       146       148       151       153       146       148       151       157
       146       154       157       151       146       154       157       159
       148       146       154       156       148       146       154       157
       148       151       157       154       148       151       157       159
       150       148       146       154       150       148       151       153
       150       148       151       157       151       148       146       154
       151       157       154       156       153       151       157       154
       153       151       157       159       156       154       157       159
       161       166       168       170       161       166       168       171
       161       166       174       176       161       166       174       177
       163       161       166       168       163       161       166       174
       164       161       166       168       164       161       166       174
       165       161       166       168       165       161       166       174
       166       168       171       173       166       168       171       177
       166       174       177       171       166       174       177       179
       168       166       174       176       168       166       174       177
       168       171       177       174       168       171       177       179
       170       168       166       174       170       168       171       173
       170       168       171       177       171       168       166       174
       171       177       174       176       173       171       177       174
       173       171       177       179       176       174       177       179
       181       186       188       190       181       186       188       191
       181       186       194       196       181       186       194       197
       183       181       186       188       183       181       186       194
       184       181       186       188       184       181       186       194
       185       181       186       188       185       181       186       194
       186       188       191       193       186       188       191       197
       186       194       197       191       186       194       197       199
       188       186       194       196       188       186       194       197
       188       191       197       194       188       191       197       199
       190       188       186       194       190       188       191       193
       190       188       191       197       191       188       186       194
       191       197       194       196       193       191       197       194
       193       191       197       199       196       194       197       199
       201       206       208       210       201       206       208       211
       201       206       214       216       201       206       214       217
       203       201       206       208       203       201       206       214
       204       201       206       208       204       201       206       214
       205       201       206       208       205       201       206       214
       206       208       211       213       206       208       211       217
       206       214       217       211       206       214       217       219
       208       206       214       216       208       206       214       217
       208       211       217       214       208       211       217       219
       210       208       206       214       210       208       211       213
       210       208       211       217       211       208       206       214
       211       217       214       216       213       211       217       214
       213       211       217       219       216       214       217       219
       221       226       228       230       221       226       228       231
       221       226       234       236       221       226       234       237
       223       221       226       228       223       221       226       234
       224       221       226       228       224       221       226       234
       225       221       226       228       225       221       226       234
       226       228       231       233       226       228       231       237
       226       234       237       231       226       234       237       239
       228       226       234       236       228       226       234       237
       228       231       237       234       228       231       237       239
       230       228       226       234       230       228       231       233
       230       228       231       237       231       228       226       234
       231       237       234       236       233       231       237       234
       233       231       237       239       236       234       237       239
       241       246       248       250       241       246       248       251
       241       246       254       256       241       246       254       257
       243       241       246       248       243       241       246       254
       244       241       246       248       244       241       246       254
       245       241       246       248       245       241       246       254
       246       248       251       253       246       248       251       257
       246       254       257       251       246       254       257       259
       248       246       254       256       248       246       254       257
       248       251       257       254       248       251       257       259
       250       248       246       254       250       248       251       253
       250       248       251       257       251       248       246       254
       251       257       254       256       253       251       257       254
       253       251       257       259       256       254       257       259
       261       266       268       270       261       266       268       271
       261       266       274       276       261       266       274       277
       263       261       266       268       263       261       266       274
       264       261       266       268       264       261       266       274
       265       261       266       268       265       261       266       274
       266       268       271       273       266       268       271       277
       266       274       277       271       266       274       277       279
       268       266       274       276       268       266       274       277
       268       271       277       274       268       271       277       279
       270       268       266       274       270       268       271       273
       270       268       271       277       271       268       266       274
       271       277       274       276       273       271       277       274
       273       271       277       279       276       274       277       279
       281       286       288       290       281       286       288       291
       281       286       294       296       281       286       294       297
       283       281       286       288       283       281       286       294
       284       281       286       288       284       281       286       294
       285       281       286       288       285       281       286       294
       286       288       291       293       286       288       291       297
       286       294       297       291       286       294       297       299
       288       286       294       296       288       286       294       297
       288       291       297       294       288       291       297       299
       290       288       286       294       290       288       291       293
       290       288       291       297       291       288       286       294
       291       297       294       296       293       291       297       294
       293       291       297       299       296       294       297       299
       301       306       308       310       301       306       308       311
       301       306       314       316       301       306       314       317
       303       301       306       308       303       301       306       314
       304       301       306       308       304       301       306       314
       305       301       306       308       305       301       306       314
       306       308       311       313       306       308       311       317
       306       314       317       311       306       314       317       319
       308       306       314       316       308       306       314       317
       308       311       317       314       308       311       317       319
       310       308       306       314       310       308       311       313
       310       308       311       317       311       308       306       314
       311       317       314       316       313       311       317       314
       313       311       317       319       316       314       317       319
       321       326       328       330       321       326       328       331
       321       326       334       336       321       326       334       337
       323       321       326       328       323       321       326       334
       324       321       326       328       324       321       326       334
       325       321       326       328       325       321       326       334
       326       328       331       333       326       328       331       337
       326       334       337       331       326       334       337       339
       328       326       334       336       328       326       334       337
       328       331       337       334       328       331       337       339
       330       328       326       334       330       328       331       333
       330       328       331       337       331       328       326       334
       331       337       334       336       333       331       337       334
       333       331       337       339       336       334       337       339
       341       346       348       350       341       346       348       351
       341       346       354       356       341       346       354       357
       343       341       346       348       343       341       346       354
       344       341       346       348       344       341       346       354
       345       341       346       348       345       341       346       354
       346       348       351       353       346       348       351       357
       346       354       357       351       346       354       357       359
       348       346       354       356       348       346       354       357
       348       351       357       354       348       351       357       359
       350       348       346       354       350       348       351       353
       350       348       351       357       351       348       346       354
       351       357       354       356       353       351       357       354
       353       351       357       359       356       354       357       359
       361       366       368       370       361       366       368       371
       361       366       374       376       361       366       374       377
       363       361       366       368       363       361       366       374
       364       361       366       368       364       361       366       374
       365       361       366       368       365       361       366       374
       366       368       371       373       366       368       371       377
       366       374       377       371       366       374       377       379
       368       366       374       376       368       366       374       377
       368       371       377       374       368       371       377       379
       370       368       366       374       370       368       371       373
       370       368       371       377       371       368       366       374
       371       377       374       376       373       371       377       374
       373       371       377       379       376       374       377       379
       381       386       388       390       381       386       388       391
       381       386       394       396       381       386       394       397
       383       381       386       388       383       381       386       394
       384       381       386       388       384       381       386       394
       385       381       386       388       385       381       386       394
       386       388       391       393       386       388       391       397
       386       394       397       391       386       394       397       399
       388       386       394       396       388       386       394       397
       388       391       397       394       388       391       397       399
       390       388       386       394       390       388       391       393
       390       388       391       397       391       388       386       394
       391       397       394       396       393       391       397       394
       393       391       397       399       396       394       397       399
       401       406       408       410       401       406       408       411
       401       406       414       416       401       406       414       417
       403       401       406       408       403       401       406       414
       404       401       406       408       404       401       406       414
       405       401       406       408       405       401       406       414
       406       408       411       413       406       408       411       417
       406       414       417       411       406       414       417       419
       408       406       414       416       408       406       414       417
       408       411       417       414       408       411       417       419
       410       408       406       414       410       408       411       413
       410       408       411       417       411       408       406       414
       411       417       414       416       413       411       417       414
       413       411       417       419       416       414       417       419
       421       426       428       430       421       426       428       431
       421       426       434       436       421       426       434       437
       423       421       426       428       423       421       426       434
       424       421       426       428       424       421       426       434
       425       421       426       428       425       421       426       434
       426       428       431       433       426       428       431       437
       426       434       437       431       426       434       437       439
       428       426       434       436       428       426       434       437
       428       431       437       434       428       431       437       439
       430       428       426       434       430       428       431       433
       430       428       431       437       431       428       426       434
       431       437       434       436       433       431       437       434
       433       431       437       439       436       434       437       439
       441       446       448       450       441       446       448       451
       441       446       454       456       441       446       454       457
       443       441       446       448       443       441       446       454
       444       441       446       448       444       441       446       454
       445       441       446       448       445       441       446       454
       446       448       451       453       446       448       451       457
       446       454       457       451       446       454       457       459
       448       446       454       456       448       446       454       457
       448       451       457       454       448       451       457       459
       450       448       446       454       450       448       451       453
       450       448       451       457       451       448       446       454
       451       457       454       456       453       451       457       454
       453       451       457       459       456       454       457       459
       461       466       468       470       461       466       468       471
       461       466       474       476       461       466       474       477
       463       461       466       468       463       461       466       474
       464       461       466       468       464       461       466       474
       465       461       466       468       465       461       466       474
       466       468       471       473       466       468       471       477
       466       474       477       471       466       474       477       479
       468       466       474       476       468       466       474       477
       468       471       477       474       468       471       477       479
       470       468       466       474       470       468       471       473
       470       468       471       477       471       468       466       474
       471       477       474       476       473       471       477       474
       473       471       477       479       476       474       477       479
       481       486       488       490       481       486       488       491
       481       486       494       496       481       486       494       497
       483       481       486       488       483       481       486       494
       484       481       486       488       484       481       486       494
       485       481       486       488       485       481       486       494
       486       488       491       493       486       488       491       497
       486       494       497       491       486       494       497       499
       488       486       494       496       488       486       494       497
       488       491       497       494       488       491       497       499
       490       488       486       494       490       488       491       493
       490       488       491       497       491       488       486       494
       491       497       494       496       493       491       497       494
       493       491       497       499       496       494       497       499
       501       506       508       510       501       506       508       511
       501       506       514       516       501       506       514       517
       503       501       506       508       503       501       506       514
       504       501       506       508       504       501       506       514
       505       501       506       508       505       501       506       514
       506       508       511       513       506       508       511       517
       506       514       517       511       506       514       517       519
       508       506       514       516       508       506       514       517
       508       511       517       514       508       511       517       519
       510       508       506       514       510       508       511       513
       510       508       511       517       511       508       506       514
       511       517       514       516       513       511       517       514
       513       511       517       519       516       514       517       519
       521       526       528       530       521       526       528       531
       521       526       534       536       521       526       534       537
       523       521       526       528       523       521       526       534
       524       521       526       528       524       521       526       534
       525       521       526       528       525       521       526       534
       526       528       531       533       526       528       531       537
       526       534       537       531       526       534       537       539
       528       526       534       536       528       526       534       537
       528       531       537       534       528       531       537       539
       530       528       526       534       530       528       531       533
       530       528       531       537       531       528       526       534
       531       537       534       536       533       531       537       534
       533       531       537       539       536       534       537       539
       541       546       548       550       541       546       548       551
       541       546       554       556       541       546       554       557
       543       541       546       548       543       541       546       554
       544       541       546       548       544       541       546       554
       545       541       546       548       545       541       546       554
       546       548       551       553       546       548       551       557
       546       554       557       551       546       554       557       559
       548       546       554       556       548       546       554       557
       548       551       557       554       548       551       557       559
       550       548       546       554       550       548       551       553
       550       548       551       557       551       548       546       554
       551       557       554       556       553       551       557       554
       553       551       557       559       556       554       557       559
       561       566       568       570       561       566       568       571
       561       566       574       576       561       566       574       577
       563       561       566       568       563       561       566       574
       564       561       566       568       564       561       566       574
       565       561       566       568       565       561       566       574
       566       568       571       573       566       568       571       577
       566       574       577       571       566       574       577       579
       568       566       574       576       568       566       574       577
       568       571       577       574       568       571       577       579
       570       568       566       574       570       568       571       573
       570       568       571       577       571       568       566       574
       571       577       574       576       573       571       577       574
       573       571       577       579       576       574       577       579
       581       586       588       590       581       586       588       591
       581       586       594       596       581       586       594       597
       583       581       586       588       583       581       586       594
       584       581       586       588       584       581       586       594
       585       581       586       588       585       581       586       594
       586       588       591       593       586       588       591       597
       586       594       597       591       586       594       597       599
       588       586       594       596       588       586       594       597
       588       591       597       594       588       591       597       599
       590       588       586       594       590       588       591       593
       590       588       591       597       591       588       586       594
       591       597       594       596       593       591       597       594
       593       591       597       599       596       594       597       599
       601       606       608       610       601       606       608       611
       601       606       614       616       601       606       614       617
       603       601       606       608       603       601       606       614
       604       601       606       608       604       601       606       614
       605       601       606       608       605       601       606       614
       606       608       611       613       606       608       611       617
       606       614       617       611       606       614       617       619
       608       606       614       616       608       606       614       617
       608       611       617       614       608       611       617       619
       610       608       606       614       610       608       611       613
       610       608       611       617       611       608       606       614
       611       617       614       616       613       611       617       614
       613       611       617       619       616       614       617       619
       621       626       628       630       621       626       628       631
       621       626       634       636       621       626       634       637
       623       621       626       628       623       621       626       634
       624       621       626       628       624       621       626       634
       625       621       626       628       625       621       626       634
       626       628       631       633       626       628       631       637
       626       634       637       631       626       634       637       639
       628       626       634       636       628       626       634       637
       628       631       637       634       628       631       637       639
       630       628       626       634       630       628       631       633
       630       628       631       637       631       628       626       634
       631       637       634       636       633       631       637       634
       633       631       637       639       636       634       637       639
       641       646       648       650       641       646       648       651
       641       646       654       656       641       646       654       657
       643       641       646       648       643       641       646       654
       644       641       646       648       644       641       646       654
       645       641       646       648       645       641       646       654
       646       648       651       653       646       648       651       657
       646       654       657       651       646       654       657       659
       648       646       654       656       648       646       654       657
       648       651       657       654       648       651       657       659
       650       648       646       654       650       648       651       653
       650       648       651       657       651       648       646       654
       651       657       654       656       653       651       657       654
       653       651       657       659       656       654       657       659
       661       666       668       670       661       666       668       671
       661       666       674       676       661       666       674       677
       663       661       666       668       663       661       666       674
       664       661       666       668       664       661       666       674
       665       661       666       668       665       661       666       674
       666       668       671       673       666       668       671       677
       666       674       677       671       666       674       677       679
       668       666       674       676       668       666       674       677
       668       671       677       674       668       671       677       679
       670       668       666       674       670       668       671       673
       670       668       671       677       671       668       666       674
       671       677       674       676       673       671       677       674
       673       671       677       679       676       674       677       679
       681       686       688       690       681       686       688       691
       681       686       694       696       681       686       694       697
       683       681       686       688       683       681       686       694
       684       681       686       688       684       681       686       694
       685       681       686       688       685       681       686       694
       686       688       691       693       686       688       691       697
       686       694       697       691       686       694       697       699
       688       686       694       696       688       686       694       697
       688       691       697       694       688       691       697       699
       690       688       686       694       690       688       691       693
       690       688       691       697       691       688       686       694
       691       697       694       696       693       691       697       694
       693       691       697       699       696       694       697       699
       701       706       708       710       701       706       708       711
       701       706       714       716       701       706       714       717
       703       701       706       708       703       701       706       714
       704       701       706       708       704       701       706       714
       705       701       706       708       705       701       706       714
       706       708       711       713       706       708       711       717
       706       714       717       711       706       714       717       719
       708       706       714       716       708       706       714       717
       708       711       717       714       708       711       717       719
       710       708       706       714       710       708       711       713
       710       708       711       717       711       708       706       714
       711       717       714       716       713       711       717       714
       713       711       717       719       716       714       717       719
       721       726       728       730       721       726       728       731
       721       726       734       736       721       726       734       737
       723       721       726       728       723       721       726       734
       724       721       726       728       724       721       726       734
       725       721       726       728       725       721       726       734
       726       728       731       733       726       728       731       737
       726       734       737       731       726       734       737       739
       728       726       734       736       728       726       734       737
       728       731       737       734       728       731       737       739
       730       728       726       734       730       728       731       733
       730       728       731       737       731       728       726       734
       731       737       734       736       733       731       737       734
       733       731       737       739       736       734       737       739
       741       746       748       750       741       746       748       751
       741       746       754       756       741       746       754       757
       743       741       746       748       743       741       746       754
       744       741       746       748       744       741       746       754
       745       741       746       748       745       741       746       754
       746       748       751       753       746       748       751       757
       746       754       757       751       746       754       757       759
       748       746       754       756       748       746       754       757
       748       751       757       754       748       751       757       759
       750       748       746       754       750       748       751       753
       750       748       751       757       751       748       746       754
       751       757       754       756       753       751       757       754
       753       751       757       759       756       754       757       759
       761       766       768       770       761       766       768       771
       761       766       774       776       761       766       774       777
       763       761       766       768       763       761       766       774
       764       761       766       768       764       761       766       774
       765       761       766       768       765       761       766       774
       766       768       771       773       766       768       771       777
       766       774       777       771       766       774       777       779
       768       766       774       776       768       766       774       777
       768       771       777       774       768       771       777       779
       770       768       766       774       770       768       771       773
       770       768       771       777       771       768       766       774
       771       777       774       776       773       771       777       774
       773       771       777       779       776       774       777       779
       781       786       788       790       781       786       788       791
       781       786       794       796       781       786       794       797
       783       781       786       788       783       781       786       794
       784       781       786       788       784       781       786       794
       785       781       786       788       785       781       786       794
       786       788       791       793       786       788       791       797
       786       794       797       791       786       794       797       799
       788       786       794       796       788       786       794       797
       788       791       797       794       788       791       797       799
       790       788       786       794       790       788       791       793
       790       788       791       797       791       788       786       794
       791       797       794       796       793       791       797       794
       793       791       797       799       796       794       797       799
       801       806       808       810       801       806       808       811
       801       806       814       816       801       806       814       817
       803       801       806       808       803       801       806       814
       804       801       806       808       804       801       806       814
       805       801       806       808       805       801       806       814
       806       808       811       813       806       808       811       817
       806       814       817       811       806       814       817       819
       808       806       814       816       808       806       814       817
       808       811       817       814       808       811       817       819
       810       808       806       814       810       808       811       813
       810       808       811       817       811       808       806       814
       811       817       814       816       813       811       817       814
       813       811       817       819       816       814       817       819
       821       826       828       830       821       826       828       831
       821       826       834       836       821       826       834       837
       823       821       826       828       823       821       826       834
       824       821       826       828       824       821       826       834
       825       821       826       828       825       821       826       834
       826       828       831       833       826       828       831       837
       826       834       837       831       826       834       837       839
       828       826       834       836       828       826       834       837
       828       831       837       834       828       831       837       839
       830       828       826       834       830       828       831       833
       830       828       831       837       831       828       826       834
       831       837       834       836       833       831       837       834
       833       831       837       839       836       834       837       839
       841       846       848       850       841       846       848       851
       841       846       854       856       841       846       854       857
       843       841       846       848       843       841       846       854
       844       841       846       848       844       841       846       854
       845       841       846       848       845       841       846       854
       846       848       851       853       846       848       851       857
       846       854       857       851       846       854       857       859
       848       846       854       856       848       846       854       857
       848       851       857       854       848       851       857       859
       850       848       846       854       850       848       851       853
       850       848       851       857       851       848       846       854
       851       857       854       856       853       851       857       854
       853       851       857       859       856       854       857       859
       861       866       868       870       861       866       868       871
       861       866       874       876       861       866       874       877
       863       861       866       868       863       861       866       874
       864       861       866       868       864       861       866       874
       865       861       866       868       865       861       866       874
       866       868       871       873       866       868       871       877
       866       874       877       871       866       874       877       879
       868       866       874       876       868       866       874       877
       868       871       877       874       868       871       877       879
       870       868       866       874       870       868       871       873
       870       868       871       877       871       868       866       874
       871       877       874       876       873       871       877       874
       873       871       877       879       876       874       877       879
       881       886       888       890       881       886       888       891
       881       886       894       896       881       886       894       897
       883       881       886       888       883       881       886       894
       884       881       886       888       884       881       886       894
       885       881       886       888       885       881       886       894
       886       888       891       893       886       888       891       897
       886       894       897       891       886       894       897       899
       888       886       894       896       888       886       894       897
       888       891       897       894       888       891       897       899
       890       888       886       894       890       888       891       893
       890       888       891       897       891       888       886       894
       891       897       894       896       893       891       897       894
       893       891       897       899       896       894       897       899
       901       906       908       910       901       906       908       911
       901       906       914       916       901       906       914       917
       903       901       906       908       903       901       906       914
       904       901       906       908       904       901       906       914
       905       901       906       908       905       901       906       914
       906       908       911       913       906       908       911       917
       906       914       917       911       906       914       917       919
       908       906       914       916       908       906       914       917
       908       911       917       914       908       911       917       919
       910       908       906       914       910       908       911       913
       910       908       911       917       911       908       906       914
       911       917       914       916       913       911       917       914
       913       911       917       919       916       914       917       919
       921       926       928       930       921       926       928       931
       921       926       934       936       921       926       934       937
       923       921       926       928       923       921       926       934
       924       921       926       928       924       921       926       934
       925       921       926       928       925       921       926       934
       926       928       931       933       926       928       931       937
       926       934       937       931       926       934       937       939
       928       926       934       936       928       926       934       937
       928       931       937       934       928       931       937       939
       930       928       926       934       930       928       931       933
       930       928       931       937       931       928       926       934
       931       937       934       936       933       931       937       934
       933       931       937       939       936       934       937       939
       941       946       948       950       941       946       948       951
       941       946       954       956       941       946       954       957
       943       941       946       948       943       941       946       954
       944       941       946       948       944       941       946       954
       945       941       946       948       945       941       946       954
       946       948       951       953       946       948       951       957
       946       954       957       951       946       954       957       959
       948       946       954       956       948       946       954       957
       948       951       957       954       948       951       957       959
       950       948       946       954       950       948       951       953
       950       948       951       957       951       948       946       954
       951       957       954       956       953       951       957       954
       953       951       957       959       956       954       957       959
       961       966       968       970       961       966       968       971
       961       966       974       976       961       966       974       977
       963       961       966       968       963       961       966       974
       964       961       966       968       964       961       966       974
       965       961       966       968       965       961       966       974
       966       968       971       973       966       968       971       977
       966       974       977       971       966       974       977       979
       968       966       974       976       968       966       974       977
       968       971       977       974       968       971       977       979
       970       968       966       974       970       968       971       973
       970       968       971       977       971       968       966       974
       971       977       974       976       973       971       977       974
       973       971       977       979       976       974       977       979
       981       986       988       990       981       986       988       991
       981       986       994       996       981       986       994       997
       983       981       986       988       983       981       986       994
       984       981       986       988       984       981       986       994
       985       981       986       988       985       981       986       994
       986       988       991       993       986       988       991       997
       986       994       997       991       986       994       997       999
       988       986       994       996       988       986       994       997
       988       991       997       994       988       991       997       999
       990       988       986       994       990       988       991       993
       990       988       991       997       991       988       986       994
       991       997       994       996       993       991       997       994
       993       991       997       999       996       994       997       999
      1001      1006      1008      1010      1001      1006      1008      1011
      1001      1006      1014      1016      1001      1006      1014      1017
      1003      1001      1006      1008      1003      1001      1006      1014
      1004      1001      1006      1008      1004      1001      1006      1014
      1005      1001      1006      1008      1005      1001      1006      1014
      1006      1008      1011      1013      1006      1008      1011      1017
      1006      1014      1017      1011      1006      1014      1017      1019
      1008      1006      1014      1016      1008      1006      1014      1017
      1008      1011      1017      1014      1008      1011      1017      1019
      1010      1008      1006      1014      1010      1008      1011      1013
      1010      1008      1011      1017      1011      1008      1006      1014
      1011      1017      1014      1016      1013      1011      1017      1014
      1013      1011      1017      1019      1016      1014      1017      1019
      1021      1026      1028      1030      1021      1026      1028      1031
      1021      1026      1034      1036      1021      1026      1034      1037
      1023      1021      1026      1028      1023      1021      1026      1034
      1024      1021      1026      1028      1024      1021      1026      1034
      1025      1021      1026      1028      1025      1021      1026      1034
      1026      1028      1031      1033      1026      1028      1031      1037
      1026      1034      1037      1031      1026      1034      1037      1039
      1028      1026      1034      1036      1028      1026      1034      1037
      1028      1031      1037      1034      1028      1031      1037      1039
      1030      1028      1026      1034      1030      1028      1031      1033
      1030      1028      1031      1037      1031      1028      1026      1034
      1031      1037      1034      1036      1033      1031      1037      1034
      1033      1031      1037      1039      1036      1034      1037      1039
      1041      1046      1048      1050      1041      1046      1048      1051
      1041      1046      1054      1056      1041      1046      1054      1057
      1043      1041      1046      1048      1043      1041      1046      1054
      1044      1041      1046      1048      1044      1041      1046      1054
      1045      1041      1046      1048      1045      1041      1046      1054
      1046      1048      1051      1053      1046      1048      1051      1057
      1046      1054      1057      1051      1046      1054      1057      1059
      1048      1046      1054      1056      1048      1046      1054      1057
      1048      1051      1057      1054      1048      1051      1057      1059
      1050      1048      1046      1054      1050      1048      1051      1053
      1050      1048      1051      1057      1051      1048      1046      1054
      1051      1057      1054      1056      1053      1051      1057      1054
      1053      1051      1057      1059      1056      1054      1057      1059
      1061      1066      1068      1070      1061      1066      1068      1071
      1061      1066      1074      1076      1061      1066      1074      1077
      1063      1061      1066      1068      1063      1061      1066      1074
      1064      1061      1066      1068      1064      1061      1066      1074
      1065      1061      1066      1068      1065      1061      1066      1074
      1066      1068      1071      1073      1066      1068      1071      1077
      1066      1074      1077      1071      1066      1074      1077      1079
      1068      1066      1074      1076      1068      1066      1074      1077
      1068      1071      1077      1074      1068      1071      1077      1079
      1070      1068      1066      1074      1070      1068      1071      1073
      1070      1068      1071      1077      1071      1068      1066      1074
      1071      1077      1074      1076      1073      1071      1077      1074
      1073      1071      1077      1079      1076      1074      1077      1079
      1081      1086      1088      1090      1081      1086      1088      1091
      1081      1086      1094      1096      1081      1086      1094      1097
      1083      1081      1086      1088      1083      1081      1086      1094
      1084      1081      1086      1088      1084      1081      1086      1094
      1085      1081      1086      1088      1085      1081      1086      1094
      1086      1088      1091      1093      1086      1088      1091      1097
      1086      1094      1097      1091      1086      1094      1097      1099
      1088      1086      1094      1096      1088      1086      1094      1097
      1088      1091      1097      1094      1088      1091      1097      1099
      1090      1088      1086      1094      1090      1088      1091      1093
      1090      1088      1091      1097      1091      1088      1086      1094
      1091      1097      1094      1096      1093      1091      1097      1094
      1093      1091      1097      1099      1096      1094      1097      1099
      1101      1106      1108      1110      1101      1106      1108      1111
      1101      1106      1114      1116      1101      1106      1114      1117
      1103      1101      1106      1108      1103      1101      1106      1114
      1104      1101      1106      1108      1104      1101      1106      1114
      1105      1101      1106      1108      1105      1101      1106      1114
      1106      1108      1111      1113      1106      1108      1111      1117
      1106      1114      1117      1111      1106      1114      1117      1119
      1108      1106      1114      1116      1108      1106      1114      1117
      1108      1111      1117      1114      1108      1111      1117      1119
      1110      1108      1106      1114      1110      1108      1111      1113
      1110      1108      1111      1117      1111      1108      1106      1114
      1111      1117      1114      1116      1113      1111      1117      1114
      1113      1111      1117      1119      1116      1114      1117      1119
      1121      1126      1128      1130      1121      1126      1128      1131
      1121      1126      1134      1136      1121      1126      1134      1137
      1123      1121      1126      1128      1123      1121      1126      1134
      1124      1121      1126      1128      1124      1121      1126      1134
      1125      1121      1126      1128      1125      1121      1126      1134
      1126      1128      1131      1133      1126      1128      1131      1137
      1126      1134      1137      1131      1126      1134      1137      1139
      1128      1126      1134      1136      1128      1126      1134      1137
      1128      1131      1137      1134      1128      1131      1137      1139
      1130      1128      1126      1134      1130      1128      1131      1133
      1130      1128      1131      1137      1131      1128      1126      1134
      1131      1137      1134      1136      1133      1131      1137      1134
      1133      1131      1137      1139      1136      1134      1137      1139
      1141      1146      1148      1150      1141      1146      1148      1151
      1141      1146      1154      1156      1141      1146      1154      1157
      1143      1141      1146      1148      1143      1141      1146      1154
      1144      1141      1146      1148      1144      1141      1146      1154
      1145      1141      1146      1148      1145      1141      1146      1154
      1146      1148      1151      1153      1146      1148      1151      1157
      1146      1154      1157      1151      1146      1154      1157      1159
      1148      1146      1154      1156      1148      1146      1154      1157
      1148      1151      1157      1154      1148      1151      1157      1159
      1150      1148      1146      1154      1150      1148      1151      1153
      1150      1148      1151      1157      1151      1148      1146      1154
      1151      1157      1154      1156      1153      1151      1157      1154
      1153      1151      1157      1159      1156      1154      1157      1159
      1161      1166      1168      1170      1161      1166      1168      1171
      1161      1166      1174      1176      1161      1166      1174      1177
      1163      1161      1166      1168      1163      1161      1166      1174
      1164      1161      1166      1168      1164      1161      1166      1174
      1165      1161      1166      1168      1165      1161      1166      1174
      1166      1168      1171      1173      1166      1168      1171      1177
      1166      1174      1177      1171      1166      1174      1177      1179
      1168      1166      1174      1176      1168      1166      1174      1177
      1168      1171      1177      1174      1168      1171      1177      1179
      1170      1168      1166      1174      1170      1168      1171      1173
      1170      1168      1171      1177      1171      1168      1166      1174
      1171      1177      1174      1176      1173      1171      1177      1174
      1173      1171      1177      1179      1176      1174      1177      1179
      1181      1186      1188      1190      1181      1186      1188      1191
      1181      1186      1194      1196      1181      1186      1194      1197
      1183      1181      1186      1188      1183      1181      1186      1194
      1184      1181      1186      1188      1184      1181      1186      1194
      1185      1181      1186      1188      1185      1181      1186      1194
      1186      1188      1191      1193      1186      1188      1191      1197
      1186      1194      1197      1191      1186      1194      1197      1199
      1188      1186      1194      1196      1188      1186      1194      1197
      1188      1191      1197      1194      1188      1191      1197      1199
      1190      1188      1186      1194      1190      1188      1191      1193
      1190      1188      1191      1197      1191      1188      1186      1194
      1191      1197      1194      1196      1193      1191      1197      1194
      1193      1191      1197      1199      1196      1194      1197      1199
      1201      1206      1208      1210      1201      1206      1208      1211
      1201      1206      1214      1216      1201      1206      1214      1217
      1203      1201      1206      1208      1203      1201      1206      1214
      1204      1201      1206      1208      1204      1201      1206      1214
      1205      1201      1206      1208      1205      1201      1206      1214
      1206      1208      1211      1213      1206      1208      1211      1217
      1206      1214      1217      1211      1206      1214      1217      1219
      1208      1206      1214      1216      1208      1206      1214      1217
      1208      1211      1217      1214      1208      1211      1217      1219
      1210      1208      1206      1214      1210      1208      1211      1213
      1210      1208      1211      1217      1211      1208      1206      1214
      1211      1217      1214      1216      1213      1211      1217      1214
      1213      1211      1217      1219      1216      1214      1217      1219
      1221      1226      1228      1230      1221      1226      1228      1231
      1221      1226      1234      1236      1221      1226      1234      1237
      1223      1221      1226      1228      1223      1221      1226      1234
      1224      1221      1226      1228      1224      1221      1226      1234
      1225      1221      1226      1228      1225      1221      1226      1234
      1226      1228      1231      1233      1226      1228      1231      1237
      1226      1234      1237      1231      1226      1234      1237      1239
      1228      1226      1234      1236      1228      1226      1234      1237
      1228      1231      1237      1234      1228      1231      1237      1239
      1230      1228      1226      1234      1230      1228      1231      1233
      1230      1228      1231      1237      1231      1228      1226      1234
      1231      1237      1234      1236      1233      1231      1237      1234
      1233      1231      1237      1239      1236      1234      1237      1239
      1241      1246      1248      1250      1241      1246      1248      1251
      1241      1246      1254      1256      1241      1246      1254      1257
      1243      1241      1246      1248      1243      1241      1246      1254
      1244      1241      1246      1248      1244      1241      1246      1254
      1245      1241      1246      1248      1245      1241      1246      1254
      1246      1248      1251      1253      1246      1248      1251      1257
      1246      1254      1257      1251      1246      1254      1257      1259
      1248      1246      1254      1256      1248      1246      1254      1257
      1248      1251      1257      1254      1248      1251      1257      1259
      1250      1248      1246      1254      1250      1248      1251      1253
      1250      1248      1251      1257      1251      1248      1246      1254
      1251      1257      1254      1256      1253      1251      1257      1254
      1253      1251      1257      1259      1256      1254      1257      1259
      1261      1266      1268      1270      1261      1266      1268      1271
      1261      1266      1274      1276      1261      1266      1274      1277
      1263      1261      1266      1268      1263      1261      1266      1274
      1264      1261      1266      1268      1264      1261      1266      1274
      1265      1261      1266      1268      1265      1261      1266      1274
      1266      1268      1271      1273      1266      1268      1271      1277
      1266      1274      1277      1271      1266      1274      1277      1279
      1268      1266      1274      1276      1268      1266      1274      1277
      1268      1271      1277      1274      1268      1271      1277      1279
      1270      1268      1266      1274      1270      1268      1271      1273
      1270      1268      1271      1277      1271      1268      1266      1274
      1271      1277      1274      1276      1273      1271      1277      1274
      1273      1271      1277      1279      1276      1274      1277      1279
      1281      1286      1288      1290      1281      1286      1288      1291
      1281      1286      1294      1296      1281      1286      1294      1297
      1283      1281      1286      1288      1283      1281      1286      1294
      1284      1281      1286      1288      1284      1281      1286      1294
      1285      1281      1286      1288      1285      1281      1286      1294
      1286      1288      1291      1293      1286      1288      1291      1297
      1286      1294      1297      1291      1286      1294      1297      1299
      1288      1286      1294      1296      1288      1286      1294      1297
      1288      1291      1297      1294      1288      1291      1297      1299
      1290      1288      1286      1294      1290      1288      1291      1293
      1290      1288      1291      1297      1291      1288      1286      1294
      1291      1297      1294      1296      1293      1291      1297      1294
      1293      1291      1297      1299      1296      1294      1297      1299
      1301      1306      1308      1310      1301      1306      1308      1311
      1301      1306      1314      1316      1301      1306      1314      1317
      1303      1301      1306      1308      1303      1301      1306      1314
      1304      1301      1306      1308      1304      1301      1306      1314
      1305      1301      1306      1308      1305      1301      1306      1314
      1306      1308      1311      1313      1306      1308      1311      1317
      1306      1314      1317      1311      1306      1314      1317      1319
      1308      1306      1314      1316      1308      1306      1314      1317
      1308      1311      1317      1314      1308      1311      1317      1319
      1310      1308      1306      1314      1310      1308      1311      1313
      1310      1308      1311      1317      1311      1308      1306      1314
      1311      1317      1314      1316      1313      1311      1317      1314
      1313      1311      1317      1319      1316      1314      1317      1319
      1321      1326      1328      1330      1321      1326      1328      1331
      1321      1326      1334      1336      1321      1326      1334      1337
      1323      1321      1326      1328      1323      1321      1326      1334
      1324      1321      1326      1328      1324      1321      1326      1334
      1325      1321      1326      1328      1325      1321      1326      1334
      1326      1328      1331      1333      1326      1328      1331      1337
      1326      1334      1337      1331      1326      1334      1337      1339
      1328      1326      1334      1336      1328      1326      1334      1337
      1328      1331      1337      1334      1328      1331      1337      1339
      1330      1328      1326      1334      1330      1328      1331      1333
      1330      1328      1331      1337      1331      1328      1326      1334
      1331      1337      1334      1336      1333      1331      1337      1334
      1333      1331      1337      1339      1336      1334      1337      1339
      1341      1346      1348      1350      1341      1346      1348      1351
      1341      1346      1354      1356      1341      1346      1354      1357
      1343      1341      1346      1348      1343      1341      1346      1354
      1344      1341      1346      1348      1344      1341      1346      1354
      1345      1341      1346      1348      1345      1341      1346      1354
      1346      1348      1351      1353      1346      1348      1351      1357
      1346      1354      1357      1351      1346      1354      1357      1359
      1348      1346      1354      1356      1348      1346      1354      1357
      1348      1351      1357      1354      1348      1351      1357      1359
      1350      1348      1346      1354      1350      1348      1351      1353
      1350      1348      1351      1357      1351      1348      1346      1354
      1351      1357      1354      1356      1353      1351      1357      1354
      1353      1351      1357      1359      1356      1354      1357      1359
      1361      1366      1368      1370      1361      1366      1368      1371
      1361      1366      1374      1376      1361      1366      1374      1377
      1363      1361      1366      1368      1363      1361      1366      1374
      1364      1361      1366      1368      1364      1361      1366      1374
      1365      1361      1366      1368      1365      1361      1366      1374
      1366      1368      1371      1373      1366      1368      1371      1377
      1366      1374      1377      1371      1366      1374      1377      1379
      1368      1366      1374      1376      1368      1366      1374      1377
      1368      1371      1377      1374      1368      1371      1377      1379
      1370      1368      1366      1374      1370      1368      1371      1373
      1370      1368      1371      1377      1371      1368      1366      1374
      1371      1377      1374      1376      1373      1371      1377      1374
      1373      1371      1377      1379      1376      1374      1377      1379
      1381      1386      1388      1390      1381      1386      1388      1391
      1381      1386      1394      1396      1381      1386      1394      1397
      1383      1381      1386      1388      1383      1381      1386      1394
      1384      1381      1386      1388      1384      1381      1386      1394
      1385      1381      1386      1388      1385      1381      1386      1394
      1386      1388      1391      1393      1386      1388      1391      1397
      1386      1394      1397      1391      1386      1394      1397      1399
      1388      1386      1394      1396      1388      1386      1394      1397
      1388      1391      1397      1394      1388      1391      1397      1399
      1390      1388      1386      1394      1390      1388      1391      1393
      1390      1388      1391      1397      1391      1388      1386      1394
      1391      1397      1394      1396      1393      1391      1397      1394
      1393      1391      1397      1399      1396      1394      1397      1399
      1401      1406      1408      1410      1401      1406      1408      1411
      1401      1406      1414      1416      1401      1406      1414      1417
      1403      1401      1406      1408      1403      1401      1406      1414
      1404      1401      1406      1408      1404      1401      1406      1414
      1405      1401      1406      1408      1405      1401      1406      1414
      1406      1408      1411      1413      1406      1408      1411      1417
      1406      1414      1417      1411      1406      1414      1417      1419
      1408      1406      1414      1416      1408      1406      1414      1417
      1408      1411      1417      1414      1408      1411      1417      1419
      1410      1408      1406      1414      1410      1408      1411      1413
      1410      1408      1411      1417      1411      1408      1406      1414
      1411      1417      1414      1416      1413      1411      1417      1414
      1413      1411      1417      1419      1416      1414      1417      1419
      1421      1426      1428      1430      1421      1426      1428      1431
      1421      1426      1434      1436      1421      1426      1434      1437
      1423      1421      1426      1428      1423      1421      1426      1434
      1424      1421      1426      1428      1424      1421      1426      1434
      1425      1421      1426      1428      1425      1421      1426      1434
      1426      1428      1431      1433      1426      1428      1431      1437
      1426      1434      1437      1431      1426      1434      1437      1439
      1428      1426      1434      1436      1428      1426      1434      1437
      1428      1431      1437      1434      1428      1431      1437      1439
      1430      1428      1426      1434      1430      1428      1431      1433
      1430      1428      1431      1437      1431      1428      1426      1434
      1431      1437      1434      1436      1433      1431      1437      1434
      1433      1431      1437      1439      1436      1434      1437      1439
      1441      1446      1448      1450      1441      1446      1448      1451
      1441      1446      1454      1456      1441      1446      1454      1457
      1443      1441      1446      1448      1443      1441      1446      1454
      1444      1441      1446      1448      1444      1441      1446      1454
      1445      1441      1446      1448      1445      1441      1446      1454
      1446      1448      1451      1453      1446      1448      1451      1457
      1446      1454      1457      1451      1446      1454      1457      1459
      1448      1446      1454      1456      1448      1446      1454      1457
      1448      1451      1457      1454      1448      1451      1457      1459
      1450      1448      1446      1454      1450      1448      1451      1453
      1450      1448      1451      1457      1451      1448      1446      1454
      1451      1457      1454      1456      1453      1451      1457      1454
      1453      1451      1457      1459      1456      1454      1457      1459
      1461      1466      1468      1470      1461      1466      1468      1471
      1461      1466      1474      1476      1461      1466      1474      1477
      1463      1461      1466      1468      1463      1461      1466      1474
      1464      1461      1466      1468      1464      1461      1466      1474
      1465      1461      1466      1468      1465      1461      1466      1474
      1466      1468      1471      1473      1466      1468      1471      1477
      1466      1474      1477      1471      1466      1474      1477      1479
      1468      1466      1474      1476      1468      1466      1474      1477
      1468      1471      1477      1474      1468      1471      1477      1479
      1470      1468      1466      1474      1470      1468      1471      1473
      1470      1468      1471      1477      1471      1468      1466      1474
      1471      1477      1474      1476      1473      1471      1477      1474
      1473      1471      1477      1479      1476      1474      1477      1479
      1481      1486      1488      1490      1481      1486      1488      1491
      1481      1486      1494      1496      1481      1486      1494      1497
      1483      1481      1486      1488      1483      1481      1486      1494
      1484      1481      1486      1488      1484      1481      1486      1494
      1485      1481      1486      1488      1485      1481      1486      1494
      1486      1488      1491      1493      1486      1488      1491      1497
      1486      1494      1497      1491      1486      1494      1497      1499
      1488      1486      1494      1496      1488      1486      1494      1497
      1488      1491      1497      1494      1488      1491      1497      1499
      1490      1488      1486      1494      1490      1488      1491      1493
      1490      1488      1491      1497      1491      1488      1486      1494
      1491      1497      1494      1496      1493      1491      1497      1494
      1493      1491      1497      1499      1496      1494      1497      1499
      1501      1506      1508      1510      1501      1506      1508      1511
      1501      1506      1514      1516      1501      1506      1514      1517
      1503      1501      1506      1508      1503      1501      1506      1514
      1504      1501      1506      1508      1504      1501      1506      1514
      1505      1501      1506      1508      1505      1501      1506      1514
      1506      1508      1511      1513      1506      1508      1511      1517
      1506      1514      1517      1511      1506      1514      1517      1519
      1508      1506      1514      1516      1508      1506      1514      1517
      1508      1511      1517      1514      1508      1511      1517      1519
      1510      1508      1506      1514      1510      1508      1511      1513
      1510      1508      1511      1517      1511      1508      1506      1514
      1511      1517      1514      1516      1513      1511      1517      1514
      1513      1511      1517      1519      1516      1514      1517      1519
      1521      1526      1528      1530      1521      1526      1528      1531
      1521      1526      1534      1536      1521      1526      1534      1537
      1523      1521      1526      1528      1523      1521      1526      1534
      1524      1521      1526      1528      1524      1521      1526      1534
      1525      1521      1526      1528      1525      1521      1526      1534
      1526      1528      1531      1533      1526      1528      1531      1537
      1526      1534      1537      1531      1526      1534      1537      1539
      1528      1526      1534      1536      1528      1526      1534      1537
      1528      1531      1537      1534      1528      1531      1537      1539
      1530      1528      1526      1534      1530      1528      1531      1533
      1530      1528      1531      1537      1531      1528      1526      1534
      1531      1537      1534      1536      1533      1531      1537      1534
      1533      1531      1537      1539      1536      1534      1537      1539
      1541      1546      1548      1550      1541      1546      1548      1551
      1541      1546      1554      1556      1541      1546      1554      1557
      1543      1541      1546      1548      1543      1541      1546      1554
      1544      1541      1546      1548      1544      1541      1546      1554
      1545      1541      1546      1548      1545      1541      1546      1554
      1546      1548      1551      1553      1546      1548      1551      1557
      1546      1554      1557      1551      1546      1554      1557      1559
      1548      1546      1554      1556      1548      1546      1554      1557
      1548      1551      1557      1554      1548      1551      1557      1559
      1550      1548      1546      1554      1550      1548      1551      1553
      1550      1548      1551      1557      1551      1548      1546      1554
      1551      1557      1554      1556      1553      1551      1557      1554
      1553      1551      1557      1559      1556      1554      1557      1559
      1561      1566      1568      1570      1561      1566      1568      1571
      1561      1566      1574      1576      1561      1566      1574      1577
      1563      1561      1566      1568      1563      1561      1566      1574
      1564      1561      1566      1568      1564      1561      1566      1574
      1565      1561      1566      1568      1565      1561      1566      1574
      1566      1568      1571      1573      1566      1568      1571      1577
      1566      1574      1577      1571      1566      1574      1577      1579
      1568      1566      1574      1576      1568      1566      1574      1577
      1568      1571      1577      1574      1568      1571      1577      1579
      1570      1568      1566      1574      1570      1568      1571      1573
      1570      1568      1571      1577      1571      1568      1566      1574
      1571      1577      1574      1576      1573      1571      1577      1574
      1573      1571      1577      1579      1576      1574      1577      1579
      1581      1586      1588      1590      1581      1586      1588      1591
      1581      1586      1594      1596      1581      1586      1594      1597
      1583      1581      1586      1588      1583      1581      1586      1594
      1584      1581      1586      1588      1584      1581      1586      1594
      1585      1581      1586      1588      1585      1581      1586      1594
      1586      1588      1591      1593      1586      1588      1591      1597
      1586      1594      1597      1591      1586      1594      1597      1599
      1588      1586      1594      1596      1588      1586      1594      1597
      1588      1591      1597      1594      1588      1591      1597      1599
      1590      1588      1586      1594      1590      1588      1591      1593
      1590      1588      1591      1597      1591      1588      1586      1594
      1591      1597      1594      1596      1593      1591      1597      1594
      1593      1591      1597      1599      1596      1594      1597      1599
      1601      1606      1608      1610      1601      1606      1608      1611
      1601      1606      1614      1616      1601      1606      1614      1617
      1603      1601      1606      1608      1603      1601      1606      1614
      1604      1601      1606      1608      1604      1601      1606      1614
      1605      1601      1606      1608      1605      1601      1606      1614
      1606      1608      1611      1613      1606      1608      1611      1617
      1606      1614      1617      1611      1606      1614      1617      1619
      1608      1606      1614      1616      1608      1606      1614      1617
      1608      1611      1617      1614      1608      1611      1617      1619
      1610      1608      1606      1614      1610      1608      1611      1613
      1610      1608      1611      1617      1611      1608      1606      1614
      1611      1617      1614      1616      1613      1611      1617      1614
      1613      1611      1617      1619      1616      1614      1617      1619
      1621      1626      1628      1630      1621      1626      1628      1631
      1621      1626      1634      1636      1621      1626      1634      1637
      1623      1621      1626      1628      1623      1621      1626      1634
      1624      1621      1626      1628      1624      1621      1626      1634
      1625      1621      1626      1628      1625      1621      1626      1634
      1626      1628      1631      1633      1626      1628      1631      1637
      1626      1634      1637      1631      1626      1634      1637      1639
      1628      1626      1634      1636      1628      1626      1634      1637
      1628      1631      1637      1634      1628      1631      1637      1639
      1630      1628      1626      1634      1630      1628      1631      1633
      1630      1628      1631      1637      1631      1628      1626      1634
      1631      1637      1634      1636      1633      1631      1637      1634
      1633      1631      1637      1639      1636      1634      1637      1639
      1641      1646      1648      1650      1641      1646      1648      1651
      1641      1646      1654      1656      1641      1646      1654      1657
      1643      1641      1646      1648      1643      1641      1646      1654
      1644      1641      1646      1648      1644      1641      1646      1654
      1645      1641      1646      1648      1645      1641      1646      1654
      1646      1648      1651      1653      1646      1648      1651      1657
      1646      1654      1657      1651      1646      1654      1657      1659
      1648      1646      1654      1656      1648      1646      1654      1657
      1648      1651      1657      1654      1648      1651      1657      1659
      1650      1648      1646      1654      1650      1648      1651      1653
      1650      1648      1651      1657      1651      1648      1646      1654
      1651      1657      1654      1656      1653      1651      1657      1654
      1653      1651      1657      1659      1656      1654      1657      1659
      1661      1666      1668      1670      1661      1666      1668      1671
      1661      1666      1674      1676      1661      1666      1674      1677
      1663      1661      1666      1668      1663      1661      1666      1674
      1664      1661      1666      1668      1664      1661      1666      1674
      1665      1661      1666      1668      1665      1661      1666      1674
      1666      1668      1671      1673      1666      1668      1671      1677
      1666      1674      1677      1671      1666      1674      1677      1679
      1668      1666      1674      1676      1668      1666      1674      1677
      1668      1671      1677      1674      1668      1671      1677      1679
      1670      1668      1666      1674      1670      1668      1671      1673
      1670      1668      1671      1677      1671      1668      1666      1674
      1671      1677      1674      1676      1673      1671      1677      1674
      1673      1671      1677      1679      1676      1674      1677      1679
      1681      1686      1688      1690      1681      1686      1688      1691
      1681      1686      1694      1696      1681      1686      1694      1697
      1683      1681      1686      1688      1683      1681      1686      1694
      1684      1681      1686      1688      1684      1681      1686      1694
      1685      1681      1686      1688      1685      1681      1686      1694
      1686      1688      1691      1693      1686      1688      1691      1697
      1686      1694      1697      1691      1686      1694      1697      1699
      1688      1686      1694      1696      1688      1686      1694      1697
      1688      1691      1697      1694      1688      1691      1697      1699
      1690      1688      1686      1694      1690      1688      1691      1693
      1690      1688      1691      1697      1691      1688      1686      1694
      1691      1697      1694      1696      1693      1691      1697      1694
      1693      1691      1697      1699      1696      1694      1697      1699
      1701      1706      1708      1710      1701      1706      1708      1711
      1701      1706      1714      1716      1701      1706      1714      1717
      1703      1701      1706      1708      1703      1701      1706      1714
      1704      1701      1706      1708      1704      1701      1706      1714
      1705      1701      1706      1708      1705      1701      1706      1714
      1706      1708      1711      1713      1706      1708      1711      1717
      1706      1714      1717      1711      1706      1714      1717      1719
      1708      1706      1714      1716      1708      1706      1714      1717
      1708      1711      1717      1714      1708      1711      1717      1719
      1710      1708      1706      1714      1710      1708      1711      1713
      1710      1708      1711      1717      1711      1708      1706      1714
      1711      1717      1714      1716      1713      1711      1717      1714
      1713      1711      1717      1719      1716      1714      1717      1719
      1721      1726      1728      1730      1721      1726      1728      1731
      1721      1726      1734      1736      1721      1726      1734      1737
      1723      1721      1726      1728      1723      1721      1726      1734
      1724      1721      1726      1728      1724      1721      1726      1734
      1725      1721      1726      1728      1725      1721      1726      1734
      1726      1728      1731      1733      1726      1728      1731      1737
      1726      1734      1737      1731      1726      1734      1737      1739
      1728      1726      1734      1736      1728      1726      1734      1737
      1728      1731      1737      1734      1728      1731      1737      1739
      1730      1728      1726      1734      1730      1728      1731      1733
      1730      1728      1731      1737      1731      1728      1726      1734
      1731      1737      1734      1736      1733      1731      1737      1734
      1733      1731      1737      1739      1736      1734      1737      1739
      1741      1746      1748      1750      1741      1746      1748      1751
      1741      1746      1754      1756      1741      1746      1754      1757
      1743      1741      1746      1748      1743      1741      1746      1754
      1744      1741      1746      1748      1744      1741      1746      1754
      1745      1741      1746      1748      1745      1741      1746      1754
      1746      1748      1751      1753      1746      1748      1751      1757
      1746      1754      1757      1751      1746      1754      1757      1759
      1748      1746      1754      1756      1748      1746      1754      1757
      1748      1751      1757      1754      1748      1751      1757      1759
      1750      1748      1746      1754      1750      1748      1751      1753
      1750      1748      1751      1757      1751      1748      1746      1754
      1751      1757      1754      1756      1753      1751      1757      1754
      1753      1751      1757      1759      1756      1754      1757      1759
      1761      1766      1768      1770      1761      1766      1768      1771
      1761      1766      1774      1776      1761      1766      1774      1777
      1763      1761      1766      1768      1763      1761      1766      1774
      1764      1761      1766      1768      1764      1761      1766      1774
      1765      1761      1766      1768      1765      1761      1766      1774
      1766      1768      1771      1773      1766      1768      1771      1777
      1766      1774      1777      1771      1766      1774      1777      1779
      1768      1766      1774      1776      1768      1766      1774      1777
      1768      1771      1777      1774      1768      1771      1777      1779
      1770      1768      1766      1774      1770      1768      1771      1773
      1770      1768      1771      1777      1771      1768      1766      1774
      1771      1777      1774      1776      1773      1771      1777      1774
      1773      1771      1777      1779      1776      1774      1777      1779
      1781      1786      1788      1790      1781      1786      1788      1791
      1781      1786      1794      1796      1781      1786      1794      1797
      1783      1781      1786      1788      1783      1781      1786      1794
      1784      1781      1786      1788      1784      1781      1786      1794
      1785      1781      1786      1788      1785      1781      1786      1794
      1786      1788      1791      1793      1786      1788      1791      1797
      1786      1794      1797      1791      1786      1794      1797      1799
      1788      1786      1794      1796      1788      1786      1794      1797
      1788      1791      1797      1794      1788      1791      1797      1799
      1790      1788      1786      1794      1790      1788      1791      1793
      1790      1788      1791      1797      1791      1788      1786      1794
      1791      1797      1794      1796      1793      1791      1797      1794
      1793      1791      1797      1799      1796      1794      1797      1799
      1801      1806      1808      1810      1801      1806      1808      1811
      1801      1806      1814      1816      1801      1806      1814      1817
      1803      1801      1806      1808      1803      1801      1806      1814
      1804      1801      1806      1808      1804      1801      1806      1814
      1805      1801      1806      1808      1805      1801      1806      1814
      1806      1808      1811      1813      1806      1808      1811      1817
      1806      1814      1817      1811      1806      1814      1817      1819
      1808      1806      1814      1816      1808      1806      1814      1817
      1808      1811      1817      1814      1808      1811      1817      1819
      1810      1808      1806      1814      1810      1808      1811      1813
      1810      1808      1811      1817      1811      1808      1806      1814
      1811      1817      1814      1816      1813      1811      1817      1814
      1813      1811      1817      1819      1816      1814      1817      1819
      1821      1826      1828      1830      1821      1826      1828      1831
      1821      1826      1834      1836      1821      1826      1834      1837
      1823      1821      1826      1828      1823      1821      1826      1834
      1824      1821      1826      1828      1824      1821      1826      1834
      1825      1821      1826      1828      1825      1821      1826      1834
      1826      1828      1831      1833      1826      1828      1831      1837
      1826      1834      1837      1831      1826      1834      1837      1839
      1828      1826      1834      1836      1828      1826      1834      1837
      1828      1831      1837      1834      1828      1831      1837      1839
      1830      1828      1826      1834      1830      1828      1831      1833
      1830      1828      1831      1837      1831      1828      1826      1834
      1831      1837      1834      1836      1833      1831      1837      1834
      1833      1831      1837      1839      1836      1834      1837      1839
      1841      1846      1848      1850      1841      1846      1848      1851
      1841      1846      1854      1856      1841      1846      1854      1857
      1843      1841      1846      1848      1843      1841      1846      1854
      1844      1841      1846      1848      1844      1841      1846      1854
      1845      1841      1846      1848      1845      1841      1846      1854
      1846      1848      1851      1853      1846      1848      1851      1857
      1846      1854      1857      1851      1846      1854      1857      1859
      1848      1846      1854      1856      1848      1846      1854      1857
      1848      1851      1857      1854      1848      1851      1857      1859
      1850      1848      1846      1854      1850      1848      1851      1853
      1850      1848      1851      1857      1851      1848      1846      1854
      1851      1857      1854      1856      1853      1851      1857      1854
      1853      1851      1857      1859      1856      1854      1857      1859
      1861      1866      1868      1870      1861      1866      1868      1871
      1861      1866      1874      1876      1861      1866      1874      1877
      1863      1861      1866      1868      1863      1861      1866      1874
      1864      1861      1866      1868      1864      1861      1866      1874
      1865      1861      1866      1868      1865      1861      1866      1874
      1866      1868      1871      1873      1866      1868      1871      1877
      1866      1874      1877      1871      1866      1874      1877      1879
      1868      1866      1874      1876      1868      1866      1874      1877
      1868      1871      1877      1874      1868      1871      1877      1879
      1870      1868      1866      1874      1870      1868      1871      1873
      1870      1868      1871      1877      1871      1868      1866      1874
      1871      1877      1874      1876      1873      1871      1877      1874
      1873      1871      1877      1879      1876      1874      1877      1879
      1881      1886      1888      1890      1881      1886      1888      1891
      1881      1886      1894      1896      1881      1886      1894      1897
      1883      1881      1886      1888      1883      1881      1886      1894
      1884      1881      1886      1888      1884      1881      1886      1894
      1885      1881      1886      1888      1885      1881      1886      1894
      1886      1888      1891      1893      1886      1888      1891      1897
      1886      1894      1897      1891      1886      1894      1897      1899
      1888      1886      1894      1896      1888      1886      1894      1897
      1888      1891      1897      1894      1888      1891      1897      1899
      1890      1888      1886      1894      1890      1888      1891      1893
      1890      1888      1891      1897      1891      1888      1886      1894
      1891      1897      1894      1896      1893      1891      1897      1894
      1893      1891      1897      1899      1896      1894      1897      1899
      1901      1906      1908      1910      1901      1906      1908      1911
      1901      1906      1914      1916      1901      1906      1914      1917
      1903      1901      1906      1908      1903      1901      1906      1914
      1904      1901      1906      1908      1904      1901      1906      1914
      1905      1901      1906      1908      1905      1901      1906      1914
      1906      1908      1911      1913      1906      1908      1911      1917
      1906      1914      1917      1911      1906      1914      1917      1919
      1908      1906      1914      1916      1908      1906      1914      1917
      1908      1911      1917      1914      1908      1911      1917      1919
      1910      1908      1906      1914      1910      1908      1911      1913
      1910      1908      1911      1917      1911      1908      1906      1914
      1911      1917      1914      1916      1913      1911      1917      1914
      1913      1911      1917      1919      1916      1914      1917      1919
      1921      1926      1928      1930      1921      1926      1928      1931
      1921      1926      1934      1936      1921      1926      1934      1937
      1923      1921      1926      1928      1923      1921      1926      1934
      1924      1921      1926      1928      1924      1921      1926      1934
      1925      1921      1926      1928      1925      1921      1926      1934
      1926      1928      1931      1933      1926      1928      1931      1937
      1926      1934      1937      1931      1926      1934      1937      1939
      1928      1926      1934      1936      1928      1926      1934      1937
      1928      1931      1937      1934      1928      1931      1937      1939
      1930      1928      1926      1934      1930      1928      1931      1933
      1930      1928      1931      1937      1931      1928      1926      1934
      1931      1937      1934      1936      1933      1931      1937      1934
      1933      1931      1937      1939      1936      1934      1937      1939
      1941      1946      1948      1950      1941      1946      1948      1951
      1941      1946      1954      1956      1941      1946      1954      1957
      1943      1941      1946      1948      1943      1941      1946      1954
      1944      1941      1946      1948      1944      1941      1946      1954
      1945      1941      1946      1948      1945      1941      1946      1954
      1946      1948      1951      1953      1946      1948      1951      1957
      1946      1954      1957      1951      1946      1954      1957      1959
      1948      1946      1954      1956      1948      1946      1954      1957
      1948      1951      1957      1954      1948      1951      1957      1959
      1950      1948      1946      1954      1950      1948      1951      1953
      1950      1948      1951      1957      1951      1948      1946      1954
      1951      1957      1954      1956      1953      1951      1957      1954
      1953      1951      1957      1959      1956      1954      1957      1959
      1961      1966      1968      1970      1961      1966      1968      1971
      1961      1966      1974      1976      1961      1966      1974      1977
      1963      1961      1966      1968      1963      1961      1966      1974
      1964      1961      1966      1968      1964      1961      1966      1974
      1965      1961      1966      1968      1965      1961      1966      1974
      1966      1968      1971      1973      1966      1968      1971      1977
      1966      1974      1977      1971      1966      1974      1977      1979
      1968      1966      1974      1976      1968      1966      1974      1977
      1968      1971      1977      1974      1968      1971      1977      1979
      1970      1968      1966      1974      1970      1968      1971      1973
      1970      1968      1971      1977      1971      1968      1966      1974
      1971      1977      1974      1976      1973      1971      1977      1974
      1973      1971      1977      1979      1976      1974      1977      1979
      1981      1986      1988      1990      1981      1986      1988      1991
      1981      1986      1994      1996      1981      1986      1994      1997
      1983      1981      1986      1988      1983      1981      1986      1994
      1984      1981      1986      1988      1984      1981      1986      1994
      1985      1981      1986      1988      1985      1981      1986      1994
      1986      1988      1991      1993      1986      1988      1991      1997
      1986      1994      1997      1991      1986      1994      1997      1999
      1988      1986      1994      1996      1988      1986      1994      1997
      1988      1991      1997      1994      1988      1991      1997      1999
      1990      1988      1986      1994      1990      1988      1991      1993
      1990      1988      1991      1997      1991      1988      1986      1994
      1991      1997      1994      1996      1993      1991      1997      1994
      1993      1991      1997      1999      1996      1994      1997      1999
      2001      2006      2008      2010      2001      2006      2008      2011
      2001      2006      2014      2016      2001      2006      2014      2017
      2003      2001      2006      2008      2003      2001      2006      2014
      2004      2001      2006      2008      2004      2001      2006      2014
      2005      2001      2006      2008      2005      2001      2006      2014
      2006      2008      2011      2013      2006      2008      2011      2017
      2006      2014      2017      2011      2006      2014      2017      2019
      2008      2006      2014      2016      2008      2006      2014      2017
      2008      2011      2017      2014      2008      2011      2017      2019
      2010      2008      2006      2014      2010      2008      2011      2013
      2010      2008      2011      2017      2011      2008      2006      2014
      2011      2017      2014      2016      2013      2011      2017      2014
      2013      2011      2017      2019      2016      2014      2017      2019
      2021      2026      2028      2030      2021      2026      2028      2031
      2021      2026      2034      2036      2021      2026      2034      2037
      2023      2021      2026      2028      2023      2021      2026      2034
      2024      2021      2026      2028      2024      2021      2026      2034
      2025      2021      2026      2028      2025      2021      2026      2034
      2026      2028      2031      2033      2026      2028      2031      2037
      2026      2034      2037      2031      2026      2034      2037      2039
      2028      2026      2034      2036      2028      2026      2034      2037
      2028      2031      2037      2034      2028      2031      2037      2039
      2030      2028      2026      2034      2030      2028      2031      2033
      2030      2028      2031      2037      2031      2028      2026      2034
      2031      2037      2034      2036      2033      2031      2037      2034
      2033      2031      2037      2039      2036      2034      2037      2039
      2041      2046      2048      2050      2041      2046      2048      2051
      2041      2046      2054      2056      2041      2046      2054      2057
      2043      2041      2046      2048      2043      2041      2046      2054
      2044      2041      2046      2048      2044      2041      2046      2054
      2045      2041      2046      2048      2045      2041      2046      2054
      2046      2048      2051      2053      2046      2048      2051      2057
      2046      2054      2057      2051      2046      2054      2057      2059
      2048      2046      2054      2056      2048      2046      2054      2057
      2048      2051      2057      2054      2048      2051      2057      2059
      2050      2048      2046      2054      2050      2048      2051      2053
      2050      2048      2051      2057      2051      2048      2046      2054
      2051      2057      2054      2056      2053      2051      2057      2054
      2053      2051      2057      2059      2056      2054      2057      2059
      2061      2066      2068      2070      2061      2066      2068      2071
      2061      2066      2074      2076      2061      2066      2074      2077
      2063      2061      2066      2068      2063      2061      2066      2074
      2064      2061      2066      2068      2064      2061      2066      2074
      2065      2061      2066      2068      2065      2061      2066      2074
      2066      2068      2071      2073      2066      2068      2071      2077
      2066      2074      2077      2071      2066      2074      2077      2079
      2068      2066      2074      2076      2068      2066      2074      2077
      2068      2071      2077      2074      2068      2071      2077      2079
      2070      2068      2066      2074      2070      2068      2071      2073
      2070      2068      2071      2077      2071      2068      2066      2074
      2071      2077      2074      2076      2073      2071      2077      2074
      2073      2071      2077      2079      2076      2074      2077      2079
      2081      2086      2088      2090      2081      2086      2088      2091
      2081      2086      2094      2096      2081      2086      2094      2097
      2083      2081      2086      2088      2083      2081      2086      2094
      2084      2081      2086      2088      2084      2081      2086      2094
      2085      2081      2086      2088      2085      2081      2086      2094
      2086      2088      2091      2093      2086      2088      2091      2097
      2086      2094      2097      2091      2086      2094      2097      2099
      2088      2086      2094      2096      2088      2086      2094      2097
      2088      2091      2097      2094      2088      2091      2097      2099
      2090      2088      2086      2094      2090      2088      2091      2093
      2090      2088      2091      2097      2091      2088      2086      2094
      2091      2097      2094      2096      2093      2091      2097      2094
      2093      2091      2097      2099      2096      2094      2097      2099
      2101      2106      2108      2110      2101      2106      2108      2111
      2101      2106      2114      2116      2101      2106      2114      2117
      2103      2101      2106      2108      2103      2101      2106      2114
      2104      2101      2106      2108      2104      2101      2106      2114
      2105      2101      2106      2108      2105      2101      2106      2114
      2106      2108      2111      2113      2106      2108      2111      2117
      2106      2114      2117      2111      2106      2114      2117      2119
      2108      2106      2114      2116      2108      2106      2114      2117
      2108      2111      2117      2114      2108      2111      2117      2119
      2110      2108      2106      2114      2110      2108      2111      2113
      2110      2108      2111      2117      2111      2108      2106      2114
      2111      2117      2114      2116      2113      2111      2117      2114
      2113      2111      2117      2119      2116      2114      2117      2119
      2121      2126      2128      2130      2121      2126      2128      2131
      2121      2126      2134      2136      2121      2126      2134      2137
      2123      2121      2126      2128      2123      2121      2126      2134
      2124      2121      2126      2128      2124      2121      2126      2134
      2125      2121      2126      2128      2125      2121      2126      2134
      2126      2128      2131      2133      2126      2128      2131      2137
      2126      2134      2137      2131      2126      2134      2137      2139
      2128      2126      2134      2136      2128      2126      2134      2137
      2128      2131      2137      2134      2128      2131      2137      2139
      2130      2128      2126      2134      2130      2128      2131      2133
      2130      2128      2131      2137      2131      2128      2126      2134
      2131      2137      2134      2136      2133      2131      2137      2134
      2133      2131      2137      2139      2136      2134      2137      2139
      2141      2146      2148      2150      2141      2146      2148      2151
      2141      2146      2154      2156      2141      2146      2154      2157
      2143      2141      2146      2148      2143      2141      2146      2154
      2144      2141      2146      2148      2144      2141      2146      2154
      2145      2141      2146      2148      2145      2141      2146      2154
      2146      2148      2151      2153      2146      2148      2151      2157
      2146      2154      2157      2151      2146      2154      2157      2159
      2148      2146      2154      2156      2148      2146      2154      2157
      2148      2151      2157      2154      2148      2151      2157      2159
      2150      2148      2146      2154      2150      2148      2151      2153
      2150      2148      2151      2157      2151      2148      2146      2154
      2151      2157      2154      2156      2153      2151      2157      2154
      2153      2151      2157      2159      2156      2154      2157      2159
      2161      2166      2168      2170      2161      2166      2168      2171
      2161      2166      2174      2176      2161      2166      2174      2177
      2163      2161      2166      2168      2163      2161      2166      2174
      2164      2161      2166      2168      2164      2161      2166      2174
      2165      2161      2166      2168      2165      2161      2166      2174
      2166      2168      2171      2173      2166      2168      2171      2177
      2166      2174      2177      2171      2166      2174      2177      2179
      2168      2166      2174      2176      2168      2166      2174      2177
      2168      2171      2177      2174      2168      2171      2177      2179
      2170      2168      2166      2174      2170      2168      2171      2173
      2170      2168      2171      2177      2171      2168      2166      2174
      2171      2177      2174      2176      2173      2171      2177      2174
      2173      2171      2177      2179      2176      2174      2177      2179
      2181      2186      2188      2190      2181      2186      2188      2191
      2181      2186      2194      2196      2181      2186      2194      2197
      2183      2181      2186      2188      2183      2181      2186      2194
      2184      2181      2186      2188      2184      2181      2186      2194
      2185      2181      2186      2188      2185      2181      2186      2194
      2186      2188      2191      2193      2186      2188      2191      2197
      2186      2194      2197      2191      2186      2194      2197      2199
      2188      2186      2194      2196      2188      2186      2194      2197
      2188      2191      2197      2194      2188      2191      2197      2199
      2190      2188      2186      2194      2190      2188      2191      2193
      2190      2188      2191      2197      2191      2188      2186      2194
      2191      2197      2194      2196      2193      2191      2197      2194
      2193      2191      2197      2199      2196      2194      2197      2199
      2201      2206      2208      2210      2201      2206      2208      2211
      2201      2206      2214      2216      2201      2206      2214      2217
      2203      2201      2206      2208      2203      2201      2206      2214
      2204      2201      2206      2208      2204      2201      2206      2214
      2205      2201      2206      2208      2205      2201      2206      2214
      2206      2208      2211      2213      2206      2208      2211      2217
      2206      2214      2217      2211      2206      2214      2217      2219
      2208      2206      2214      2216      2208      2206      2214      2217
      2208      2211      2217      2214      2208      2211      2217      2219
      2210      2208      2206      2214      2210      2208      2211      2213
      2210      2208      2211      2217      2211      2208      2206      2214
      2211      2217      2214      2216      2213      2211      2217      2214
      2213      2211      2217      2219      2216      2214      2217      2219
      2221      2226      2228      2230      2221      2226      2228      2231
      2221      2226      2234      2236      2221      2226      2234      2237
      2223      2221      2226      2228      2223      2221      2226      2234
      2224      2221      2226      2228      2224      2221      2226      2234
      2225      2221      2226      2228      2225      2221      2226      2234
      2226      2228      2231      2233      2226      2228      2231      2237
      2226      2234      2237      2231      2226      2234      2237      2239
      2228      2226      2234      2236      2228      2226      2234      2237
      2228      2231      2237      2234      2228      2231      2237      2239
      2230      2228      2226      2234      2230      2228      2231      2233
      2230      2228      2231      2237      2231      2228      2226      2234
      2231      2237      2234      2236      2233      2231      2237      2234
      2233      2231      2237      2239      2236      2234      2237      2239
      2241      2246      2248      2250      2241      2246      2248      2251
      2241      2246      2254      2256      2241      2246      2254      2257
      2243      2241      2246      2248      2243      2241      2246      2254
      2244      2241      2246      2248      2244      2241      2246      2254
      2245      2241      2246      2248      2245      2241      2246      2254
      2246      2248      2251      2253      2246      2248      2251      2257
      2246      2254      2257      2251      2246      2254      2257      2259
      2248      2246      2254      2256      2248      2246      2254      2257
      2248      2251      2257      2254      2248      2251      2257      2259
      2250      2248      2246      2254      2250      2248      2251      2253
      2250      2248      2251      2257      2251      2248      2246      2254
      2251      2257      2254      2256      2253      2251      2257      2254
      2253      2251      2257      2259      2256      2254      2257      2259
      2261      2266      2268      2270      2261      2266      2268      2271
      2261      2266      2274      2276      2261      2266      2274      2277
      2263      2261      2266      2268      2263      2261      2266      2274
      2264      2261      2266      2268      2264      2261      2266      2274
      2265      2261      2266      2268      2265      2261      2266      2274
      2266      2268      2271      2273      2266      2268      2271      2277
      2266      2274      2277      2271      2266      2274      2277      2279
      2268      2266      2274      2276      2268      2266      2274      2277
      2268      2271      2277      2274      2268      2271      2277      2279
      2270      2268      2266      2274      2270      2268      2271      2273
      2270      2268      2271      2277      2271      2268      2266      2274
      2271      2277      2274      2276      2273      2271      2277      2274
      2273      2271      2277      2279      2276      2274      2277      2279
      2281      2286      2288      2290      2281      2286      2288      2291
      2281      2286      2294      2296      2281      2286      2294      2297
      2283      2281      2286      2288      2283      2281      2286      2294
      2284      2281      2286      2288      2284      2281      2286      2294
      2285      2281      2286      2288      2285      2281      2286      2294
      2286      2288      2291      2293      2286      2288      2291      2297
      2286      2294      2297      2291      2286      2294      2297      2299
      2288      2286      2294      2296      2288      2286      2294      2297
      2288      2291      2297      2294      2288      2291      2297      2299
      2290      2288      2286      2294      2290      2288      2291      2293
      2290      2288      2291      2297      2291      2288      2286      2294
      2291      2297      2294      2296      2293      2291      2297      2294
      2293      2291      2297      2299      2296      2294      2297      2299
      2301      2306      2308      2310      2301      2306      2308      2311
      2301      2306      2314      2316      2301      2306      2314      2317
      2303      2301      2306      2308      2303      2301      2306      2314
      2304      2301      2306      2308      2304      2301      2306      2314
      2305      2301      2306      2308      2305      2301      2306      2314
      2306      2308      2311      2313      2306      2308      2311      2317
      2306      2314      2317      2311      2306      2314      2317      2319
      2308      2306      2314      2316      2308      2306      2314      2317
      2308      2311      2317      2314      2308      2311      2317      2319
      2310      2308      2306      2314      2310      2308      2311      2313
      2310      2308      2311      2317      2311      2308      2306      2314
      2311      2317      2314      2316      2313      2311      2317      2314
      2313      2311      2317      2319      2316      2314      2317      2319
      2321      2326      2328      2330      2321      2326      2328      2331
      2321      2326      2334      2336      2321      2326      2334      2337
      2323      2321      2326      2328      2323      2321      2326      2334
      2324      2321      2326      2328      2324      2321      2326      2334
      2325      2321      2326      2328      2325      2321      2326      2334
      2326      2328      2331      2333      2326      2328      2331      2337
      2326      2334      2337      2331      2326      2334      2337      2339
      2328      2326      2334      2336      2328      2326      2334      2337
      2328      2331      2337      2334      2328      2331      2337      2339
      2330      2328      2326      2334      2330      2328      2331      2333
      2330      2328      2331      2337      2331      2328      2326      2334
      2331      2337      2334      2336      2333      2331      2337      2334
      2333      2331      2337      2339      2336      2334      2337      2339
      2341      2346      2348      2350      2341      2346      2348      2351
      2341      2346      2354      2356      2341      2346      2354      2357
      2343      2341      2346      2348      2343      2341      2346      2354
      2344      2341      2346      2348      2344      2341      2346      2354
      2345      2341      2346      2348      2345      2341      2346      2354
      2346      2348      2351      2353      2346      2348      2351      2357
      2346      2354      2357      2351      2346      2354      2357      2359
      2348      2346      2354      2356      2348      2346      2354      2357
      2348      2351      2357      2354      2348      2351      2357      2359
      2350      2348      2346      2354      2350      2348      2351      2353
      2350      2348      2351      2357      2351      2348      2346      2354
      2351      2357      2354      2356      2353      2351      2357      2354
      2353      2351      2357      2359      2356      2354      2357      2359
      2361      2366      2368      2370      2361      2366      2368      2371
      2361      2366      2374      2376      2361      2366      2374      2377
      2363      2361      2366      2368      2363      2361      2366      2374
      2364      2361      2366      2368      2364      2361      2366      2374
      2365      2361      2366      2368      2365      2361      2366      2374
      2366      2368      2371      2373      2366      2368      2371      2377
      2366      2374      2377      2371      2366      2374      2377      2379
      2368      2366      2374      2376      2368      2366      2374      2377
      2368      2371      2377      2374      2368      2371      2377      2379
      2370      2368      2366      2374      2370      2368      2371      2373
      2370      2368      2371      2377      2371      2368      2366      2374
      2371      2377      2374      2376      2373      2371      2377      2374
      2373      2371      2377      2379      2376      2374      2377      2379
      2381      2386      2388      2390      2381      2386      2388      2391
      2381      2386      2394      2396      2381      2386      2394      2397
      2383      2381      2386      2388      2383      2381      2386      2394
      2384      2381      2386      2388      2384      2381      2386      2394
      2385      2381      2386      2388      2385      2381      2386      2394
      2386      2388      2391      2393      2386      2388      2391      2397
      2386      2394      2397      2391      2386      2394      2397      2399
      2388      2386      2394      2396      2388      2386      2394      2397
      2388      2391      2397      2394      2388      2391      2397      2399
      2390      2388      2386      2394      2390      2388      2391      2393
      2390      2388      2391      2397      2391      2388      2386      2394
      2391      2397      2394      2396      2393      2391      2397      2394
      2393      2391      2397      2399      2396      2394      2397      2399
      2401      2406      2408      2410      2401      2406      2408      2411
      2401      2406      2414      2416      2401      2406      2414      2417
      2403      2401      2406      2408      2403      2401      2406      2414
      2404      2401      2406      2408      2404      2401      2406      2414
      2405      2401      2406      2408      2405      2401      2406      2414
      2406      2408      2411      2413      2406      2408      2411      2417
      2406      2414      2417      2411      2406      2414      2417      2419
      2408      2406      2414      2416      2408      2406      2414      2417
      2408      2411      2417      2414      2408      2411      2417      2419
      2410      2408      2406      2414      2410      2408      2411      2413
      2410      2408      2411      2417      2411      2408      2406      2414
      2411      2417      2414      2416      2413      2411      2417      2414
      2413      2411      2417      2419      2416      2414      2417      2419
      2421      2426      2428      2430      2421      2426      2428      2431
      2421      2426      2434      2436      2421      2426      2434      2437
      2423      2421      2426      2428      2423      2421      2426      2434
      2424      2421      2426      2428      2424      2421      2426      2434
      2425      2421      2426      2428      2425      2421      2426      2434
      2426      2428      2431      2433      2426      2428      2431      2437
      2426      2434      2437      2431      2426      2434      2437      2439
      2428      2426      2434      2436      2428      2426      2434      2437
      2428      2431      2437      2434      2428      2431      2437      2439
      2430      2428      2426      2434      2430      2428      2431      2433
      2430      2428      2431      2437      2431      2428      2426      2434
      2431      2437      2434      2436      2433      2431      2437      2434
      2433      2431      2437      2439      2436      2434      2437      2439
      2441      2446      2448      2450      2441      2446      2448      2451
      2441      2446      2454      2456      2441      2446      2454      2457
      2443      2441      2446      2448      2443      2441      2446      2454
      2444      2441      2446      2448      2444      2441      2446      2454
      2445      2441      2446      2448      2445      2441      2446      2454
      2446      2448      2451      2453      2446      2448      2451      2457
      2446      2454      2457      2451      2446      2454      2457      2459
      2448      2446      2454      2456      2448      2446      2454      2457
      2448      2451      2457      2454      2448      2451      2457      2459
      2450      2448      2446      2454      2450      2448      2451      2453
      2450      2448      2451      2457      2451      2448      2446      2454
      2451      2457      2454      2456      2453      2451      2457      2454
      2453      2451      2457      2459      2456      2454      2457      2459
      2461      2466      2468      2470      2461      2466      2468      2471
      2461      2466      2474      2476      2461      2466      2474      2477
      2463      2461      2466      2468      2463      2461      2466      2474
      2464      2461      2466      2468      2464      2461      2466      2474
      2465      2461      2466      2468      2465      2461      2466      2474
      2466      2468      2471      2473      2466      2468      2471      2477
      2466      2474      2477      2471      2466      2474      2477      2479
      2468      2466      2474      2476      2468      2466      2474      2477
      2468      2471      2477      2474      2468      2471      2477      2479
      2470      2468      2466      2474      2470      2468      2471      2473
      2470      2468      2471      2477      2471      2468      2466      2474
      2471      2477      2474      2476      2473      2471      2477      2474
      2473      2471      2477      2479      2476      2474      2477      2479
      2481      2486      2488      2490      2481      2486      2488      2491
      2481      2486      2494      2496      2481      2486      2494      2497
      2483      2481      2486      2488      2483      2481      2486      2494
      2484      2481      2486      2488      2484      2481      2486      2494
      2485      2481      2486      2488      2485      2481      2486      2494
      2486      2488      2491      2493      2486      2488      2491      2497
      2486      2494      2497      2491      2486      2494      2497      2499
      2488      2486      2494      2496      2488      2486      2494      2497
      2488      2491      2497      2494      2488      2491      2497      2499
      2490      2488      2486      2494      2490      2488      2491      2493
      2490      2488      2491      2497      2491      2488      2486      2494
      2491      2497      2494      2496      2493      2491      2497      2494
      2493      2491      2497      2499      2496      2494      2497      2499
      2501      2506      2508      2510      2501      2506      2508      2511
      2501      2506      2514      2516      2501      2506      2514      2517
      2503      2501      2506      2508      2503      2501      2506      2514
      2504      2501      2506      2508      2504      2501      2506      2514
      2505      2501      2506      2508      2505      2501      2506      2514
      2506      2508      2511      2513      2506      2508      2511      2517
      2506      2514      2517      2511      2506      2514      2517      2519
      2508      2506      2514      2516      2508      2506      2514      2517
      2508      2511      2517      2514      2508      2511      2517      2519
      2510      2508      2506      2514      2510      2508      2511      2513
      2510      2508      2511      2517      2511      2508      2506      2514
      2511      2517      2514      2516      2513      2511      2517      2514
      2513      2511      2517      2519      2516      2514      2517      2519
      2521      2526      2528      2530      2521      2526      2528      2531
      2521      2526      2534      2536      2521      2526      2534      2537
      2523      2521      2526      2528      2523      2521      2526      2534
      2524      2521      2526      2528      2524      2521      2526      2534
      2525      2521      2526      2528      2525      2521      2526      2534
      2526      2528      2531      2533      2526      2528      2531      2537
      2526      2534      2537      2531      2526      2534      2537      2539
      2528      2526      2534      2536      2528      2526      2534      2537
      2528      2531      2537      2534      2528      2531      2537      2539
      2530      2528      2526      2534      2530      2528      2531      2533
      2530      2528      2531      2537      2531      2528      2526      2534
      2531      2537      2534      2536      2533      2531      2537      2534
      2533      2531      2537      2539      2536      2534      2537      2539
      2541      2546      2548      2550      2541      2546      2548      2551
      2541      2546      2554      2556      2541      2546      2554      2557
      2543      2541      2546      2548      2543      2541      2546      2554
      2544      2541      2546      2548      2544      2541      2546      2554
      2545      2541      2546      2548      2545      2541      2546      2554
      2546      2548      2551      2553      2546      2548      2551      2557
      2546      2554      2557      2551      2546      2554      2557      2559
      2548      2546      2554      2556      2548      2546      2554      2557
      2548      2551      2557      2554      2548      2551      2557      2559
      2550      2548      2546      2554      2550      2548      2551      2553
      2550      2548      2551      2557      2551      2548      2546      2554
      2551      2557      2554      2556      2553      2551      2557      2554
      2553      2551      2557      2559      2556      2554      2557      2559
      2561      2566      2568      2570      2561      2566      2568      2571
      2561      2566      2574      2576      2561      2566      2574      2577
      2563      2561      2566      2568      2563      2561      2566      2574
      2564      2561      2566      2568      2564      2561      2566      2574
      2565      2561      2566      2568      2565      2561      2566      2574
      2566      2568      2571      2573      2566      2568      2571      2577
      2566      2574      2577      2571      2566      2574      2577      2579
      2568      2566      2574      2576      2568      2566      2574      2577
      2568      2571      2577      2574      2568      2571      2577      2579
      2570      2568      2566      2574      2570      2568      2571      2573
      2570      2568      2571      2577      2571      2568      2566      2574
      2571      2577      2574      2576      2573      2571      2577      2574
      2573      2571      2577      2579      2576      2574      2577      2579
      2581      2586      2588      2590      2581      2586      2588      2591
      2581      2586      2594      2596      2581      2586      2594      2597
      2583      2581      2586      2588      2583      2581      2586      2594
      2584      2581      2586      2588      2584      2581      2586      2594
      2585      2581      2586      2588      2585      2581      2586      2594
      2586      2588      2591      2593      2586      2588      2591      2597
      2586      2594      2597      2591      2586      2594      2597      2599
      2588      2586      2594      2596      2588      2586      2594      2597
      2588      2591      2597      2594      2588      2591      2597      2599
      2590      2588      2586      2594      2590      2588      2591      2593
      2590      2588      2591      2597      2591      2588      2586      2594
      2591      2597      2594      2596      2593      2591      2597      2594
      2593      2591      2597      2599      2596      2594      2597      2599
      2601      2606      2608      2610      2601      2606      2608      2611
      2601      2606      2614      2616      2601      2606      2614      2617
      2603      2601      2606      2608      2603      2601      2606      2614
      2604      2601      2606      2608      2604      2601      2606      2614
      2605      2601      2606      2608      2605      2601      2606      2614
      2606      2608      2611      2613      2606      2608      2611      2617
      2606      2614      2617      2611      2606      2614      2617      2619
      2608      2606      2614      2616      2608      2606      2614      2617
      2608      2611      2617      2614      2608      2611      2617      2619
      2610      2608      2606      2614      2610      2608      2611      2613
      2610      2608      2611      2617      2611      2608      2606      2614
      2611      2617      2614      2616      2613      2611      2617      2614
      2613      2611      2617      2619      2616      2614      2617      2619
      2621      2626      2628      2630      2621      2626      2628      2631
      2621      2626      2634      2636      2621      2626      2634      2637
      2623      2621      2626      2628      2623      2621      2626      2634
      2624      2621      2626      2628      2624      2621      2626      2634
      2625      2621      2626      2628      2625      2621      2626      2634
      2626      2628      2631      2633      2626      2628      2631      2637
      2626      2634      2637      2631      2626      2634      2637      2639
      2628      2626      2634      2636      2628      2626      2634      2637
      2628      2631      2637      2634      2628      2631      2637      2639
      2630      2628      2626      2634      2630      2628      2631      2633
      2630      2628      2631      2637      2631      2628      2626      2634
      2631      2637      2634      2636      2633      2631      2637      2634
      2633      2631      2637      2639      2636      2634      2637      2639
      2641      2646      2648      2650      2641      2646      2648      2651
      2641      2646      2654      2656      2641      2646      2654      2657
      2643      2641      2646      2648      2643      2641      2646      2654
      2644      2641      2646      2648      2644      2641      2646      2654
      2645      2641      2646      2648      2645      2641      2646      2654
      2646      2648      2651      2653      2646      2648      2651      2657
      2646      2654      2657      2651      2646      2654      2657      2659
      2648      2646      2654      2656      2648      2646      2654      2657
      2648      2651      2657      2654      2648      2651      2657      2659
      2650      2648      2646      2654      2650      2648      2651      2653
      2650      2648      2651      2657      2651      2648      2646      2654
      2651      2657      2654      2656      2653      2651      2657      2654
      2653      2651      2657      2659      2656      2654      2657      2659
      2661      2666      2668      2670      2661      2666      2668      2671
      2661      2666      2674      2676      2661      2666      2674      2677
      2663      2661      2666      2668      2663      2661      2666      2674
      2664      2661      2666      2668      2664      2661      2666      2674
      2665      2661      2666      2668      2665      2661      2666      2674
      2666      2668      2671      2673      2666      2668      2671      2677
      2666      2674      2677      2671      2666      2674      2677      2679
      2668      2666      2674      2676      2668      2666      2674      2677
      2668      2671      2677      2674      2668      2671      2677      2679
      2670      2668      2666      2674      2670      2668      2671      2673
      2670      2668      2671      2677      2671      2668      2666      2674
      2671      2677      2674      2676      2673      2671      2677      2674
      2673      2671      2677      2679      2676      2674      2677      2679
      2681      2686      2688      2690      2681      2686      2688      2691
      2681      2686      2694      2696      2681      2686      2694      2697
      2683      2681      2686      2688      2683      2681      2686      2694
      2684      2681      2686      2688      2684      2681      2686      2694
      2685      2681      2686      2688      2685      2681      2686      2694
      2686      2688      2691      2693      2686      2688      2691      2697
      2686      2694      2697      2691      2686      2694      2697      2699
      2688      2686      2694      2696      2688      2686      2694      2697
      2688      2691      2697      2694      2688      2691      2697      2699
      2690      2688      2686      2694      2690      2688      2691      2693
      2690      2688      2691      2697      2691      2688      2686      2694
      2691      2697      2694      2696      2693      2691      2697      2694
      2693      2691      2697      2699      2696      2694      2697      2699
      2701      2706      2708      2710      2701      2706      2708      2711
      2701      2706      2714      2716      2701      2706      2714      2717
      2703      2701      2706      2708      2703      2701      2706      2714
      2704      2701      2706      2708      2704      2701      2706      2714
      2705      2701      2706      2708      2705      2701      2706      2714
      2706      2708      2711      2713      2706      2708      2711      2717
      2706      2714      2717      2711      2706      2714      2717      2719
      2708      2706      2714      2716      2708      2706      2714      2717
      2708      2711      2717      2714      2708      2711      2717      2719
      2710      2708      2706      2714      2710      2708      2711      2713
      2710      2708      2711      2717      2711      2708      2706      2714
      2711      2717      2714      2716      2713      2711      2717      2714
      2713      2711      2717      2719      2716      2714      2717      2719
      2721      2726      2728      2730      2721      2726      2728      2731
      2721      2726      2734      2736      2721      2726      2734      2737
      2723      2721      2726      2728      2723      2721      2726      2734
      2724      2721      2726      2728      2724      2721      2726      2734
      2725      2721      2726      2728      2725      2721      2726      2734
      2726      2728      2731      2733      2726      2728      2731      2737
      2726      2734      2737      2731      2726      2734      2737      2739
      2728      2726      2734      2736      2728      2726      2734      2737
      2728      2731      2737      2734      2728      2731      2737      2739
      2730      2728      2726      2734      2730      2728      2731      2733
      2730      2728      2731      2737      2731      2728      2726      2734
      2731      2737      2734      2736      2733      2731      2737      2734
      2733      2731      2737      2739      2736      2734      2737      2739
      2741      2746      2748      2750      2741      2746      2748      2751
      2741      2746      2754      2756      2741      2746      2754      2757
      2743      2741      2746      2748      2743      2741      2746      2754
      2744      2741      2746      2748      2744      2741      2746      2754
      2745      2741      2746      2748      2745      2741      2746      2754
      2746      2748      2751      2753      2746      2748      2751      2757
      2746      2754      2757      2751      2746      2754      2757      2759
      2748      2746      2754      2756      2748      2746      2754      2757
      2748      2751      2757      2754      2748      2751      2757      2759
      2750      2748      2746      2754      2750      2748      2751      2753
      2750      2748      2751      2757      2751      2748      2746      2754
      2751      2757      2754      2756      2753      2751      2757      2754
      2753      2751      2757      2759      2756      2754      2757      2759
      2761      2766      2768      2770      2761      2766      2768      2771
      2761      2766      2774      2776      2761      2766      2774      2777
      2763      2761      2766      2768      2763      2761      2766      2774
      2764      2761      2766      2768      2764      2761      2766      2774
      2765      2761      2766      2768      2765      2761      2766      2774
      2766      2768      2771      2773      2766      2768      2771      2777
      2766      2774      2777      2771      2766      2774      2777      2779
      2768      2766      2774      2776      2768      2766      2774      2777
      2768      2771      2777      2774      2768      2771      2777      2779
      2770      2768      2766      2774      2770      2768      2771      2773
      2770      2768      2771      2777      2771      2768      2766      2774
      2771      2777      2774      2776      2773      2771      2777      2774
      2773      2771      2777      2779      2776      2774      2777      2779
      2781      2786      2788      2790      2781      2786      2788      2791
      2781      2786      2794      2796      2781      2786      2794      2797
      2783      2781      2786      2788      2783      2781      2786      2794
      2784      2781      2786      2788      2784      2781      2786      2794
      2785      2781      2786      2788      2785      2781      2786      2794
      2786      2788      2791      2793      2786      2788      2791      2797
      2786      2794      2797      2791      2786      2794      2797      2799
      2788      2786      2794      2796      2788      2786      2794      2797
      2788      2791      2797      2794      2788      2791      2797      2799
      2790      2788      2786      2794      2790      2788      2791      2793
      2790      2788      2791      2797      2791      2788      2786      2794
      2791      2797      2794      2796      2793      2791      2797      2794
      2793      2791      2797      2799      2796      2794      2797      2799
      2801      2806      2808      2810      2801      2806      2808      2811
      2801      2806      2814      2816      2801      2806      2814      2817
      2803      2801      2806      2808      2803      2801      2806      2814
      2804      2801      2806      2808      2804      2801      2806      2814
      2805      2801      2806      2808      2805      2801      2806      2814
      2806      2808      2811      2813      2806      2808      2811      2817
      2806      2814      2817      2811      2806      2814      2817      2819
      2808      2806      2814      2816      2808      2806      2814      2817
      2808      2811      2817      2814      2808      2811      2817      2819
      2810      2808      2806      2814      2810      2808      2811      2813
      2810      2808      2811      2817      2811      2808      2806      2814
      2811      2817      2814      2816      2813      2811      2817      2814
      2813      2811      2817      2819      2816      2814      2817      2819
      2821      2826      2828      2830      2821      2826      2828      2831
      2821      2826      2834      2836      2821      2826      2834      2837
      2823      2821      2826      2828      2823      2821      2826      2834
      2824      2821      2826      2828      2824      2821      2826      2834
      2825      2821      2826      2828      2825      2821      2826      2834
      2826      2828      2831      2833      2826      2828      2831      2837
      2826      2834      2837      2831      2826      2834      2837      2839
      2828      2826      2834      2836      2828      2826      2834      2837
      2828      2831      2837      2834      2828      2831      2837      2839
      2830      2828      2826      2834      2830      2828      2831      2833
      2830      2828      2831      2837      2831      2828      2826      2834
      2831      2837      2834      2836      2833      2831      2837      2834
      2833      2831      2837      2839      2836      2834      2837      2839
      2841      2846      2848      2850      2841      2846      2848      2851
      2841      2846      2854      2856      2841      2846      2854      2857
      2843      2841      2846      2848      2843      2841      2846      2854
      2844      2841      2846      2848      2844      2841      2846      2854
      2845      2841      2846      2848      2845      2841      2846      2854
      2846      2848      2851      2853      2846      2848      2851      2857
      2846      2854      2857      2851      2846      2854      2857      2859
      2848      2846      2854      2856      2848      2846      2854      2857
      2848      2851      2857      2854      2848      2851      2857      2859
      2850      2848      2846      2854      2850      2848      2851      2853
      2850      2848      2851      2857      2851      2848      2846      2854
      2851      2857      2854      2856      2853      2851      2857      2854
      2853      2851      2857      2859      2856      2854      2857      2859
      2861      2866      2868      2870      2861      2866      2868      2871
      2861      2866      2874      2876      2861      2866      2874      2877
      2863      2861      2866      2868      2863      2861      2866      2874
      2864      2861      2866      2868      2864      2861      2866      2874
      2865      2861      2866      2868      2865      2861      2866      2874
      2866      2868      2871      2873      2866      2868      2871      2877
      2866      2874      2877      2871      2866      2874      2877      2879
      2868      2866      2874      2876      2868      2866      2874      2877
      2868      2871      2877      2874      2868      2871      2877      2879
      2870      2868      2866      2874      2870      2868      2871      2873
      2870      2868      2871      2877      2871      2868      2866      2874
      2871      2877      2874      2876      2873      2871      2877      2874
      2873      2871      2877      2879      2876      2874      2877      2879
      2881      2886      2888      2890      2881      2886      2888      2891
      2881      2886      2894      2896      2881      2886      2894      2897
      2883      2881      2886      2888      2883      2881      2886      2894
      2884      2881      2886      2888      2884      2881      2886      2894
      2885      2881      2886      2888      2885      2881      2886      2894
      2886      2888      2891      2893      2886      2888      2891      2897
      2886      2894      2897      2891      2886      2894      2897      2899
      2888      2886      2894      2896      2888      2886      2894      2897
      2888      2891      2897      2894      2888      2891      2897      2899
      2890      2888      2886      2894      2890      2888      2891      2893
      2890      2888      2891      2897      2891      2888      2886      2894
      2891      2897      2894      2896      2893      2891      2897      2894
      2893      2891      2897      2899      2896      2894      2897      2899
      2901      2906      2908      2910      2901      2906      2908      2911
      2901      2906      2914      2916      2901      2906      2914      2917
      2903      2901      2906      2908      2903      2901      2906      2914
      2904      2901      2906      2908      2904      2901      2906      2914
      2905      2901      2906      2908      2905      2901      2906      2914
      2906      2908      2911      2913      2906      2908      2911      2917
      2906      2914      2917      2911      2906      2914      2917      2919
      2908      2906      2914      2916      2908      2906      2914      2917
      2908      2911      2917      2914      2908      2911      2917      2919
      2910      2908      2906      2914      2910      2908      2911      2913
      2910      2908      2911      2917      2911      2908      2906      2914
      2911      2917      2914      2916      2913      2911      2917      2914
      2913      2911      2917      2919      2916      2914      2917      2919
      2921      2926      2928      2930      2921      2926      2928      2931
      2921      2926      2934      2936      2921      2926      2934      2937
      2923      2921      2926      2928      2923      2921      2926      2934
      2924      2921      2926      2928      2924      2921      2926      2934
      2925      2921      2926      2928      2925      2921      2926      2934
      2926      2928      2931      2933      2926      2928      2931      2937
      2926      2934      2937      2931      2926      2934      2937      2939
      2928      2926      2934      2936      2928      2926      2934      2937
      2928      2931      2937      2934      2928      2931      2937      2939
      2930      2928      2926      2934      2930      2928      2931      2933
      2930      2928      2931      2937      2931      2928      2926      2934
      2931      2937      2934      2936      2933      2931      2937      2934
      2933      2931      2937      2939      2936      2934      2937      2939
      2941      2946      2948      2950      2941      2946      2948      2951
      2941      2946      2954      2956      2941      2946      2954      2957
      2943      2941      2946      2948      2943      2941      2946      2954
      2944      2941      2946      2948      2944      2941      2946      2954
      2945      2941      2946      2948      2945      2941      2946      2954
      2946      2948      2951      2953      2946      2948      2951      2957
      2946      2954      2957      2951      2946      2954      2957      2959
      2948      2946      2954      2956      2948      2946      2954      2957
      2948      2951      2957      2954      2948      2951      2957      2959
      2950      2948      2946      2954      2950      2948      2951      2953
      2950      2948      2951      2957      2951      2948      2946      2954
      2951      2957      2954      2956      2953      2951      2957      2954
      2953      2951      2957      2959      2956      2954      2957      2959
      2961      2966      2968      2970      2961      2966      2968      2971
      2961      2966      2974      2976      2961      2966      2974      2977
      2963      2961      2966      2968      2963      2961      2966      2974
      2964      2961      2966      2968      2964      2961      2966      2974
      2965      2961      2966      2968      2965      2961      2966      2974
      2966      2968      2971      2973      2966      2968      2971      2977
      2966      2974      2977      2971      2966      2974      2977      2979
      2968      2966      2974      2976      2968      2966      2974      2977
      2968      2971      2977      2974      2968      2971      2977      2979
      2970      2968      2966      2974      2970      2968      2971      2973
      2970      2968      2971      2977      2971      2968      2966      2974
      2971      2977      2974      2976      2973      2971      2977      2974
      2973      2971      2977      2979      2976      2974      2977      2979
      2981      2986      2988      2990      2981      2986      2988      2991
      2981      2986      2994      2996      2981      2986      2994      2997
      2983      2981      2986      2988      2983      2981      2986      2994
      2984      2981      2986      2988      2984      2981      2986      2994
      2985      2981      2986      2988      2985      2981      2986      2994
      2986      2988      2991      2993      2986      2988      2991      2997
      2986      2994      2997      2991      2986      2994      2997      2999
      2988      2986      2994      2996      2988      2986      2994      2997
      2988      2991      2997      2994      2988      2991      2997      2999
      2990      2988      2986      2994      2990      2988      2991      2993
      2990      2988      2991      2997      2991      2988      2986      2994
      2991      2997      2994      2996      2993      2991      2997      2994
      2993      2991      2997      2999      2996      2994      2997      2999
      3001      3006      3008      3010      3001      3006      3008      3011
      3001      3006      3014      3016      3001      3006      3014      3017
      3003      3001      3006      3008      3003      3001      3006      3014
      3004      3001      3006      3008      3004      3001      3006      3014
      3005      3001      3006      3008      3005      3001      3006      3014
      3006      3008      3011      3013      3006      3008      3011      3017
      3006      3014      3017      3011      3006      3014      3017      3019
      3008      3006      3014      3016      3008      3006      3014      3017
      3008      3011      3017      3014      3008      3011      3017      3019
      3010      3008      3006      3014      3010      3008      3011      3013
      3010      3008      3011      3017      3011      3008      3006      3014
      3011      3017      3014      3016      3013      3011      3017      3014
      3013      3011      3017      3019      3016      3014      3017      3019
      3021      3026      3028      3030      3021      3026      3028      3031
      3021      3026      3034      3036      3021      3026      3034      3037
      3023      3021      3026      3028      3023      3021      3026      3034
      3024      3021      3026      3028      3024      3021      3026      3034
      3025      3021      3026      3028      3025      3021      3026      3034
      3026      3028      3031      3033      3026      3028      3031      3037
      3026      3034      3037      3031      3026      3034      3037      3039
      3028      3026      3034      3036      3028      3026      3034      3037
      3028      3031      3037      3034      3028      3031      3037      3039
      3030      3028      3026      3034      3030      3028      3031      3033
      3030      3028      3031      3037      3031      3028      3026      3034
      3031      3037      3034      3036      3033      3031      3037      3034
      3033      3031      3037      3039      3036      3034      3037      3039
      3041      3046      3048      3050      3041      3046      3048      3051
      3041      3046      3054      3056      3041      3046      3054      3057
      3043      3041      3046      3048      3043      3041      3046      3054
      3044      3041      3046      3048      3044      3041      3046      3054
      3045      3041      3046      3048      3045      3041      3046      3054
      3046      3048      3051      3053      3046      3048      3051      3057
      3046      3054      3057      3051      3046      3054      3057      3059
      3048      3046      3054      3056      3048      3046      3054      3057
      3048      3051      3057      3054      3048      3051      3057      3059
      3050      3048      3046      3054      3050      3048      3051      3053
      3050      3048      3051      3057      3051      3048      3046      3054
      3051      3057      3054      3056      3053      3051      3057      3054
      3053      3051      3057      3059      3056      3054      3057      3059
      3061      3066      3068      3070      3061      3066      3068      3071
      3061      3066      3074      3076      3061      3066      3074      3077
      3063      3061      3066      3068      3063      3061      3066      3074
      3064      3061      3066      3068      3064      3061      3066      3074
      3065      3061      3066      3068      3065      3061      3066      3074
      3066      3068      3071      3073      3066      3068      3071      3077
      3066      3074      3077      3071      3066      3074      3077      3079
      3068      3066      3074      3076      3068      3066      3074      3077
      3068      3071      3077      3074      3068      3071      3077      3079
      3070      3068      3066      3074      3070      3068      3071      3073
      3070      3068      3071      3077      3071      3068      3066      3074
      3071      3077      3074      3076      3073      3071      3077      3074
      3073      3071      3077      3079      3076      3074      3077      3079
      3081      3086      3088      3090      3081      3086      3088      3091
      3081      3086      3094      3096      3081      3086      3094      3097
      3083      3081      3086      3088      3083      3081      3086      3094
      3084      3081      3086      3088      3084      3081      3086      3094
      3085      3081      3086      3088      3085      3081      3086      3094
      3086      3088      3091      3093      3086      3088      3091      3097
      3086      3094      3097      3091      3086      3094      3097      3099
      3088      3086      3094      3096      3088      3086      3094      3097
      3088      3091      3097      3094      3088      3091      3097      3099
      3090      3088      3086      3094      3090      3088      3091      3093
      3090      3088      3091      3097      3091      3088      3086      3094
      3091      3097      3094      3096      3093      3091      3097      3094
      3093      3091      3097      3099      3096      3094      3097      3099
      3101      3106      3108      3110      3101      3106      3108      3111
      3101      3106      3114      3116      3101      3106      3114      3117
      3103      3101      3106      3108      3103      3101      3106      3114
      3104      3101      3106      3108      3104      3101      3106      3114
      3105      3101      3106      3108      3105      3101      3106      3114
      3106      3108      3111      3113      3106      3108      3111      3117
      3106      3114      3117      3111      3106      3114      3117      3119
      3108      3106      3114      3116      3108      3106      3114      3117
      3108      3111      3117      3114      3108      3111      3117      3119
      3110      3108      3106      3114      3110      3108      3111      3113
      3110      3108      3111      3117      3111      3108      3106      3114
      3111      3117      3114      3116      3113      3111      3117      3114
      3113      3111      3117      3119      3116      3114      3117      3119
      3121      3126      3128      3130      3121      3126      3128      3131
      3121      3126      3134      3136      3121      3126      3134      3137
      3123      3121      3126      3128      3123      3121      3126      3134
      3124      3121      3126      3128      3124      3121      3126      3134
      3125      3121      3126      3128      3125      3121      3126      3134
      3126      3128      3131      3133      3126      3128      3131      3137
      3126      3134      3137      3131      3126      3134      3137      3139
      3128      3126      3134      3136      3128      3126      3134      3137
      3128      3131      3137      3134      3128      3131      3137      3139
      3130      3128      3126      3134      3130      3128      3131      3133
      3130      3128      3131      3137      3131      3128      3126      3134
      3131      3137      3134      3136      3133      3131      3137      3134
      3133      3131      3137      3139      3136      3134      3137      3139
      3141      3146      3148      3150      3141      3146      3148      3151
      3141      3146      3154      3156      3141      3146      3154      3157
      3143      3141      3146      3148      3143      3141      3146      3154
      3144      3141      3146      3148      3144      3141      3146      3154
      3145      3141      3146      3148      3145      3141      3146      3154
      3146      3148      3151      3153      3146      3148      3151      3157
      3146      3154      3157      3151      3146      3154      3157      3159
      3148      3146      3154      3156      3148      3146      3154      3157
      3148      3151      3157      3154      3148      3151      3157      3159
      3150      3148      3146      3154      3150      3148      3151      3153
      3150      3148      3151      3157      3151      3148      3146      3154
      3151      3157      3154      3156      3153      3151      3157      3154
      3153      3151      3157      3159      3156      3154      3157      3159
      3161      3166      3168      3170      3161      3166      3168      3171
      3161      3166      3174      3176      3161      3166      3174      3177
      3163      3161      3166      3168      3163      3161      3166      3174
      3164      3161      3166      3168      3164      3161      3166      3174
      3165      3161      3166      3168      3165      3161      3166      3174
      3166      3168      3171      3173      3166      3168      3171      3177
      3166      3174      3177      3171      3166      3174      3177      3179
      3168      3166      3174      3176      3168      3166      3174      3177
      3168      3171      3177      3174      3168      3171      3177      3179
      3170      3168      3166      3174      3170      3168      3171      3173
      3170      3168      3171      3177      3171      3168      3166      3174
      3171      3177      3174      3176      3173      3171      3177      3174
      3173      3171      3177      3179      3176      3174      3177      3179
      3181      3186      3188      3190      3181      3186      3188      3191
      3181      3186      3194      3196      3181      3186      3194      3197
      3183      3181      3186      3188      3183      3181      3186      3194
      3184      3181      3186      3188      3184      3181      3186      3194
      3185      3181      3186      3188      3185      3181      3186      3194
      3186      3188      3191      3193      3186      3188      3191      3197
      3186      3194      3197      3191      3186      3194      3197      3199
      3188      3186      3194      3196      3188      3186      3194      3197
      3188      3191      3197      3194      3188      3191      3197      3199
      3190      3188      3186      3194      3190      3188      3191      3193
      3190      3188      3191      3197      3191      3188      3186      3194
      3191      3197      3194      3196      3193      3191      3197      3194
      3193      3191      3197      3199      3196      3194      3197      3199
      3201      3206      3208      3210      3201      3206      3208      3211
      3201      3206      3214      3216      3201      3206      3214      3217
      3203      3201      3206      3208      3203      3201      3206      3214
      3204      3201      3206      3208      3204      3201      3206      3214
      3205      3201      3206      3208      3205      3201      3206      3214
      3206      3208      3211      3213      3206      3208      3211      3217
      3206      3214      3217      3211      3206      3214      3217      3219
      3208      3206      3214      3216      3208      3206      3214      3217
      3208      3211      3217      3214      3208      3211      3217      3219
      3210      3208      3206      3214      3210      3208      3211      3213
      3210      3208      3211      3217      3211      3208      3206      3214
      3211      3217      3214      3216      3213      3211      3217      3214
      3213      3211      3217      3219      3216      3214      3217      3219
      3221      3226      3228      3230      3221      3226      3228      3231
      3221      3226      3234      3236      3221      3226      3234      3237
      3223      3221      3226      3228      3223      3221      3226      3234
      3224      3221      3226      3228      3224      3221      3226      3234
      3225      3221      3226      3228      3225      3221      3226      3234
      3226      3228      3231      3233      3226      3228      3231      3237
      3226      3234      3237      3231      3226      3234      3237      3239
      3228      3226      3234      3236      3228      3226      3234      3237
      3228      3231      3237      3234      3228      3231      3237      3239
      3230      3228      3226      3234      3230      3228      3231      3233
      3230      3228      3231      3237      3231      3228      3226      3234
      3231      3237      3234      3236      3233      3231      3237      3234
      3233      3231      3237      3239      3236      3234      3237      3239
      3241      3246      3248      3250      3241      3246      3248      3251
      3241      3246      3254      3256      3241      3246      3254      3257
      3243      3241      3246      3248      3243      3241      3246      3254
      3244      3241      3246      3248      3244      3241      3246      3254
      3245      3241      3246      3248      3245      3241      3246      3254
      3246      3248      3251      3253      3246      3248      3251      3257
      3246      3254      3257      3251      3246      3254      3257      3259
      3248      3246      3254      3256      3248      3246      3254      3257
      3248      3251      3257      3254      3248      3251      3257      3259
      3250      3248      3246      3254      3250      3248      3251      3253
      3250      3248      3251      3257      3251      3248      3246      3254
      3251      3257      3254      3256      3253      3251      3257      3254
      3253      3251      3257      3259      3256      3254      3257      3259
      3261      3266      3268      3270      3261      3266      3268      3271
      3261      3266      3274      3276      3261      3266      3274      3277
      3263      3261      3266      3268      3263      3261      3266      3274
      3264      3261      3266      3268      3264      3261      3266      3274
      3265      3261      3266      3268      3265      3261      3266      3274
      3266      3268      3271      3273      3266      3268      3271      3277
      3266      3274      3277      3271      3266      3274      3277      3279
      3268      3266      3274      3276      3268      3266      3274      3277
      3268      3271      3277      3274      3268      3271      3277      3279
      3270      3268      3266      3274      3270      3268      3271      3273
      3270      3268      3271      3277      3271      3268      3266      3274
      3271      3277      3274      3276      3273      3271      3277      3274
      3273      3271      3277      3279      3276      3274      3277      3279
      3281      3286      3288      3290      3281      3286      3288      3291
      3281      3286      3294      3296      3281      3286      3294      3297
      3283      3281      3286      3288      3283      3281      3286      3294
      3284      3281      3286      3288      3284      3281      3286      3294
      3285      3281      3286      3288      3285      3281      3286      3294
      3286      3288      3291      3293      3286      3288      3291      3297
      3286      3294      3297      3291      3286      3294      3297      3299
      3288      3286      3294      3296      3288      3286      3294      3297
      3288      3291      3297      3294      3288      3291      3297      3299
      3290      3288      3286      3294      3290      3288      3291      3293
      3290      3288      3291      3297      3291      3288      3286      3294
      3291      3297      3294      3296      3293      3291      3297      3294
      3293      3291      3297      3299      3296      3294      3297      3299
      3301      3306      3308      3310      3301      3306      3308      3311
      3301      3306      3314      3316      3301      3306      3314      3317
      3303      3301      3306      3308      3303      3301      3306      3314
      3304      3301      3306      3308      3304      3301      3306      3314
      3305      3301      3306      3308      3305      3301      3306      3314
      3306      3308      3311      3313      3306      3308      3311      3317
      3306      3314      3317      3311      3306      3314      3317      3319
      3308      3306      3314      3316      3308      3306      3314      3317
      3308      3311      3317      3314      3308      3311      3317      3319
      3310      3308      3306      3314      3310      3308      3311      3313
      3310      3308      3311      3317      3311      3308      3306      3314
      3311      3317      3314      3316      3313      3311      3317      3314
      3313      3311      3317      3319      3316      3314      3317      3319
      3321      3326      3328      3330      3321      3326      3328      3331
      3321      3326      3334      3336      3321      3326      3334      3337
      3323      3321      3326      3328      3323      3321      3326      3334
      3324      3321      3326      3328      3324      3321      3326      3334
      3325      3321      3326      3328      3325      3321      3326      3334
      3326      3328      3331      3333      3326      3328      3331      3337
      3326      3334      3337      3331      3326      3334      3337      3339
      3328      3326      3334      3336      3328      3326      3334      3337
      3328      3331      3337      3334      3328      3331      3337      3339
      3330      3328      3326      3334      3330      3328      3331      3333
      3330      3328      3331      3337      3331      3328      3326      3334
      3331      3337      3334      3336      3333      3331      3337      3334
      3333      3331      3337      3339      3336      3334      3337      3339
      3341      3346      3348      3350      3341      3346      3348      3351
      3341      3346      3354      3356      3341      3346      3354      3357
      3343      3341      3346      3348      3343      3341      3346      3354
      3344      3341      3346      3348      3344      3341      3346      3354
      3345      3341      3346      3348      3345      3341      3346      3354
      3346      3348      3351      3353      3346      3348      3351      3357
      3346      3354      3357      3351      3346      3354      3357      3359
      3348      3346      3354      3356      3348      3346      3354      3357
      3348      3351      3357      3354      3348      3351      3357      3359
      3350      3348      3346      3354      3350      3348      3351      3353
      3350      3348      3351      3357      3351      3348      3346      3354
      3351      3357      3354      3356      3353      3351      3357      3354
      3353      3351      3357      3359      3356      3354      3357      3359
      3361      3366      3368      3370      3361      3366      3368      3371
      3361      3366      3374      3376      3361      3366      3374      3377
      3363      3361      3366      3368      3363      3361      3366      3374
      3364      3361      3366      3368      3364      3361      3366      3374
      3365      3361      3366      3368      3365      3361      3366      3374
      3366      3368      3371      3373      3366      3368      3371      3377
      3366      3374      3377      3371      3366      3374      3377      3379
      3368      3366      3374      3376      3368      3366      3374      3377
      3368      3371      3377      3374      3368      3371      3377      3379
      3370      3368      3366      3374      3370      3368      3371      3373
      3370      3368      3371      3377      3371      3368      3366      3374
      3371      3377      3374      3376      3373      3371      3377      3374
      3373      3371      3377      3379      3376      3374      3377      3379
      3381      3386      3388      3390      3381      3386      3388      3391
      3381      3386      3394      3396      3381      3386      3394      3397
      3383      3381      3386      3388      3383      3381      3386      3394
      3384      3381      3386      3388      3384      3381      3386      3394
      3385      3381      3386      3388      3385      3381      3386      3394
      3386      3388      3391      3393      3386      3388      3391      3397
      3386      3394      3397      3391      3386      3394      3397      3399
      3388      3386      3394      3396      3388      3386      3394      3397
      3388      3391      3397      3394      3388      3391      3397      3399
      3390      3388      3386      3394      3390      3388      3391      3393
      3390      3388      3391      3397      3391      3388      3386      3394
      3391      3397      3394      3396      3393      3391      3397      3394
      3393      3391      3397      3399      3396      3394      3397      3399
      3401      3406      3408      3410      3401      3406      3408      3411
      3401      3406      3414      3416      3401      3406      3414      3417
      3403      3401      3406      3408      3403      3401      3406      3414
      3404      3401      3406      3408      3404      3401      3406      3414
      3405      3401      3406      3408      3405      3401      3406      3414
      3406      3408      3411      3413      3406      3408      3411      3417
      3406      3414      3417      3411      3406      3414      3417      3419
      3408      3406      3414      3416      3408      3406      3414      3417
      3408      3411      3417      3414      3408      3411      3417      3419
      3410      3408      3406      3414      3410      3408      3411      3413
      3410      3408      3411      3417      3411      3408      3406      3414
      3411      3417      3414      3416      3413      3411      3417      3414
      3413      3411      3417      3419      3416      3414      3417      3419
      3421      3426      3428      3430      3421      3426      3428      3431
      3421      3426      3434      3436      3421      3426      3434      3437
      3423      3421      3426      3428      3423      3421      3426      3434
      3424      3421      3426      3428      3424      3421      3426      3434
      3425      3421      3426      3428      3425      3421      3426      3434
      3426      3428      3431      3433      3426      3428      3431      3437
      3426      3434      3437      3431      3426      3434      3437      3439
      3428      3426      3434      3436      3428      3426      3434      3437
      3428      3431      3437      3434      3428      3431      3437      3439
      3430      3428      3426      3434      3430      3428      3431      3433
      3430      3428      3431      3437      3431      3428      3426      3434
      3431      3437      3434      3436      3433      3431      3437      3434
      3433      3431      3437      3439      3436      3434      3437      3439
      3441      3446      3448      3450      3441      3446      3448      3451
      3441      3446      3454      3456      3441      3446      3454      3457
      3443      3441      3446      3448      3443      3441      3446      3454
      3444      3441      3446      3448      3444      3441      3446      3454
      3445      3441      3446      3448      3445      3441      3446      3454
      3446      3448      3451      3453      3446      3448      3451      3457
      3446      3454      3457      3451      3446      3454      3457      3459
      3448      3446      3454      3456      3448      3446      3454      3457
      3448      3451      3457      3454      3448      3451      3457      3459
      3450      3448      3446      3454      3450      3448      3451      3453
      3450      3448      3451      3457      3451      3448      3446      3454
      3451      3457      3454      3456      3453      3451      3457      3454
      3453      3451      3457      3459      3456      3454      3457      3459
      3461      3466      3468      3470      3461      3466      3468      3471
      3461      3466      3474      3476      3461      3466      3474      3477
      3463      3461      3466      3468      3463      3461      3466      3474
      3464      3461      3466      3468      3464      3461      3466      3474
      3465      3461      3466      3468      3465      3461      3466      3474
      3466      3468      3471      3473      3466      3468      3471      3477
      3466      3474      3477      3471      3466      3474      3477      3479
      3468      3466      3474      3476      3468      3466      3474      3477
      3468      3471      3477      3474      3468      3471      3477      3479
      3470      3468      3466      3474      3470      3468      3471      3473
      3470      3468      3471      3477      3471      3468      3466      3474
      3471      3477      3474      3476      3473      3471      3477      3474
      3473      3471      3477      3479      3476      3474      3477      3479
      3481      3486      3488      3490      3481      3486      3488      3491
      3481      3486      3494      3496      3481      3486      3494      3497
      3483      3481      3486      3488      3483      3481      3486      3494
      3484      3481      3486      3488      3484      3481      3486      3494
      3485      3481      3486      3488      3485      3481      3486      3494
      3486      3488      3491      3493      3486      3488      3491      3497
      3486      3494      3497      3491      3486      3494      3497      3499
      3488      3486      3494      3496      3488      3486      3494      3497
      3488      3491      3497      3494      3488      3491      3497      3499
      3490      3488      3486      3494      3490      3488      3491      3493
      3490      3488      3491      3497      3491      3488      3486      3494
      3491      3497      3494      3496      3493      3491      3497      3494
      3493      3491      3497      3499      3496      3494      3497      3499
      3501      3506      3508      3510      3501      3506      3508      3511
      3501      3506      3514      3516      3501      3506      3514      3517
      3503      3501      3506      3508      3503      3501      3506      3514
      3504      3501      3506      3508      3504      3501      3506      3514
      3505      3501      3506      3508      3505      3501      3506      3514
      3506      3508      3511      3513      3506      3508      3511      3517
      3506      3514      3517      3511      3506      3514      3517      3519
      3508      3506      3514      3516      3508      3506      3514      3517
      3508      3511      3517      3514      3508      3511      3517      3519
      3510      3508      3506      3514      3510      3508      3511      3513
      3510      3508      3511      3517      3511      3508      3506      3514
      3511      3517      3514      3516      3513      3511      3517      3514
      3513      3511      3517      3519      3516      3514      3517      3519
      3521      3526      3528      3530      3521      3526      3528      3531
      3521      3526      3534      3536      3521      3526      3534      3537
      3523      3521      3526      3528      3523      3521      3526      3534
      3524      3521      3526      3528      3524      3521      3526      3534
      3525      3521      3526      3528      3525      3521      3526      3534
      3526      3528      3531      3533      3526      3528      3531      3537
      3526      3534      3537      3531      3526      3534      3537      3539
      3528      3526      3534      3536      3528      3526      3534      3537
      3528      3531      3537      3534      3528      3531      3537      3539
      3530      3528      3526      3534      3530      3528      3531      3533
      3530      3528      3531      3537      3531      3528      3526      3534
      3531      3537      3534      3536      3533      3531      3537      3534
      3533      3531      3537      3539      3536      3534      3537      3539
      3541      3546      3548      3550      3541      3546      3548      3551
      3541      3546      3554      3556      3541      3546      3554      3557
      3543      3541      3546      3548      3543      3541      3546      3554
      3544      3541      3546      3548      3544      3541      3546      3554
      3545      3541      3546      3548      3545      3541      3546      3554
      3546      3548      3551      3553      3546      3548      3551      3557
      3546      3554      3557      3551      3546      3554      3557      3559
      3548      3546      3554      3556      3548      3546      3554      3557
      3548      3551      3557      3554      3548      3551      3557      3559
      3550      3548      3546      3554      3550      3548      3551      3553
      3550      3548      3551      3557      3551      3548      3546      3554
      3551      3557      3554      3556      3553      3551      3557      3554
      3553      3551      3557      3559      3556      3554      3557      3559
      3561      3566      3568      3570      3561      3566      3568      3571
      3561      3566      3574      3576      3561      3566      3574      3577
      3563      3561      3566      3568      3563      3561      3566      3574
      3564      3561      3566      3568      3564      3561      3566      3574
      3565      3561      3566      3568      3565      3561      3566      3574
      3566      3568      3571      3573      3566      3568      3571      3577
      3566      3574      3577      3571      3566      3574      3577      3579
      3568      3566      3574      3576      3568      3566      3574      3577
      3568      3571      3577      3574      3568      3571      3577      3579
      3570      3568      3566      3574      3570      3568      3571      3573
      3570      3568      3571      3577      3571      3568      3566      3574
      3571      3577      3574      3576      3573      3571      3577      3574
      3573      3571      3577      3579      3576      3574      3577      3579
      3581      3586      3588      3590      3581      3586      3588      3591
      3581      3586      3594      3596      3581      3586      3594      3597
      3583      3581      3586      3588      3583      3581      3586      3594
      3584      3581      3586      3588      3584      3581      3586      3594
      3585      3581      3586      3588      3585      3581      3586      3594
      3586      3588      3591      3593      3586      3588      3591      3597
      3586      3594      3597      3591      3586      3594      3597      3599
      3588      3586      3594      3596      3588      3586      3594      3597
      3588      3591      3597      3594      3588      3591      3597      3599
      3590      3588      3586      3594      3590      3588      3591      3593
      3590      3588      3591      3597      3591      3588      3586      3594
      3591      3597      3594      3596      3593      3591      3597      3594
      3593      3591      3597      3599      3596      3594      3597      3599
      3601      3606      3608      3610      3601      3606      3608      3611
      3601      3606      3614      3616      3601      3606      3614      3617
      3603      3601      3606      3608      3603      3601      3606      3614
      3604      3601      3606      3608      3604      3601      3606      3614
      3605      3601      3606      3608      3605      3601      3606      3614
      3606      3608      3611      3613      3606      3608      3611      3617
      3606      3614      3617      3611      3606      3614      3617      3619
      3608      3606      3614      3616      3608      3606      3614      3617
      3608      3611      3617      3614      3608      3611      3617      3619
      3610      3608      3606      3614      3610      3608      3611      3613
      3610      3608      3611      3617      3611      3608      3606      3614
      3611      3617      3614      3616      3613      3611      3617      3614
      3613      3611      3617      3619      3616      3614      3617      3619
      3621      3626      3628      3630      3621      3626      3628      3631
      3621      3626      3634      3636      3621      3626      3634      3637
      3623      3621      3626      3628      3623      3621      3626      3634
      3624      3621      3626      3628      3624      3621      3626      3634
      3625      3621      3626      3628      3625      3621      3626      3634
      3626      3628      3631      3633      3626      3628      3631      3637
      3626      3634      3637      3631      3626      3634      3637      3639
      3628      3626      3634      3636      3628      3626      3634      3637
      3628      3631      3637      3634      3628      3631      3637      3639
      3630      3628      3626      3634      3630      3628      3631      3633
      3630      3628      3631      3637      3631      3628      3626      3634
      3631      3637      3634      3636      3633      3631      3637      3634
      3633      3631      3637      3639      3636      3634      3637      3639
      3641      3646      3648      3650      3641      3646      3648      3651
      3641      3646      3654      3656      3641      3646      3654      3657
      3643      3641      3646      3648      3643      3641      3646      3654
      3644      3641      3646      3648      3644      3641      3646      3654
      3645      3641      3646      3648      3645      3641      3646      3654
      3646      3648      3651      3653      3646      3648      3651      3657
      3646      3654      3657      3651      3646      3654      3657      3659
      3648      3646      3654      3656      3648      3646      3654      3657
      3648      3651      3657      3654      3648      3651      3657      3659
      3650      3648      3646      3654      3650      3648      3651      3653
      3650      3648      3651      3657      3651      3648      3646      3654
      3651      3657      3654      3656      3653      3651      3657      3654
      3653      3651      3657      3659      3656      3654      3657      3659
      3661      3666      3668      3670      3661      3666      3668      3671
      3661      3666      3674      3676      3661      3666      3674      3677
      3663      3661      3666      3668      3663      3661      3666      3674
      3664      3661      3666      3668      3664      3661      3666      3674
      3665      3661      3666      3668      3665      3661      3666      3674
      3666      3668      3671      3673      3666      3668      3671      3677
      3666      3674      3677      3671      3666      3674      3677      3679
      3668      3666      3674      3676      3668      3666      3674      3677
      3668      3671      3677      3674      3668      3671      3677      3679
      3670      3668      3666      3674      3670      3668      3671      3673
      3670      3668      3671      3677      3671      3668      3666      3674
      3671      3677      3674      3676      3673      3671      3677      3674
      3673      3671      3677      3679      3676      3674      3677      3679
      3681      3686      3688      3690      3681      3686      3688      3691
      3681      3686      3694      3696      3681      3686      3694      3697
      3683      3681      3686      3688      3683      3681      3686      3694
      3684      3681      3686      3688      3684      3681      3686      3694
      3685      3681      3686      3688      3685      3681      3686      3694
      3686      3688      3691      3693      3686      3688      3691      3697
      3686      3694      3697      3691      3686      3694      3697      3699
      3688      3686      3694      3696      3688      3686      3694      3697
      3688      3691      3697      3694      3688      3691      3697      3699
      3690      3688      3686      3694      3690      3688      3691      3693
      3690      3688      3691      3697      3691      3688      3686      3694
      3691      3697      3694      3696      3693      3691      3697      3694
      3693      3691      3697      3699      3696      3694      3697      3699
      3701      3706      3708      3710      3701      3706      3708      3711
      3701      3706      3714      3716      3701      3706      3714      3717
      3703      3701      3706      3708      3703      3701      3706      3714
      3704      3701      3706      3708      3704      3701      3706      3714
      3705      3701      3706      3708      3705      3701      3706      3714
      3706      3708      3711      3713      3706      3708      3711      3717
      3706      3714      3717      3711      3706      3714      3717      3719
      3708      3706      3714      3716      3708      3706      3714      3717
      3708      3711      3717      3714      3708      3711      3717      3719
      3710      3708      3706      3714      3710      3708      3711      3713
      3710      3708      3711      3717      3711      3708      3706      3714
      3711      3717      3714      3716      3713      3711      3717      3714
      3713      3711      3717      3719      3716      3714      3717      3719
      3721      3726      3728      3730      3721      3726      3728      3731
      3721      3726      3734      3736      3721      3726      3734      3737
      3723      3721      3726      3728      3723      3721      3726      3734
      3724      3721      3726      3728      3724      3721      3726      3734
      3725      3721      3726      3728      3725      3721      3726      3734
      3726      3728      3731      3733      3726      3728      3731      3737
      3726      3734      3737      3731      3726      3734      3737      3739
      3728      3726      3734      3736      3728      3726      3734      3737
      3728      3731      3737      3734      3728      3731      3737      3739
      3730      3728      3726      3734      3730      3728      3731      3733
      3730      3728      3731      3737      3731      3728      3726      3734
      3731      3737      3734      3736      3733      3731      3737      3734
      3733      3731      3737      3739      3736      3734      3737      3739
      3741      3746      3748      3750      3741      3746      3748      3751
      3741      3746      3754      3756      3741      3746      3754      3757
      3743      3741      3746      3748      3743      3741      3746      3754
      3744      3741      3746      3748      3744      3741      3746      3754
      3745      3741      3746      3748      3745      3741      3746      3754
      3746      3748      3751      3753      3746      3748      3751      3757
      3746      3754      3757      3751      3746      3754      3757      3759
      3748      3746      3754      3756      3748      3746      3754      3757
      3748      3751      3757      3754      3748      3751      3757      3759
      3750      3748      3746      3754      3750      3748      3751      3753
      3750      3748      3751      3757      3751      3748      3746      3754
      3751      3757      3754      3756      3753      3751      3757      3754
      3753      3751      3757      3759      3756      3754      3757      3759
      3761      3766      3768      3770      3761      3766      3768      3771
      3761      3766      3774      3776      3761      3766      3774      3777
      3763      3761      3766      3768      3763      3761      3766      3774
      3764      3761      3766      3768      3764      3761      3766      3774
      3765      3761      3766      3768      3765      3761      3766      3774
      3766      3768      3771      3773      3766      3768      3771      3777
      3766      3774      3777      3771      3766      3774      3777      3779
      3768      3766      3774      3776      3768      3766      3774      3777
      3768      3771      3777      3774      3768      3771      3777      3779
      3770      3768      3766      3774      3770      3768      3771      3773
      3770      3768      3771      3777      3771      3768      3766      3774
      3771      3777      3774      3776      3773      3771      3777      3774
      3773      3771      3777      3779      3776      3774      3777      3779
      3781      3786      3788      3790      3781      3786      3788      3791
      3781      3786      3794      3796      3781      3786      3794      3797
      3783      3781      3786      3788      3783      3781      3786      3794
      3784      3781      3786      3788      3784      3781      3786      3794
      3785      3781      3786      3788      3785      3781      3786      3794
      3786      3788      3791      3793      3786      3788      3791      3797
      3786      3794      3797      3791      3786      3794      3797      3799
      3788      3786      3794      3796      3788      3786      3794      3797
      3788      3791      3797      3794      3788      3791      3797      3799
      3790      3788      3786      3794      3790      3788      3791      3793
      3790      3788      3791      3797      3791      3788      3786      3794
      3791      3797      3794      3796      3793      3791      3797      3794
      3793      3791      3797      3799      3796      3794      3797      3799
      3801      3806      3808      3810      3801      3806      3808      3811
      3801      3806      3814      3816      3801      3806      3814      3817
      3803      3801      3806      3808      3803      3801      3806      3814
      3804      3801      3806      3808      3804      3801      3806      3814
      3805      3801      3806      3808      3805      3801      3806      3814
      3806      3808      3811      3813      3806      3808      3811      3817
      3806      3814      3817      3811      3806      3814      3817      3819
      3808      3806      3814      3816      3808      3806      3814      3817
      3808      3811      3817      3814      3808      3811      3817      3819
      3810      3808      3806      3814      3810      3808      3811      3813
      3810      3808      3811      3817      3811      3808      3806      3814
      3811      3817      3814      3816      3813      3811      3817      3814
      3813      3811      3817      3819      3816      3814      3817      3819
      3821      3826      3828      3830      3821      3826      3828      3831
      3821      3826      3834      3836      3821      3826      3834      3837
      3823      3821      3826      3828      3823      3821      3826      3834
      3824      3821      3826      3828      3824      3821      3826      3834
      3825      3821      3826      3828      3825      3821      3826      3834
      3826      3828      3831      3833      3826      3828      3831      3837
      3826      3834      3837      3831      3826      3834      3837      3839
      3828      3826      3834      3836      3828      3826      3834      3837
      3828      3831      3837      3834      3828      3831      3837      3839
      3830      3828      3826      3834      3830      3828      3831      3833
      3830      3828      3831      3837      3831      3828      3826      3834
      3831      3837      3834      3836      3833      3831      3837      3834
      3833      3831      3837      3839      3836      3834      3837      3839
      3841      3846      3848      3850      3841      3846      3848      3851
      3841      3846      3854      3856      3841      3846      3854      3857
      3843      3841      3846      3848      3843      3841      3846      3854
      3844      3841      3846      3848      3844      3841      3846      3854
      3845      3841      3846      3848      3845      3841      3846      3854
      3846      3848      3851      3853      3846      3848      3851      3857
      3846      3854      3857      3851      3846      3854      3857      3859
      3848      3846      3854      3856      3848      3846      3854      3857
      3848      3851      3857      3854      3848      3851      3857      3859
      3850      3848      3846      3854      3850      3848      3851      3853
      3850      3848      3851      3857      3851      3848      3846      3854
      3851      3857      3854      3856      3853      3851      3857      3854
      3853      3851      3857      3859      3856      3854      3857      3859
      3861      3866      3868      3870      3861      3866      3868      3871
      3861      3866      3874      3876      3861      3866      3874      3877
      3863      3861      3866      3868      3863      3861      3866      3874
      3864      3861      3866      3868      3864      3861      3866      3874
      3865      3861      3866      3868      3865      3861      3866      3874
      3866      3868      3871      3873      3866      3868      3871      3877
      3866      3874      3877      3871      3866      3874      3877      3879
      3868      3866      3874      3876      3868      3866      3874      3877
      3868      3871      3877      3874      3868      3871      3877      3879
      3870      3868      3866      3874      3870      3868      3871      3873
      3870      3868      3871      3877      3871      3868      3866      3874
      3871      3877      3874      3876      3873      3871      3877      3874
      3873      3871      3877      3879      3876      3874      3877      3879
      3881      3886      3888      3890      3881      3886      3888      3891
      3881      3886      3894      3896      3881      3886      3894      3897
      3883      3881      3886      3888      3883      3881      3886      3894
      3884      3881      3886      3888      3884      3881      3886      3894
      3885      3881      3886      3888      3885      3881      3886      3894
      3886      3888      3891      3893      3886      3888      3891      3897
      3886      3894      3897      3891      3886      3894      3897      3899
      3888      3886      3894      3896      3888      3886      3894      3897
      3888      3891      3897      3894      3888      3891      3897      3899
      3890      3888      3886      3894      3890      3888      3891      3893
      3890      3888      3891      3897      3891      3888      3886      3894
      3891      3897      3894      3896      3893      3891      3897      3894
      3893      3891      3897      3899      3896      3894      3897      3899
      3901      3906      3908      3910      3901      3906      3908      3911
      3901      3906      3914      3916      3901      3906      3914      3917
      3903      3901      3906      3908      3903      3901      3906      3914
      3904      3901      3906      3908      3904      3901      3906      3914
      3905      3901      3906      3908      3905      3901      3906      3914
      3906      3908      3911      3913      3906      3908      3911      3917
      3906      3914      3917      3911      3906      3914      3917      3919
      3908      3906      3914      3916      3908      3906      3914      3917
      3908      3911      3917      3914      3908      3911      3917      3919
      3910      3908      3906      3914      3910      3908      3911      3913
      3910      3908      3911      3917      3911      3908      3906      3914
      3911      3917      3914      3916      3913      3911      3917      3914
      3913      3911      3917      3919      3916      3914      3917      3919
      3921      3926      3928      3930      3921      3926      3928      3931
      3921      3926      3934      3936      3921      3926      3934      3937
      3923      3921      3926      3928      3923      3921      3926      3934
      3924      3921      3926      3928      3924      3921      3926      3934
      3925      3921      3926      3928      3925      3921      3926      3934
      3926      3928      3931      3933      3926      3928      3931      3937
      3926      3934      3937      3931      3926      3934      3937      3939
      3928      3926      3934      3936      3928      3926      3934      3937
      3928      3931      3937      3934      3928      3931      3937      3939
      3930      3928      3926      3934      3930      3928      3931      3933
      3930      3928      3931      3937      3931      3928      3926      3934
      3931      3937      3934      3936      3933      3931      3937      3934
      3933      3931      3937      3939      3936      3934      3937      3939
      3941      3946      3948      3950      3941      3946      3948      3951
      3941      3946      3954      3956      3941      3946      3954      3957
      3943      3941      3946      3948      3943      3941      3946      3954
      3944      3941      3946      3948      3944      3941      3946      3954
      3945      3941      3946      3948      3945      3941      3946      3954
      3946      3948      3951      3953      3946      3948      3951      3957
      3946      3954      3957      3951      3946      3954      3957      3959
      3948      3946      3954      3956      3948      3946      3954      3957
      3948      3951      3957      3954      3948      3951      3957      3959
      3950      3948      3946      3954      3950      3948      3951      3953
      3950      3948      3951      3957      3951      3948      3946      3954
      3951      3957      3954      3956      3953      3951      3957      3954
      3953      3951      3957      3959      3956      3954      3957      3959
      3961      3966      3968      3970      3961      3966      3968      3971
      3961      3966      3974      3976      3961      3966      3974      3977
      3963      3961      3966      3968      3963      3961      3966      3974
      3964      3961      3966      3968      3964      3961      3966      3974
      3965      3961      3966      3968      3965      3961      3966      3974
      3966      3968      3971      3973      3966      3968      3971      3977
      3966      3974      3977      3971      3966      3974      3977      3979
      3968      3966      3974      3976      3968      3966      3974      3977
      3968      3971      3977      3974      3968      3971      3977      3979
      3970      3968      3966      3974      3970      3968      3971      3973
      3970      3968      3971      3977      3971      3968      3966      3974
      3971      3977      3974      3976      3973      3971      3977      3974
      3973      3971      3977      3979      3976      3974      3977      3979
      3981      3986      3988      3990      3981      3986      3988      3991
      3981      3986      3994      3996      3981      3986      3994      3997
      3983      3981      3986      3988      3983      3981      3986      3994
      3984      3981      3986      3988      3984      3981      3986      3994
      3985      3981      3986      3988      3985      3981      3986      3994
      3986      3988      3991      3993      3986      3988      3991      3997
      3986      3994      3997      3991      3986      3994      3997      3999
      3988      3986      3994      3996      3988      3986      3994      3997
      3988      3991      3997      3994      3988      3991      3997      3999
      3990      3988      3986      3994      3990      3988      3991      3993
      3990      3988      3991      3997      3991      3988      3986      3994
      3991      3997      3994      3996      3993      3991      3997      3994
      3993      3991      3997      3999      3996      3994      3997      3999
      4001      4006      4008      4010      4001      4006      4008      4011
      4001      4006      4014      4016      4001      4006      4014      4017
      4003      4001      4006      4008      4003      4001      4006      4014
      4004      4001      4006      4008      4004      4001      4006      4014
      4005      4001      4006      4008      4005      4001      4006      4014
      4006      4008      4011      4013      4006      4008      4011      4017
      4006      4014      4017      4011      4006      4014      4017      4019
      4008      4006      4014      4016      4008      4006      4014      4017
      4008      4011      4017      4014      4008      4011      4017      4019
      4010      4008      4006      4014      4010      4008      4011      4013
      4010      4008      4011      4017      4011      4008      4006      4014
      4011      4017      4014      4016      4013      4011      4017      4014
      4013      4011      4017      4019      4016      4014      4017      4019
      4021      4026      4028      4030      4021      4026      4028      4031
      4021      4026      4034      4036      4021      4026      4034      4037
      4023      4021      4026      4028      4023      4021      4026      4034
      4024      4021      4026      4028      4024      4021      4026      4034
      4025      4021      4026      4028      4025      4021      4026      4034
      4026      4028      4031      4033      4026      4028      4031      4037
      4026      4034      4037      4031      4026      4034      4037      4039
      4028      4026      4034      4036      4028      4026      4034      4037
      4028      4031      4037      4034      4028      4031      4037      4039
      4030      4028      4026      4034      4030      4028      4031      4033
      4030      4028      4031      4037      4031      4028      4026      4034
      4031      4037      4034      4036      4033      4031      4037      4034
      4033      4031      4037      4039      4036      4034      4037      4039
      4041      4046      4048      4050      4041      4046      4048      4051
      4041      4046      4054      4056      4041      4046      4054      4057
      4043      4041      4046      4048      4043      4041      4046      4054
      4044      4041      4046      4048      4044      4041      4046      4054
      4045      4041      4046      4048      4045      4041      4046      4054
      4046      4048      4051      4053      4046      4048      4051      4057
      4046      4054      4057      4051      4046      4054      4057      4059
      4048      4046      4054      4056      4048      4046      4054      4057
      4048      4051      4057      4054      4048      4051      4057      4059
      4050      4048      4046      4054      4050      4048      4051      4053
      4050      4048      4051      4057      4051      4048      4046      4054
      4051      4057      4054      4056      4053      4051      4057      4054
      4053      4051      4057      4059      4056      4054      4057      4059
      4061      4066      4068      4070      4061      4066      4068      4071
      4061      4066      4074      4076      4061      4066      4074      4077
      4063      4061      4066      4068      4063      4061      4066      4074
      4064      4061      4066      4068      4064      4061      4066      4074
      4065      4061      4066      4068      4065      4061      4066      4074
      4066      4068      4071      4073      4066      4068      4071      4077
      4066      4074      4077      4071      4066      4074      4077      4079
      4068      4066      4074      4076      4068      4066      4074      4077
      4068      4071      4077      4074      4068      4071      4077      4079
      4070      4068      4066      4074      4070      4068      4071      4073
      4070      4068      4071      4077      4071      4068      4066      4074
      4071      4077      4074      4076      4073      4071      4077      4074
      4073      4071      4077      4079      4076      4074      4077      4079
      4081      4086      4088      4090      4081      4086      4088      4091
      4081      4086      4094      4096      4081      4086      4094      4097
      4083      4081      4086      4088      4083      4081      4086      4094
      4084      4081      4086      4088      4084      4081      4086      4094
      4085      4081      4086      4088      4085      4081      4086      4094
      4086      4088      4091      4093      4086      4088      4091      4097
      4086      4094      4097      4091      4086      4094      4097      4099
      4088      4086      4094      4096      4088      4086      4094      4097
      4088      4091      4097      4094      4088      4091      4097      4099
      4090      4088      4086      4094      4090      4088      4091      4093
      4090      4088      4091      4097      4091      4088      4086      4094
      4091      4097      4094      4096      4093      4091      4097      4094
      4093      4091      4097      4099      4096      4094      4097      4099
      4101      4106      4108      4110      4101      4106      4108      4111
      4101      4106      4114      4116      4101      4106      4114      4117
      4103      4101      4106      4108      4103      4101      4106      4114
      4104      4101      4106      4108      4104      4101      4106      4114
      4105      4101      4106      4108      4105      4101      4106      4114
      4106      4108      4111      4113      4106      4108      4111      4117
      4106      4114      4117      4111      4106      4114      4117      4119
      4108      4106      4114      4116      4108      4106      4114      4117
      4108      4111      4117      4114      4108      4111      4117      4119
      4110      4108      4106      4114      4110      4108      4111      4113
      4110      4108      4111      4117      4111      4108      4106      4114
      4111      4117      4114      4116      4113      4111      4117      4114
      4113      4111      4117      4119      4116      4114      4117      4119
      4121      4126      4128      4130      4121      4126      4128      4131
      4121      4126      4134      4136      4121      4126      4134      4137
      4123      4121      4126      4128      4123      4121      4126      4134
      4124      4121      4126      4128      4124      4121      4126      4134
      4125      4121      4126      4128      4125      4121      4126      4134
      4126      4128      4131      4133      4126      4128      4131      4137
      4126      4134      4137      4131      4126      4134      4137      4139
      4128      4126      4134      4136      4128      4126      4134      4137
      4128      4131      4137      4134      4128      4131      4137      4139
      4130      4128      4126      4134      4130      4128      4131      4133
      4130      4128      4131      4137      4131      4128      4126      4134
      4131      4137      4134      4136      4133      4131      4137      4134
      4133      4131      4137      4139      4136      4134      4137      4139
      4141      4146      4148      4150      4141      4146      4148      4151
      4141      4146      4154      4156      4141      4146      4154      4157
      4143      4141      4146      4148      4143      4141      4146      4154
      4144      4141      4146      4148      4144      4141      4146      4154
      4145      4141      4146      4148      4145      4141      4146      4154
      4146      4148      4151      4153      4146      4148      4151      4157
      4146      4154      4157      4151      4146      4154      4157      4159
      4148      4146      4154      4156      4148      4146      4154      4157
      4148      4151      4157      4154      4148      4151      4157      4159
      4150      4148      4146      4154      4150      4148      4151      4153
      4150      4148      4151      4157      4151      4148      4146      4154
      4151      4157      4154      4156      4153      4151      4157      4154
      4153      4151      4157      4159      4156      4154      4157      4159
      4161      4166      4168      4170      4161      4166      4168      4171
      4161      4166      4174      4176      4161      4166      4174      4177
      4163      4161      4166      4168      4163      4161      4166      4174
      4164      4161      4166      4168      4164      4161      4166      4174
      4165      4161      4166      4168      4165      4161      4166      4174
      4166      4168      4171      4173      4166      4168      4171      4177
      4166      4174      4177      4171      4166      4174      4177      4179
      4168      4166      4174      4176      4168      4166      4174      4177
      4168      4171      4177      4174      4168      4171      4177      4179
      4170      4168      4166      4174      4170      4168      4171      4173
      4170      4168      4171      4177      4171      4168      4166      4174
      4171      4177      4174      4176      4173      4171      4177      4174
      4173      4171      4177      4179      4176      4174      4177      4179
      4181      4186      4188      4190      4181      4186      4188      4191
      4181      4186      4194      4196      4181      4186      4194      4197
      4183      4181      4186      4188      4183      4181      4186      4194
      4184      4181      4186      4188      4184      4181      4186      4194
      4185      4181      4186      4188      4185      4181      4186      4194
      4186      4188      4191      4193      4186      4188      4191      4197
      4186      4194      4197      4191      4186      4194      4197      4199
      4188      4186      4194      4196      4188      4186      4194      4197
      4188      4191      4197      4194      4188      4191      4197      4199
      4190      4188      4186      4194      4190      4188      4191      4193
      4190      4188      4191      4197      4191      4188      4186      4194
      4191      4197      4194      4196      4193      4191      4197      4194
      4193      4191      4197      4199      4196      4194      4197      4199
      4201      4206      4208      4210      4201      4206      4208      4211
      4201      4206      4214      4216      4201      4206      4214      4217
      4203      4201      4206      4208      4203      4201      4206      4214
      4204      4201      4206      4208      4204      4201      4206      4214
      4205      4201      4206      4208      4205      4201      4206      4214
      4206      4208      4211      4213      4206      4208      4211      4217
      4206      4214      4217      4211      4206      4214      4217      4219
      4208      4206      4214      4216      4208      4206      4214      4217
      4208      4211      4217      4214      4208      4211      4217      4219
      4210      4208      4206      4214      4210      4208      4211      4213
      4210      4208      4211      4217      4211      4208      4206      4214
      4211      4217      4214      4216      4213      4211      4217      4214
      4213      4211      4217      4219      4216      4214      4217      4219
      4221      4226      4228      4230      4221      4226      4228      4231
      4221      4226      4234      4236      4221      4226      4234      4237
      4223      4221      4226      4228      4223      4221      4226      4234
      4224      4221      4226      4228      4224      4221      4226      4234
      4225      4221      4226      4228      4225      4221      4226      4234
      4226      4228      4231      4233      4226      4228      4231      4237
      4226      4234      4237      4231      4226      4234      4237      4239
      4228      4226      4234      4236      4228      4226      4234      4237
      4228      4231      4237      4234      4228      4231      4237      4239
      4230      4228      4226      4234      4230      4228      4231      4233
      4230      4228      4231      4237      4231      4228      4226      4234
      4231      4237      4234      4236      4233      4231      4237      4234
      4233      4231      4237      4239      4236      4234      4237      4239
      4241      4246      4248      4250      4241      4246      4248      4251
      4241      4246      4254      4256      4241      4246      4254      4257
      4243      4241      4246      4248      4243      4241      4246      4254
      4244      4241      4246      4248      4244      4241      4246      4254
      4245      4241      4246      4248      4245      4241      4246      4254
      4246      4248      4251      4253      4246      4248      4251      4257
      4246      4254      4257      4251      4246      4254      4257      4259
      4248      4246      4254      4256      4248      4246      4254      4257
      4248      4251      4257      4254      4248      4251      4257      4259
      4250      4248      4246      4254      4250      4248      4251      4253
      4250      4248      4251      4257      4251      4248      4246      4254
      4251      4257      4254      4256      4253      4251      4257      4254
      4253      4251      4257      4259      4256      4254      4257      4259
      4261      4266      4268      4270      4261      4266      4268      4271
      4261      4266      4274      4276      4261      4266      4274      4277
      4263      4261      4266      4268      4263      4261      4266      4274
      4264      4261      4266      4268      4264      4261      4266      4274
      4265      4261      4266      4268      4265      4261      4266      4274
      4266      4268      4271      4273      4266      4268      4271      4277
      4266      4274      4277      4271      4266      4274      4277      4279
      4268      4266      4274      4276      4268      4266      4274      4277
      4268      4271      4277      4274      4268      4271      4277      4279
      4270      4268      4266      4274      4270      4268      4271      4273
      4270      4268      4271      4277      4271      4268      4266      4274
      4271      4277      4274      4276      4273      4271      4277      4274
      4273      4271      4277      4279      4276      4274      4277      4279
      4281      4286      4288      4290      4281      4286      4288      4291
      4281      4286      4294      4296      4281      4286      4294      4297
      4283      4281      4286      4288      4283      4281      4286      4294
      4284      4281      4286      4288      4284      4281      4286      4294
      4285      4281      4286      4288      4285      4281      4286      4294
      4286      4288      4291      4293      4286      4288      4291      4297
      4286      4294      4297      4291      4286      4294      4297      4299
      4288      4286      4294      4296      4288      4286      4294      4297
      4288      4291      4297      4294      4288      4291      4297      4299
      4290      4288      4286      4294      4290      4288      4291      4293
      4290      4288      4291      4297      4291      4288      4286      4294
      4291      4297      4294      4296      4293      4291      4297      4294
      4293      4291      4297      4299      4296      4294      4297      4299
      4301      4306      4308      4310      4301      4306      4308      4311
      4301      4306      4314      4316      4301      4306      4314      4317
      4303      4301      4306      4308      4303      4301      4306      4314
      4304      4301      4306      4308      4304      4301      4306      4314
      4305      4301      4306      4308      4305      4301      4306      4314
      4306      4308      4311      4313      4306      4308      4311      4317
      4306      4314      4317      4311      4306      4314      4317      4319
      4308      4306      4314      4316      4308      4306      4314      4317
      4308      4311      4317      4314      4308      4311      4317      4319
      4310      4308      4306      4314      4310      4308      4311      4313
      4310      4308      4311      4317      4311      4308      4306      4314
      4311      4317      4314      4316      4313      4311      4317      4314
      4313      4311      4317      4319      4316      4314      4317      4319
      4321      4326      4328      4330      4321      4326      4328      4331
      4321      4326      4334      4336      4321      4326      4334      4337
      4323      4321      4326      4328      4323      4321      4326      4334
      4324      4321      4326      4328      4324      4321      4326      4334
      4325      4321      4326      4328      4325      4321      4326      4334
      4326      4328      4331      4333      4326      4328      4331      4337
      4326      4334      4337      4331      4326      4334      4337      4339
      4328      4326      4334      4336      4328      4326      4334      4337
      4328      4331      4337      4334      4328      4331      4337      4339
      4330      4328      4326      4334      4330      4328      4331      4333
      4330      4328      4331      4337      4331      4328      4326      4334
      4331      4337      4334      4336      4333      4331      4337      4334
      4333      4331      4337      4339      4336      4334      4337      4339
      4341      4346      4348      4350      4341      4346      4348      4351
      4341      4346      4354      4356      4341      4346      4354      4357
      4343      4341      4346      4348      4343      4341      4346      4354
      4344      4341      4346      4348      4344      4341      4346      4354
      4345      4341      4346      4348      4345      4341      4346      4354
      4346      4348      4351      4353      4346      4348      4351      4357
      4346      4354      4357      4351      4346      4354      4357      4359
      4348      4346      4354      4356      4348      4346      4354      4357
      4348      4351      4357      4354      4348      4351      4357      4359
      4350      4348      4346      4354      4350      4348      4351      4353
      4350      4348      4351      4357      4351      4348      4346      4354
      4351      4357      4354      4356      4353      4351      4357      4354
      4353      4351      4357      4359      4356      4354      4357      4359
      4361      4366      4368      4370      4361      4366      4368      4371
      4361      4366      4374      4376      4361      4366      4374      4377
      4363      4361      4366      4368      4363      4361      4366      4374
      4364      4361      4366      4368      4364      4361      4366      4374
      4365      4361      4366      4368      4365      4361      4366      4374
      4366      4368      4371      4373      4366      4368      4371      4377
      4366      4374      4377      4371      4366      4374      4377      4379
      4368      4366      4374      4376      4368      4366      4374      4377
      4368      4371      4377      4374      4368      4371      4377      4379
      4370      4368      4366      4374      4370      4368      4371      4373
      4370      4368      4371      4377      4371      4368      4366      4374
      4371      4377      4374      4376      4373      4371      4377      4374
      4373      4371      4377      4379      4376      4374      4377      4379
      4381      4386      4388      4390      4381      4386      4388      4391
      4381      4386      4394      4396      4381      4386      4394      4397
      4383      4381      4386      4388      4383      4381      4386      4394
      4384      4381      4386      4388      4384      4381      4386      4394
      4385      4381      4386      4388      4385      4381      4386      4394
      4386      4388      4391      4393      4386      4388      4391      4397
      4386      4394      4397      4391      4386      4394      4397      4399
      4388      4386      4394      4396      4388      4386      4394      4397
      4388      4391      4397      4394      4388      4391      4397      4399
      4390      4388      4386      4394      4390      4388      4391      4393
      4390      4388      4391      4397      4391      4388      4386      4394
      4391      4397      4394      4396      4393      4391      4397      4394
      4393      4391      4397      4399      4396      4394      4397      4399
      4401      4406      4408      4410      4401      4406      4408      4411
      4401      4406      4414      4416      4401      4406      4414      4417
      4403      4401      4406      4408      4403      4401      4406      4414
      4404      4401      4406      4408      4404      4401      4406      4414
      4405      4401      4406      4408      4405      4401      4406      4414
      4406      4408      4411      4413      4406      4408      4411      4417
      4406      4414      4417      4411      4406      4414      4417      4419
      4408      4406      4414      4416      4408      4406      4414      4417
      4408      4411      4417      4414      4408      4411      4417      4419
      4410      4408      4406      4414      4410      4408      4411      4413
      4410      4408      4411      4417      4411      4408      4406      4414
      4411      4417      4414      4416      4413      4411      4417      4414
      4413      4411      4417      4419      4416      4414      4417      4419
      4421      4426      4428      4430      4421      4426      4428      4431
      4421      4426      4434      4436      4421      4426      4434      4437
      4423      4421      4426      4428      4423      4421      4426      4434
      4424      4421      4426      4428      4424      4421      4426      4434
      4425      4421      4426      4428      4425      4421      4426      4434
      4426      4428      4431      4433      4426      4428      4431      4437
      4426      4434      4437      4431      4426      4434      4437      4439
      4428      4426      4434      4436      4428      4426      4434      4437
      4428      4431      4437      4434      4428      4431      4437      4439
      4430      4428      4426      4434      4430      4428      4431      4433
      4430      4428      4431      4437      4431      4428      4426      4434
      4431      4437      4434      4436      4433      4431      4437      4434
      4433      4431      4437      4439      4436      4434      4437      4439
      4441      4446      4448      4450      4441      4446      4448      4451
      4441      4446      4454      4456      4441      4446      4454      4457
      4443      4441      4446      4448      4443      4441      4446      4454
      4444      4441      4446      4448      4444      4441      4446      4454
      4445      4441      4446      4448      4445      4441      4446      4454
      4446      4448      4451      4453      4446      4448      4451      4457
      4446      4454      4457      4451      4446      4454      4457      4459
      4448      4446      4454      4456      4448      4446      4454      4457
      4448      4451      4457      4454      4448      4451      4457      4459
      4450      4448      4446      4454      4450      4448      4451      4453
      4450      4448      4451      4457      4451      4448      4446      4454
      4451      4457      4454      4456      4453      4451      4457      4454
      4453      4451      4457      4459      4456      4454      4457      4459
      4461      4466      4468      4470      4461      4466      4468      4471
      4461      4466      4474      4476      4461      4466      4474      4477
      4463      4461      4466      4468      4463      4461      4466      4474
      4464      4461      4466      4468      4464      4461      4466      4474
      4465      4461      4466      4468      4465      4461      4466      4474
      4466      4468      4471      4473      4466      4468      4471      4477
      4466      4474      4477      4471      4466      4474      4477      4479
      4468      4466      4474      4476      4468      4466      4474      4477
      4468      4471      4477      4474      4468      4471      4477      4479
      4470      4468      4466      4474      4470      4468      4471      4473
      4470      4468      4471      4477      4471      4468      4466      4474
      4471      4477      4474      4476      4473      4471      4477      4474
      4473      4471      4477      4479      4476      4474      4477      4479
      4481      4486      4488      4490      4481      4486      4488      4491
      4481      4486      4494      4496      4481      4486      4494      4497
      4483      4481      4486      4488      4483      4481      4486      4494
      4484      4481      4486      4488      4484      4481      4486      4494
      4485      4481      4486      4488      4485      4481      4486      4494
      4486      4488      4491      4493      4486      4488      4491      4497
      4486      4494      4497      4491      4486      4494      4497      4499
      4488      4486      4494      4496      4488      4486      4494      4497
      4488      4491      4497      4494      4488      4491      4497      4499
      4490      4488      4486      4494      4490      4488      4491      4493
      4490      4488      4491      4497      4491      4488      4486      4494
      4491      4497      4494      4496      4493      4491      4497      4494
      4493      4491      4497      4499      4496      4494      4497      4499
      4501      4506      4508      4510      4501      4506      4508      4511
      4501      4506      4514      4516      4501      4506      4514      4517
      4503      4501      4506      4508      4503      4501      4506      4514
      4504      4501      4506      4508      4504      4501      4506      4514
      4505      4501      4506      4508      4505      4501      4506      4514
      4506      4508      4511      4513      4506      4508      4511      4517
      4506      4514      4517      4511      4506      4514      4517      4519
      4508      4506      4514      4516      4508      4506      4514      4517
      4508      4511      4517      4514      4508      4511      4517      4519
      4510      4508      4506      4514      4510      4508      4511      4513
      4510      4508      4511      4517      4511      4508      4506      4514
      4511      4517      4514      4516      4513      4511      4517      4514
      4513      4511      4517      4519      4516      4514      4517      4519
      4521      4526      4528      4530      4521      4526      4528      4531
      4521      4526      4534      4536      4521      4526      4534      4537
      4523      4521      4526      4528      4523      4521      4526      4534
      4524      4521      4526      4528      4524      4521      4526      4534
      4525      4521      4526      4528      4525      4521      4526      4534
      4526      4528      4531      4533      4526      4528      4531      4537
      4526      4534      4537      4531      4526      4534      4537      4539
      4528      4526      4534      4536      4528      4526      4534      4537
      4528      4531      4537      4534      4528      4531      4537      4539
      4530      4528      4526      4534      4530      4528      4531      4533
      4530      4528      4531      4537      4531      4528      4526      4534
      4531      4537      4534      4536      4533      4531      4537      4534
      4533      4531      4537      4539      4536      4534      4537      4539
      4541      4546      4548      4550      4541      4546      4548      4551
      4541      4546      4554      4556      4541      4546      4554      4557
      4543      4541      4546      4548      4543      4541      4546      4554
      4544      4541      4546      4548      4544      4541      4546      4554
      4545      4541      4546      4548      4545      4541      4546      4554
      4546      4548      4551      4553      4546      4548      4551      4557
      4546      4554      4557      4551      4546      4554      4557      4559
      4548      4546      4554      4556      4548      4546      4554      4557
      4548      4551      4557      4554      4548      4551      4557      4559
      4550      4548      4546      4554      4550      4548      4551      4553
      4550      4548      4551      4557      4551      4548      4546      4554
      4551      4557      4554      4556      4553      4551      4557      4554
      4553      4551      4557      4559      4556      4554      4557      4559
      4561      4566      4568      4570      4561      4566      4568      4571
      4561      4566      4574      4576      4561      4566      4574      4577
      4563      4561      4566      4568      4563      4561      4566      4574
      4564      4561      4566      4568      4564      4561      4566      4574
      4565      4561      4566      4568      4565      4561      4566      4574
      4566      4568      4571      4573      4566      4568      4571      4577
      4566      4574      4577      4571      4566      4574      4577      4579
      4568      4566      4574      4576      4568      4566      4574      4577
      4568      4571      4577      4574      4568      4571      4577      4579
      4570      4568      4566      4574      4570      4568      4571      4573
      4570      4568      4571      4577      4571      4568      4566      4574
      4571      4577      4574      4576      4573      4571      4577      4574
      4573      4571      4577      4579      4576      4574      4577      4579
      4581      4586      4588      4590      4581      4586      4588      4591
      4581      4586      4594      4596      4581      4586      4594      4597
      4583      4581      4586      4588      4583      4581      4586      4594
      4584      4581      4586      4588      4584      4581      4586      4594
      4585      4581      4586      4588      4585      4581      4586      4594
      4586      4588      4591      4593      4586      4588      4591      4597
      4586      4594      4597      4591      4586      4594      4597      4599
      4588      4586      4594      4596      4588      4586      4594      4597
      4588      4591      4597      4594      4588      4591      4597      4599
      4590      4588      4586      4594      4590      4588      4591      4593
      4590      4588      4591      4597      4591      4588      4586      4594
      4591      4597      4594      4596      4593      4591      4597      4594
      4593      4591      4597      4599      4596      4594      4597      4599
      4601      4606      4608      4610      4601      4606      4608      4611
      4601      4606      4614      4616      4601      4606      4614      4617
      4603      4601      4606      4608      4603      4601      4606      4614
      4604      4601      4606      4608      4604      4601      4606      4614
      4605      4601      4606      4608      4605      4601      4606      4614
      4606      4608      4611      4613      4606      4608      4611      4617
      4606      4614      4617      4611      4606      4614      4617      4619
      4608      4606      4614      4616      4608      4606      4614      4617
      4608      4611      4617      4614      4608      4611      4617      4619
      4610      4608      4606      4614      4610      4608      4611      4613
      4610      4608      4611      4617      4611      4608      4606      4614
      4611      4617      4614      4616      4613      4611      4617      4614
      4613      4611      4617      4619      4616      4614      4617      4619
      4621      4626      4628      4630      4621      4626      4628      4631
      4621      4626      4634      4636      4621      4626      4634      4637
      4623      4621      4626      4628      4623      4621      4626      4634
      4624      4621      4626      4628      4624      4621      4626      4634
      4625      4621      4626      4628      4625      4621      4626      4634
      4626      4628      4631      4633      4626      4628      4631      4637
      4626      4634      4637      4631      4626      4634      4637      4639
      4628      4626      4634      4636      4628      4626      4634      4637
      4628      4631      4637      4634      4628      4631      4637      4639
      4630      4628      4626      4634      4630      4628      4631      4633
      4630      4628      4631      4637      4631      4628      4626      4634
      4631      4637      4634      4636      4633      4631      4637      4634
      4633      4631      4637      4639      4636      4634      4637      4639
      4641      4646      4648      4650      4641      4646      4648      4651
      4641      4646      4654      4656      4641      4646      4654      4657
      4643      4641      4646      4648      4643      4641      4646      4654
      4644      4641      4646      4648      4644      4641      4646      4654
      4645      4641      4646      4648      4645      4641      4646      4654
      4646      4648      4651      4653      4646      4648      4651      4657
      4646      4654      4657      4651      4646      4654      4657      4659
      4648      4646      4654      4656      4648      4646      4654      4657
      4648      4651      4657      4654      4648      4651      4657      4659
      4650      4648      4646      4654      4650      4648      4651      4653
      4650      4648      4651      4657      4651      4648      4646      4654
      4651      4657      4654      4656      4653      4651      4657      4654
      4653      4651      4657      4659      4656      4654      4657      4659
      4661      4666      4668      4670      4661      4666      4668      4671
      4661      4666      4674      4676      4661      4666      4674      4677
      4663      4661      4666      4668      4663      4661      4666      4674
      4664      4661      4666      4668      4664      4661      4666      4674
      4665      4661      4666      4668      4665      4661      4666      4674
      4666      4668      4671      4673      4666      4668      4671      4677
      4666      4674      4677      4671      4666      4674      4677      4679
      4668      4666      4674      4676      4668      4666      4674      4677
      4668      4671      4677      4674      4668      4671      4677      4679
      4670      4668      4666      4674      4670      4668      4671      4673
      4670      4668      4671      4677      4671      4668      4666      4674
      4671      4677      4674      4676      4673      4671      4677      4674
      4673      4671      4677      4679      4676      4674      4677      4679
      4681      4686      4688      4690      4681      4686      4688      4691
      4681      4686      4694      4696      4681      4686      4694      4697
      4683      4681      4686      4688      4683      4681      4686      4694
      4684      4681      4686      4688      4684      4681      4686      4694
      4685      4681      4686      4688      4685      4681      4686      4694
      4686      4688      4691      4693      4686      4688      4691      4697
      4686      4694      4697      4691      4686      4694      4697      4699
      4688      4686      4694      4696      4688      4686      4694      4697
      4688      4691      4697      4694      4688      4691      4697      4699
      4690      4688      4686      4694      4690      4688      4691      4693
      4690      4688      4691      4697      4691      4688      4686      4694
      4691      4697      4694      4696      4693      4691      4697      4694
      4693      4691      4697      4699      4696      4694      4697      4699
      4701      4706      4708      4710      4701      4706      4708      4711
      4701      4706      4714      4716      4701      4706      4714      4717
      4703      4701      4706      4708      4703      4701      4706      4714
      4704      4701      4706      4708      4704      4701      4706      4714
      4705      4701      4706      4708      4705      4701      4706      4714
      4706      4708      4711      4713      4706      4708      4711      4717
      4706      4714      4717      4711      4706      4714      4717      4719
      4708      4706      4714      4716      4708      4706      4714      4717
      4708      4711      4717      4714      4708      4711      4717      4719
      4710      4708      4706      4714      4710      4708      4711      4713
      4710      4708      4711      4717      4711      4708      4706      4714
      4711      4717      4714      4716      4713      4711      4717      4714
      4713      4711      4717      4719      4716      4714      4717      4719
      4721      4726      4728      4730      4721      4726      4728      4731
      4721      4726      4734      4736      4721      4726      4734      4737
      4723      4721      4726      4728      4723      4721      4726      4734
      4724      4721      4726      4728      4724      4721      4726      4734
      4725      4721      4726      4728      4725      4721      4726      4734
      4726      4728      4731      4733      4726      4728      4731      4737
      4726      4734      4737      4731      4726      4734      4737      4739
      4728      4726      4734      4736      4728      4726      4734      4737
      4728      4731      4737      4734      4728      4731      4737      4739
      4730      4728      4726      4734      4730      4728      4731      4733
      4730      4728      4731      4737      4731      4728      4726      4734
      4731      4737      4734      4736      4733      4731      4737      4734
      4733      4731      4737      4739      4736      4734      4737      4739
      4741      4746      4748      4750      4741      4746      4748      4751
      4741      4746      4754      4756      4741      4746      4754      4757
      4743      4741      4746      4748      4743      4741      4746      4754
      4744      4741      4746      4748      4744      4741      4746      4754
      4745      4741      4746      4748      4745      4741      4746      4754
      4746      4748      4751      4753      4746      4748      4751      4757
      4746      4754      4757      4751      4746      4754      4757      4759
      4748      4746      4754      4756      4748      4746      4754      4757
      4748      4751      4757      4754      4748      4751      4757      4759
      4750      4748      4746      4754      4750      4748      4751      4753
      4750      4748      4751      4757      4751      4748      4746      4754
      4751      4757      4754      4756      4753      4751      4757      4754
      4753      4751      4757      4759      4756      4754      4757      4759
      4761      4766      4768      4770      4761      4766      4768      4771
      4761      4766      4774      4776      4761      4766      4774      4777
      4763      4761      4766      4768      4763      4761      4766      4774
      4764      4761      4766      4768      4764      4761      4766      4774
      4765      4761      4766      4768      4765      4761      4766      4774
      4766      4768      4771      4773      4766      4768      4771      4777
      4766      4774      4777      4771      4766      4774      4777      4779
      4768      4766      4774      4776      4768      4766      4774      4777
      4768      4771      4777      4774      4768      4771      4777      4779
      4770      4768      4766      4774      4770      4768      4771      4773
      4770      4768      4771      4777      4771      4768      4766      4774
      4771      4777      4774      4776      4773      4771      4777      4774
      4773      4771      4777      4779      4776      4774      4777      4779
      4781      4786      4788      4790      4781      4786      4788      4791
      4781      4786      4794      4796      4781      4786      4794      4797
      4783      4781      4786      4788      4783      4781      4786      4794
      4784      4781      4786      4788      4784      4781      4786      4794
      4785      4781      4786      4788      4785      4781      4786      4794
      4786      4788      4791      4793      4786      4788      4791      4797
      4786      4794      4797      4791      4786      4794      4797      4799
      4788      4786      4794      4796      4788      4786      4794      4797
      4788      4791      4797      4794      4788      4791      4797      4799
      4790      4788      4786      4794      4790      4788      4791      4793
      4790      4788      4791      4797      4791      4788      4786      4794
      4791      4797      4794      4796      4793      4791      4797      4794
      4793      4791      4797      4799      4796      4794      4797      4799
      4801      4806      4808      4810      4801      4806      4808      4811
      4801      4806      4814      4816      4801      4806      4814      4817
      4803      4801      4806      4808      4803      4801      4806      4814
      4804      4801      4806      4808      4804      4801      4806      4814
      4805      4801      4806      4808      4805      4801      4806      4814
      4806      4808      4811      4813      4806      4808      4811      4817
      4806      4814      4817      4811      4806      4814      4817      4819
      4808      4806      4814      4816      4808      4806      4814      4817
      4808      4811      4817      4814      4808      4811      4817      4819
      4810      4808      4806      4814      4810      4808      4811      4813
      4810      4808      4811      4817      4811      4808      4806      4814
      4811      4817      4814      4816      4813      4811      4817      4814
      4813      4811      4817      4819      4816      4814      4817      4819
      4821      4826      4828      4830      4821      4826      4828      4831
      4821      4826      4834      4836      4821      4826      4834      4837
      4823      4821      4826      4828      4823      4821      4826      4834
      4824      4821      4826      4828      4824      4821      4826      4834
      4825      4821      4826      4828      4825      4821      4826      4834
      4826      4828      4831      4833      4826      4828      4831      4837
      4826      4834      4837      4831      4826      4834      4837      4839
      4828      4826      4834      4836      4828      4826      4834      4837
      4828      4831      4837      4834      4828      4831      4837      4839
      4830      4828      4826      4834      4830      4828      4831      4833
      4830      4828      4831      4837      4831      4828      4826      4834
      4831      4837      4834      4836      4833      4831      4837      4834
      4833      4831      4837      4839      4836      4834      4837      4839
      4841      4846      4848      4850      4841      4846      4848      4851
      4841      4846      4854      4856      4841      4846      4854      4857
      4843      4841      4846      4848      4843      4841      4846      4854
      4844      4841      4846      4848      4844      4841      4846      4854
      4845      4841      4846      4848      4845      4841      4846      4854
      4846      4848      4851      4853      4846      4848      4851      4857
      4846      4854      4857      4851      4846      4854      4857      4859
      4848      4846      4854      4856      4848      4846      4854      4857
      4848      4851      4857      4854      4848      4851      4857      4859
      4850      4848      4846      4854      4850      4848      4851      4853
      4850      4848      4851      4857      4851      4848      4846      4854
      4851      4857      4854      4856      4853      4851      4857      4854
      4853      4851      4857      4859      4856      4854      4857      4859
      4861      4866      4868      4870      4861      4866      4868      4871
      4861      4866      4874      4876      4861      4866      4874      4877
      4863      4861      4866      4868      4863      4861      4866      4874
      4864      4861      4866      4868      4864      4861      4866      4874
      4865      4861      4866      4868      4865      4861      4866      4874
      4866      4868      4871      4873      4866      4868      4871      4877
      4866      4874      4877      4871      4866      4874      4877      4879
      4868      4866      4874      4876      4868      4866      4874      4877
      4868      4871      4877      4874      4868      4871      4877      4879
      4870      4868      4866      4874      4870      4868      4871      4873
      4870      4868      4871      4877      4871      4868      4866      4874
      4871      4877      4874      4876      4873      4871      4877      4874
      4873      4871      4877      4879      4876      4874      4877      4879
      4881      4886      4888      4890      4881      4886      4888      4891
      4881      4886      4894      4896      4881      4886      4894      4897
      4883      4881      4886      4888      4883      4881      4886      4894
      4884      4881      4886      4888      4884      4881      4886      4894
      4885      4881      4886      4888      4885      4881      4886      4894
      4886      4888      4891      4893      4886      4888      4891      4897
      4886      4894      4897      4891      4886      4894      4897      4899
      4888      4886      4894      4896      4888      4886      4894      4897
      4888      4891      4897      4894      4888      4891      4897      4899
      4890      4888      4886      4894      4890      4888      4891      4893
      4890      4888      4891      4897      4891      4888      4886      4894
      4891      4897      4894      4896      4893      4891      4897      4894
      4893      4891      4897      4899      4896      4894      4897      4899
      4901      4906      4908      4910      4901      4906      4908      4911
      4901      4906      4914      4916      4901      4906      4914      4917
      4903      4901      4906      4908      4903      4901      4906      4914
      4904      4901      4906      4908      4904      4901      4906      4914
      4905      4901      4906      4908      4905      4901      4906      4914
      4906      4908      4911      4913      4906      4908      4911      4917
      4906      4914      4917      4911      4906      4914      4917      4919
      4908      4906      4914      4916      4908      4906      4914      4917
      4908      4911      4917      4914      4908      4911      4917      4919
      4910      4908      4906      4914      4910      4908      4911      4913
      4910      4908      4911      4917      4911      4908      4906      4914
      4911      4917      4914      4916      4913      4911      4917      4914
      4913      4911      4917      4919      4916      4914      4917      4919
      4921      4926      4928      4930      4921      4926      4928      4931
      4921      4926      4934      4936      4921      4926      4934      4937
      4923      4921      4926      4928      4923      4921      4926      4934
      4924      4921      4926      4928      4924      4921      4926      4934
      4925      4921      4926      4928      4925      4921      4926      4934
      4926      4928      4931      4933      4926      4928      4931      4937
      4926      4934      4937      4931      4926      4934      4937      4939
      4928      4926      4934      4936      4928      4926      4934      4937
      4928      4931      4937      4934      4928      4931      4937      4939
      4930      4928      4926      4934      4930      4928      4931      4933
      4930      4928      4931      4937      4931      4928      4926      4934
      4931      4937      4934      4936      4933      4931      4937      4934
      4933      4931      4937      4939      4936      4934      4937      4939
      4941      4946      4948      4950      4941      4946      4948      4951
      4941      4946      4954      4956      4941      4946      4954      4957
      4943      4941      4946      4948      4943      4941      4946      4954
      4944      4941      4946      4948      4944      4941      4946      4954
      4945      4941      4946      4948      4945      4941      4946      4954
      4946      4948      4951      4953      4946      4948      4951      4957
      4946      4954      4957      4951      4946      4954      4957      4959
      4948      4946      4954      4956      4948      4946      4954      4957
      4948      4951      4957      4954      4948      4951      4957      4959
      4950      4948      4946      4954      4950      4948      4951      4953
      4950      4948      4951      4957      4951      4948      4946      4954
      4951      4957      4954      4956      4953      4951      4957      4954
      4953      4951      4957      4959      4956      4954      4957      4959
      4961      4966      4968      4970      4961      4966      4968      4971
      4961      4966      4974      4976      4961      4966      4974      4977
      4963      4961      4966      4968      4963      4961      4966      4974
      4964      4961      4966      4968      4964      4961      4966      4974
      4965      4961      4966      4968      4965      4961      4966      4974
      4966      4968      4971      4973      4966      4968      4971      4977
      4966      4974      4977      4971      4966      4974      4977      4979
      4968      4966      4974      4976      4968      4966      4974      4977
      4968      4971      4977      4974      4968      4971      4977      4979
      4970      4968      4966      4974      4970      4968      4971      4973
      4970      4968      4971      4977      4971      4968      4966      4974
      4971      4977      4974      4976      4973      4971      4977      4974
      4973      4971      4977      4979      4976      4974      4977      4979
      4981      4986      4988      4990      4981      4986      4988      4991
      4981      4986      4994      4996      4981      4986      4994      4997
      4983      4981      4986      4988      4983      4981      4986      4994
      4984      4981      4986      4988      4984      4981      4986      4994
      4985      4981      4986      4988      4985      4981      4986      4994
      4986      4988      4991      4993      4986      4988      4991      4997
      4986      4994      4997      4991      4986      4994      4997      4999
      4988      4986      4994      4996      4988      4986      4994      4997
      4988      4991      4997      4994      4988      4991      4997      4999
      4990      4988      4986      4994      4990      4988      4991      4993
      4990      4988      4991      4997      4991      4988      4986      4994
      4991      4997      4994      4996      4993      4991      4997      4994
      4993      4991      4997      4999      4996      4994      4997      4999
      5001      5006      5008      5010      5001      5006      5008      5011
      5001      5006      5014      5016      5001      5006      5014      5017
      5003      5001      5006      5008      5003      5001      5006      5014
      5004      5001      5006      5008      5004      5001      5006      5014
      5005      5001      5006      5008      5005      5001      5006      5014
      5006      5008      5011      5013      5006      5008      5011      5017
      5006      5014      5017      5011      5006      5014      5017      5019
      5008      5006      5014      5016      5008      5006      5014      5017
      5008      5011      5017      5014      5008      5011      5017      5019
      5010      5008      5006      5014      5010      5008      5011      5013
      5010      5008      5011      5017      5011      5008      5006      5014
      5011      5017      5014      5016      5013      5011      5017      5014
      5013      5011      5017      5019      5016      5014      5017      5019
      5021      5026      5028      5030      5021      5026      5028      5031
      5021      5026      5034      5036      5021      5026      5034      5037
      5023      5021      5026      5028      5023      5021      5026      5034
      5024      5021      5026      5028      5024      5021      5026      5034
      5025      5021      5026      5028      5025      5021      5026      5034
      5026      5028      5031      5033      5026      5028      5031      5037
      5026      5034      5037      5031      5026      5034      5037      5039
      5028      5026      5034      5036      5028      5026      5034      5037
      5028      5031      5037      5034      5028      5031      5037      5039
      5030      5028      5026      5034      5030      5028      5031      5033
      5030      5028      5031      5037      5031      5028      5026      5034
      5031      5037      5034      5036      5033      5031      5037      5034
      5033      5031      5037      5039      5036      5034      5037      5039
      5041      5046      5048      5050      5041      5046      5048      5051
      5041      5046      5054      5056      5041      5046      5054      5057
      5043      5041      5046      5048      5043      5041      5046      5054
      5044      5041      5046      5048      5044      5041      5046      5054
      5045      5041      5046      5048      5045      5041      5046      5054
      5046      5048      5051      5053      5046      5048      5051      5057
      5046      5054      5057      5051      5046      5054      5057      5059
      5048      5046      5054      5056      5048      5046      5054      5057
      5048      5051      5057      5054      5048      5051      5057      5059
      5050      5048      5046      5054      5050      5048      5051      5053
      5050      5048      5051      5057      5051      5048      5046      5054
      5051      5057      5054      5056      5053      5051      5057      5054
      5053      5051      5057      5059      5056      5054      5057      5059
      5061      5066      5068      5070      5061      5066      5068      5071
      5061      5066      5074      5076      5061      5066      5074      5077
      5063      5061      5066      5068      5063      5061      5066      5074
      5064      5061      5066      5068      5064      5061      5066      5074
      5065      5061      5066      5068      5065      5061      5066      5074
      5066      5068      5071      5073      5066      5068      5071      5077
      5066      5074      5077      5071      5066      5074      5077      5079
      5068      5066      5074      5076      5068      5066      5074      5077
      5068      5071      5077      5074      5068      5071      5077      5079
      5070      5068      5066      5074      5070      5068      5071      5073
      5070      5068      5071      5077      5071      5068      5066      5074
      5071      5077      5074      5076      5073      5071      5077      5074
      5073      5071      5077      5079      5076      5074      5077      5079
      5081      5086      5088      5090      5081      5086      5088      5091
      5081      5086      5094      5096      5081      5086      5094      5097
      5083      5081      5086      5088      5083      5081      5086      5094
      5084      5081      5086      5088      5084      5081      5086      5094
      5085      5081      5086      5088      5085      5081      5086      5094
      5086      5088      5091      5093      5086      5088      5091      5097
      5086      5094      5097      5091      5086      5094      5097      5099
      5088      5086      5094      5096      5088      5086      5094      5097
      5088      5091      5097      5094      5088      5091      5097      5099
      5090      5088      5086      5094      5090      5088      5091      5093
      5090      5088      5091      5097      5091      5088      5086      5094
      5091      5097      5094      5096      5093      5091      5097      5094
      5093      5091      5097      5099      5096      5094      5097      5099
      5101      5106      5108      5110      5101      5106      5108      5111
      5101      5106      5114      5116      5101      5106      5114      5117
      5103      5101      5106      5108      5103      5101      5106      5114
      5104      5101      5106      5108      5104      5101      5106      5114
      5105      5101      5106      5108      5105      5101      5106      5114
      5106      5108      5111      5113      5106      5108      5111      5117
      5106      5114      5117      5111      5106      5114      5117      5119
      5108      5106      5114      5116      5108      5106      5114      5117
      5108      5111      5117      5114      5108      5111      5117      5119
      5110      5108      5106      5114      5110      5108      5111      5113
      5110      5108      5111      5117      5111      5108      5106      5114
      5111      5117      5114      5116      5113      5111      5117      5114
      5113      5111      5117      5119      5116      5114      5117      5119
      5121      5126      5128      5130      5121      5126      5128      5131
      5121      5126      5134      5136      5121      5126      5134      5137
      5123      5121      5126      5128      5123      5121      5126      5134
      5124      5121      5126      5128      5124      5121      5126      5134
      5125      5121      5126      5128      5125      5121      5126      5134
      5126      5128      5131      5133      5126      5128      5131      5137
      5126      5134      5137      5131      5126      5134      5137      5139
      5128      5126      5134      5136      5128      5126      5134      5137
      5128      5131      5137      5134      5128      5131      5137      5139
      5130      5128      5126      5134      5130      5128      5131      5133
      5130      5128      5131      5137      5131      5128      5126      5134
      5131      5137      5134      5136      5133      5131      5137      5134
      5133      5131      5137      5139      5136      5134      5137      5139
      5141      5146      5148      5150      5141      5146      5148      5151
      5141      5146      5154      5156      5141      5146      5154      5157
      5143      5141      5146      5148      5143      5141      5146      5154
      5144      5141      5146      5148      5144      5141      5146      5154
      5145      5141      5146      5148      5145      5141      5146      5154
      5146      5148      5151      5153      5146      5148      5151      5157
      5146      5154      5157      5151      5146      5154      5157      5159
      5148      5146      5154      5156      5148      5146      5154      5157
      5148      5151      5157      5154      5148      5151      5157      5159
      5150      5148      5146      5154      5150      5148      5151      5153
      5150      5148      5151      5157      5151      5148      5146      5154
      5151      5157      5154      5156      5153      5151      5157      5154
      5153      5151      5157      5159      5156      5154      5157      5159
      5161      5166      5168      5170      5161      5166      5168      5171
      5161      5166      5174      5176      5161      5166      5174      5177
      5163      5161      5166      5168      5163      5161      5166      5174
      5164      5161      5166      5168      5164      5161      5166      5174
      5165      5161      5166      5168      5165      5161      5166      5174
      5166      5168      5171      5173      5166      5168      5171      5177
      5166      5174      5177      5171      5166      5174      5177      5179
      5168      5166      5174      5176      5168      5166      5174      5177
      5168      5171      5177      5174      5168      5171      5177      5179
      5170      5168      5166      5174      5170      5168      5171      5173
      5170      5168      5171      5177      5171      5168      5166      5174
      5171      5177      5174      5176      5173      5171      5177      5174
      5173      5171      5177      5179      5176      5174      5177      5179
      5181      5186      5188      5190      5181      5186      5188      5191
      5181      5186      5194      5196      5181      5186      5194      5197
      5183      5181      5186      5188      5183      5181      5186      5194
      5184      5181      5186      5188      5184      5181      5186      5194
      5185      5181      5186      5188      5185      5181      5186      5194
      5186      5188      5191      5193      5186      5188      5191      5197
      5186      5194      5197      5191      5186      5194      5197      5199
      5188      5186      5194      5196      5188      5186      5194      5197
      5188      5191      5197      5194      5188      5191      5197      5199
      5190      5188      5186      5194      5190      5188      5191      5193
      5190      5188      5191      5197      5191      5188      5186      5194
      5191      5197      5194      5196      5193      5191      5197      5194
      5193      5191      5197      5199      5196      5194      5197      5199
      5201      5206      5208      5210      5201      5206      5208      5211
      5201      5206      5214      5216      5201      5206      5214      5217
      5203      5201      5206      5208      5203      5201      5206      5214
      5204      5201      5206      5208      5204      5201      5206      5214
      5205      5201      5206      5208      5205      5201      5206      5214
      5206      5208      5211      5213      5206      5208      5211      5217
      5206      5214      5217      5211      5206      5214      5217      5219
      5208      5206      5214      5216      5208      5206      5214      5217
      5208      5211      5217      5214      5208      5211      5217      5219
      5210      5208      5206      5214      5210      5208      5211      5213
      5210      5208      5211      5217      5211      5208      5206      5214
      5211      5217      5214      5216      5213      5211      5217      5214
      5213      5211      5217      5219      5216      5214      5217      5219
      5221      5226      5228      5230      5221      5226      5228      5231
      5221      5226      5234      5236      5221      5226      5234      5237
      5223      5221      5226      5228      5223      5221      5226      5234
      5224      5221      5226      5228      5224      5221      5226      5234
      5225      5221      5226      5228      5225      5221      5226      5234
      5226      5228      5231      5233      5226      5228      5231      5237
      5226      5234      5237      5231      5226      5234      5237      5239
      5228      5226      5234      5236      5228      5226      5234      5237
      5228      5231      5237      5234      5228      5231      5237      5239
      5230      5228      5226      5234      5230      5228      5231      5233
      5230      5228      5231      5237      5231      5228      5226      5234
      5231      5237      5234      5236      5233      5231      5237      5234
      5233      5231      5237      5239      5236      5234      5237      5239
      5241      5246      5248      5250      5241      5246      5248      5251
      5241      5246      5254      5256      5241      5246      5254      5257
      5243      5241      5246      5248      5243      5241      5246      5254
      5244      5241      5246      5248      5244      5241      5246      5254
      5245      5241      5246      5248      5245      5241      5246      5254
      5246      5248      5251      5253      5246      5248      5251      5257
      5246      5254      5257      5251      5246      5254      5257      5259
      5248      5246      5254      5256      5248      5246      5254      5257
      5248      5251      5257      5254      5248      5251      5257      5259
      5250      5248      5246      5254      5250      5248      5251      5253
      5250      5248      5251      5257      5251      5248      5246      5254
      5251      5257      5254      5256      5253      5251      5257      5254
      5253      5251      5257      5259      5256      5254      5257      5259
      5261      5266      5268      5270      5261      5266      5268      5271
      5261      5266      5274      5276      5261      5266      5274      5277
      5263      5261      5266      5268      5263      5261      5266      5274
      5264      5261      5266      5268      5264      5261      5266      5274
      5265      5261      5266      5268      5265      5261      5266      5274
      5266      5268      5271      5273      5266      5268      5271      5277
      5266      5274      5277      5271      5266      5274      5277      5279
      5268      5266      5274      5276      5268      5266      5274      5277
      5268      5271      5277      5274      5268      5271      5277      5279
      5270      5268      5266      5274      5270      5268      5271      5273
      5270      5268      5271      5277      5271      5268      5266      5274
      5271      5277      5274      5276      5273      5271      5277      5274
      5273      5271      5277      5279      5276      5274      5277      5279
      5281      5286      5288      5290      5281      5286      5288      5291
      5281      5286      5294      5296      5281      5286      5294      5297
      5283      5281      5286      5288      5283      5281      5286      5294
      5284      5281      5286      5288      5284      5281      5286      5294
      5285      5281      5286      5288      5285      5281      5286      5294
      5286      5288      5291      5293      5286      5288      5291      5297
      5286      5294      5297      5291      5286      5294      5297      5299
      5288      5286      5294      5296      5288      5286      5294      5297
      5288      5291      5297      5294      5288      5291      5297      5299
      5290      5288      5286      5294      5290      5288      5291      5293
      5290      5288      5291      5297      5291      5288      5286      5294
      5291      5297      5294      5296      5293      5291      5297      5294
      5293      5291      5297      5299      5296      5294      5297      5299
      5301      5306      5308      5310      5301      5306      5308      5311
      5301      5306      5314      5316      5301      5306      5314      5317
      5303      5301      5306      5308      5303      5301      5306      5314
      5304      5301      5306      5308      5304      5301      5306      5314
      5305      5301      5306      5308      5305      5301      5306      5314
      5306      5308      5311      5313      5306      5308      5311      5317
      5306      5314      5317      5311      5306      5314      5317      5319
      5308      5306      5314      5316      5308      5306      5314      5317
      5308      5311      5317      5314      5308      5311      5317      5319
      5310      5308      5306      5314      5310      5308      5311      5313
      5310      5308      5311      5317      5311      5308      5306      5314
      5311      5317      5314      5316      5313      5311      5317      5314
      5313      5311      5317      5319      5316      5314      5317      5319
      5321      5326      5328      5330      5321      5326      5328      5331
      5321      5326      5334      5336      5321      5326      5334      5337
      5323      5321      5326      5328      5323      5321      5326      5334
      5324      5321      5326      5328      5324      5321      5326      5334
      5325      5321      5326      5328      5325      5321      5326      5334
      5326      5328      5331      5333      5326      5328      5331      5337
      5326      5334      5337      5331      5326      5334      5337      5339
      5328      5326      5334      5336      5328      5326      5334      5337
      5328      5331      5337      5334      5328      5331      5337      5339
      5330      5328      5326      5334      5330      5328      5331      5333
      5330      5328      5331      5337      5331      5328      5326      5334
      5331      5337      5334      5336      5333      5331      5337      5334
      5333      5331      5337      5339      5336      5334      5337      5339
      5341      5346      5348      5350      5341      5346      5348      5351
      5341      5346      5354      5356      5341      5346      5354      5357
      5343      5341      5346      5348      5343      5341      5346      5354
      5344      5341      5346      5348      5344      5341      5346      5354
      5345      5341      5346      5348      5345      5341      5346      5354
      5346      5348      5351      5353      5346      5348      5351      5357
      5346      5354      5357      5351      5346      5354      5357      5359
      5348      5346      5354      5356      5348      5346      5354      5357
      5348      5351      5357      5354      5348      5351      5357      5359
      5350      5348      5346      5354      5350      5348      5351      5353
      5350      5348      5351      5357      5351      5348      5346      5354
      5351      5357      5354      5356      5353      5351      5357      5354
      5353      5351      5357      5359      5356      5354      5357      5359
      5361      5366      5368      5370      5361      5366      5368      5371
      5361      5366      5374      5376      5361      5366      5374      5377
      5363      5361      5366      5368      5363      5361      5366      5374
      5364      5361      5366      5368      5364      5361      5366      5374
      5365      5361      5366      5368      5365      5361      5366      5374
      5366      5368      5371      5373      5366      5368      5371      5377
      5366      5374      5377      5371      5366      5374      5377      5379
      5368      5366      5374      5376      5368      5366      5374      5377
      5368      5371      5377      5374      5368      5371      5377      5379
      5370      5368      5366      5374      5370      5368      5371      5373
      5370      5368      5371      5377      5371      5368      5366      5374
      5371      5377      5374      5376      5373      5371      5377      5374
      5373      5371      5377      5379      5376      5374      5377      5379
      5381      5386      5388      5390      5381      5386      5388      5391
      5381      5386      5394      5396      5381      5386      5394      5397
      5383      5381      5386      5388      5383      5381      5386      5394
      5384      5381      5386      5388      5384      5381      5386      5394
      5385      5381      5386      5388      5385      5381      5386      5394
      5386      5388      5391      5393      5386      5388      5391      5397
      5386      5394      5397      5391      5386      5394      5397      5399
      5388      5386      5394      5396      5388      5386      5394      5397
      5388      5391      5397      5394      5388      5391      5397      5399
      5390      5388      5386      5394      5390      5388      5391      5393
      5390      5388      5391      5397      5391      5388      5386      5394
      5391      5397      5394      5396      5393      5391      5397      5394
      5393      5391      5397      5399      5396      5394      5397      5399
      5401      5406      5408      5410      5401      5406      5408      5411
      5401      5406      5414      5416      5401      5406      5414      5417
      5403      5401      5406      5408      5403      5401      5406      5414
      5404      5401      5406      5408      5404      5401      5406      5414
      5405      5401      5406      5408      5405      5401      5406      5414
      5406      5408      5411      5413      5406      5408      5411      5417
      5406      5414      5417      5411      5406      5414      5417      5419
      5408      5406      5414      5416      5408      5406      5414      5417
      5408      5411      5417      5414      5408      5411      5417      5419
      5410      5408      5406      5414      5410      5408      5411      5413
      5410      5408      5411      5417      5411      5408      5406      5414
      5411      5417      5414      5416      5413      5411      5417      5414
      5413      5411      5417      5419      5416      5414      5417      5419
      5421      5426      5428      5430      5421      5426      5428      5431
      5421      5426      5434      5436      5421      5426      5434      5437
      5423      5421      5426      5428      5423      5421      5426      5434
      5424      5421      5426      5428      5424      5421      5426      5434
      5425      5421      5426      5428      5425      5421      5426      5434
      5426      5428      5431      5433      5426      5428      5431      5437
      5426      5434      5437      5431      5426      5434      5437      5439
      5428      5426      5434      5436      5428      5426      5434      5437
      5428      5431      5437      5434      5428      5431      5437      5439
      5430      5428      5426      5434      5430      5428      5431      5433
      5430      5428      5431      5437      5431      5428      5426      5434
      5431      5437      5434      5436      5433      5431      5437      5434
      5433      5431      5437      5439      5436      5434      5437      5439
      5441      5446      5448      5450      5441      5446      5448      5451
      5441      5446      5454      5456      5441      5446      5454      5457
      5443      5441      5446      5448      5443      5441      5446      5454
      5444      5441      5446      5448      5444      5441      5446      5454
      5445      5441      5446      5448      5445      5441      5446      5454
      5446      5448      5451      5453      5446      5448      5451      5457
      5446      5454      5457      5451      5446      5454      5457      5459
      5448      5446      5454      5456      5448      5446      5454      5457
      5448      5451      5457      5454      5448      5451      5457      5459
      5450      5448      5446      5454      5450      5448      5451      5453
      5450      5448      5451      5457      5451      5448      5446      5454
      5451      5457      5454      5456      5453      5451      5457      5454
      5453      5451      5457      5459      5456      5454      5457      5459
      5461      5466      5468      5470      5461      5466      5468      5471
      5461      5466      5474      5476      5461      5466      5474      5477
      5463      5461      5466      5468      5463      5461      5466      5474
      5464      5461      5466      5468      5464      5461      5466      5474
      5465      5461      5466      5468      5465      5461      5466      5474
      5466      5468      5471      5473      5466      5468      5471      5477
      5466      5474      5477      5471      5466      5474      5477      5479
      5468      5466      5474      5476      5468      5466      5474      5477
      5468      5471      5477      5474      5468      5471      5477      5479
      5470      5468      5466      5474      5470      5468      5471      5473
      5470      5468      5471      5477      5471      5468      5466      5474
      5471      5477      5474      5476      5473      5471      5477      5474
      5473      5471      5477      5479      5476      5474      5477      5479
      5481      5486      5488      5490      5481      5486      5488      5491
      5481      5486      5494      5496      5481      5486      5494      5497
      5483      5481      5486      5488      5483      5481      5486      5494
      5484      5481      5486      5488      5484      5481      5486      5494
      5485      5481      5486      5488      5485      5481      5486      5494
      5486      5488      5491      5493      5486      5488      5491      5497
      5486      5494      5497      5491      5486      5494      5497      5499
      5488      5486      5494      5496      5488      5486      5494      5497
      5488      5491      5497      5494      5488      5491      5497      5499
      5490      5488      5486      5494      5490      5488      5491      5493
      5490      5488      5491      5497      5491      5488      5486      5494
      5491      5497      5494      5496      5493      5491      5497      5494
      5493      5491      5497      5499      5496      5494      5497      5499
      5501      5506      5508      5510      5501      5506      5508      5511
      5501      5506      5514      5516      5501      5506      5514      5517
      5503      5501      5506      5508      5503      5501      5506      5514
      5504      5501      5506      5508      5504      5501      5506      5514
      5505      5501      5506      5508      5505      5501      5506      5514
      5506      5508      5511      5513      5506      5508      5511      5517
      5506      5514      5517      5511      5506      5514      5517      5519
      5508      5506      5514      5516      5508      5506      5514      5517
      5508      5511      5517      5514      5508      5511      5517      5519
      5510      5508      5506      5514      5510      5508      5511      5513
      5510      5508      5511      5517      5511      5508      5506      5514
      5511      5517      5514      5516      5513      5511      5517      5514
      5513      5511      5517      5519      5516      5514      5517      5519
      5521      5526      5528      5530      5521      5526      5528      5531
      5521      5526      5534      5536      5521      5526      5534      5537
      5523      5521      5526      5528      5523      5521      5526      5534
      5524      5521      5526      5528      5524      5521      5526      5534
      5525      5521      5526      5528      5525      5521      5526      5534
      5526      5528      5531      5533      5526      5528      5531      5537
      5526      5534      5537      5531      5526      5534      5537      5539
      5528      5526      5534      5536      5528      5526      5534      5537
      5528      5531      5537      5534      5528      5531      5537      5539
      5530      5528      5526      5534      5530      5528      5531      5533
      5530      5528      5531      5537      5531      5528      5526      5534
      5531      5537      5534      5536      5533      5531      5537      5534
      5533      5531      5537      5539      5536      5534      5537      5539
      5541      5546      5548      5550      5541      5546      5548      5551
      5541      5546      5554      5556      5541      5546      5554      5557
      5543      5541      5546      5548      5543      5541      5546      5554
      5544      5541      5546      5548      5544      5541      5546      5554
      5545      5541      5546      5548      5545      5541      5546      5554
      5546      5548      5551      5553      5546      5548      5551      5557
      5546      5554      5557      5551      5546      5554      5557      5559
      5548      5546      5554      5556      5548      5546      5554      5557
      5548      5551      5557      5554      5548      5551      5557      5559
      5550      5548      5546      5554      5550      5548      5551      5553
      5550      5548      5551      5557      5551      5548      5546      5554
      5551      5557      5554      5556      5553      5551      5557      5554
      5553      5551      5557      5559      5556      5554      5557      5559
      5561      5566      5568      5570      5561      5566      5568      5571
      5561      5566      5574      5576      5561      5566      5574      5577
      5563      5561      5566      5568      5563      5561      5566      5574
      5564      5561      5566      5568      5564      5561      5566      5574
      5565      5561      5566      5568      5565      5561      5566      5574
      5566      5568      5571      5573      5566      5568      5571      5577
      5566      5574      5577      5571      5566      5574      5577      5579
      5568      5566      5574      5576      5568      5566      5574      5577
      5568      5571      5577      5574      5568      5571      5577      5579
      5570      5568      5566      5574      5570      5568      5571      5573
      5570      5568      5571      5577      5571      5568      5566      5574
      5571      5577      5574      5576      5573      5571      5577      5574
      5573      5571      5577      5579      5576      5574      5577      5579
      5581      5586      5588      5590      5581      5586      5588      5591
      5581      5586      5594      5596      5581      5586      5594      5597
      5583      5581      5586      5588      5583      5581      5586      5594
      5584      5581      5586      5588      5584      5581      5586      5594
      5585      5581      5586      5588      5585      5581      5586      5594
      5586      5588      5591      5593      5586      5588      5591      5597
      5586      5594      5597      5591      5586      5594      5597      5599
      5588      5586      5594      5596      5588      5586      5594      5597
      5588      5591      5597      5594      5588      5591      5597      5599
      5590      5588      5586      5594      5590      5588      5591      5593
      5590      5588      5591      5597      5591      5588      5586      5594
      5591      5597      5594      5596      5593      5591      5597      5594
      5593      5591      5597      5599      5596      5594      5597      5599
      5601      5606      5608      5610      5601      5606      5608      5611
      5601      5606      5614      5616      5601      5606      5614      5617
      5603      5601      5606      5608      5603      5601      5606      5614
      5604      5601      5606      5608      5604      5601      5606      5614
      5605      5601      5606      5608      5605      5601      5606      5614
      5606      5608      5611      5613      5606      5608      5611      5617
      5606      5614      5617      5611      5606      5614      5617      5619
      5608      5606      5614      5616      5608      5606      5614      5617
      5608      5611      5617      5614      5608      5611      5617      5619
      5610      5608      5606      5614      5610      5608      5611      5613
      5610      5608      5611      5617      5611      5608      5606      5614
      5611      5617      5614      5616      5613      5611      5617      5614
      5613      5611      5617      5619      5616      5614      5617      5619
      5621      5626      5628      5630      5621      5626      5628      5631
      5621      5626      5634      5636      5621      5626      5634      5637
      5623      5621      5626      5628      5623      5621      5626      5634
      5624      5621      5626      5628      5624      5621      5626      5634
      5625      5621      5626      5628      5625      5621      5626      5634
      5626      5628      5631      5633      5626      5628      5631      5637
      5626      5634      5637      5631      5626      5634      5637      5639
      5628      5626      5634      5636      5628      5626      5634      5637
      5628      5631      5637      5634      5628      5631      5637      5639
      5630      5628      5626      5634      5630      5628      5631      5633
      5630      5628      5631      5637      5631      5628      5626      5634
      5631      5637      5634      5636      5633      5631      5637      5634
      5633      5631      5637      5639      5636      5634      5637      5639
      5641      5646      5648      5650      5641      5646      5648      5651
      5641      5646      5654      5656      5641      5646      5654      5657
      5643      5641      5646      5648      5643      5641      5646      5654
      5644      5641      5646      5648      5644      5641      5646      5654
      5645      5641      5646      5648      5645      5641      5646      5654
      5646      5648      5651      5653      5646      5648      5651      5657
      5646      5654      5657      5651      5646      5654      5657      5659
      5648      5646      5654      5656      5648      5646      5654      5657
      5648      5651      5657      5654      5648      5651      5657      5659
      5650      5648      5646      5654      5650      5648      5651      5653
      5650      5648      5651      5657      5651      5648      5646      5654
      5651      5657      5654      5656      5653      5651      5657      5654
      5653      5651      5657      5659      5656      5654      5657      5659
      5661      5666      5668      5670      5661      5666      5668      5671
      5661      5666      5674      5676      5661      5666      5674      5677
      5663      5661      5666      5668      5663      5661      5666      5674
      5664      5661      5666      5668      5664      5661      5666      5674
      5665      5661      5666      5668      5665      5661      5666      5674
      5666      5668      5671      5673      5666      5668      5671      5677
      5666      5674      5677      5671      5666      5674      5677      5679
      5668      5666      5674      5676      5668      5666      5674      5677
      5668      5671      5677      5674      5668      5671      5677      5679
      5670      5668      5666      5674      5670      5668      5671      5673
      5670      5668      5671      5677      5671      5668      5666      5674
      5671      5677      5674      5676      5673      5671      5677      5674
      5673      5671      5677      5679      5676      5674      5677      5679
      5681      5686      5688      5690      5681      5686      5688      5691
      5681      5686      5694      5696      5681      5686      5694      5697
      5683      5681      5686      5688      5683      5681      5686      5694
      5684      5681      5686      5688      5684      5681      5686      5694
      5685      5681      5686      5688      5685      5681      5686      5694
      5686      5688      5691      5693      5686      5688      5691      5697
      5686      5694      5697      5691      5686      5694      5697      5699
      5688      5686      5694      5696      5688      5686      5694      5697
      5688      5691      5697      5694      5688      5691      5697      5699
      5690      5688      5686      5694      5690      5688      5691      5693
      5690      5688      5691      5697      5691      5688      5686      5694
      5691      5697      5694      5696      5693      5691      5697      5694
      5693      5691      5697      5699      5696      5694      5697      5699
      5701      5706      5708      5710      5701      5706      5708      5711
      5701      5706      5714      5716      5701      5706      5714      5717
      5703      5701      5706      5708      5703      5701      5706      5714
      5704      5701      5706      5708      5704      5701      5706      5714
      5705      5701      5706      5708      5705      5701      5706      5714
      5706      5708      5711      5713      5706      5708      5711      5717
      5706      5714      5717      5711      5706      5714      5717      5719
      5708      5706      5714      5716      5708      5706      5714      5717
      5708      5711      5717      5714      5708      5711      5717      5719
      5710      5708      5706      5714      5710      5708      5711      5713
      5710      5708      5711      5717      5711      5708      5706      5714
      5711      5717      5714      5716      5713      5711      5717      5714
      5713      5711      5717      5719      5716      5714      5717      5719
      5721      5726      5728      5730      5721      5726      5728      5731
      5721      5726      5734      5736      5721      5726      5734      5737
      5723      5721      5726      5728      5723      5721      5726      5734
      5724      5721      5726      5728      5724      5721      5726      5734
      5725      5721      5726      5728      5725      5721      5726      5734
      5726      5728      5731      5733      5726      5728      5731      5737
      5726      5734      5737      5731      5726      5734      5737      5739
      5728      5726      5734      5736      5728      5726      5734      5737
      5728      5731      5737      5734      5728      5731      5737      5739
      5730      5728      5726      5734      5730      5728      5731      5733
      5730      5728      5731      5737      5731      5728      5726      5734
      5731      5737      5734      5736      5733      5731      5737      5734
      5733      5731      5737      5739      5736      5734      5737      5739
      5741      5746      5748      5750      5741      5746      5748      5751
      5741      5746      5754      5756      5741      5746      5754      5757
      5743      5741      5746      5748      5743      5741      5746      5754
      5744      5741      5746      5748      5744      5741      5746      5754
      5745      5741      5746      5748      5745      5741      5746      5754
      5746      5748      5751      5753      5746      5748      5751      5757
      5746      5754      5757      5751      5746      5754      5757      5759
      5748      5746      5754      5756      5748      5746      5754      5757
      5748      5751      5757      5754      5748      5751      5757      5759
      5750      5748      5746      5754      5750      5748      5751      5753
      5750      5748      5751      5757      5751      5748      5746      5754
      5751      5757      5754      5756      5753      5751      5757      5754
      5753      5751      5757      5759      5756      5754      5757      5759
      5761      5766      5768      5770      5761      5766      5768      5771
      5761      5766      5774      5776      5761      5766      5774      5777
      5763      5761      5766      5768      5763      5761      5766      5774
      5764      5761      5766      5768      5764      5761      5766      5774
      5765      5761      5766      5768      5765      5761      5766      5774
      5766      5768      5771      5773      5766      5768      5771      5777
      5766      5774      5777      5771      5766      5774      5777      5779
      5768      5766      5774      5776      5768      5766      5774      5777
      5768      5771      5777      5774      5768      5771      5777      5779
      5770      5768      5766      5774      5770      5768      5771      5773
      5770      5768      5771      5777      5771      5768      5766      5774
      5771      5777      5774      5776      5773      5771      5777      5774
      5773      5771      5777      5779      5776      5774      5777      5779
      5781      5786      5788      5790      5781      5786      5788      5791
      5781      5786      5794      5796      5781      5786      5794      5797
      5783      5781      5786      5788      5783      5781      5786      5794
      5784      5781      5786      5788      5784      5781      5786      5794
      5785      5781      5786      5788      5785      5781      5786      5794
      5786      5788      5791      5793      5786      5788      5791      5797
      5786      5794      5797      5791      5786      5794      5797      5799
      5788      5786      5794      5796      5788      5786      5794      5797
      5788      5791      5797      5794      5788      5791      5797      5799
      5790      5788      5786      5794      5790      5788      5791      5793
      5790      5788      5791      5797      5791      5788      5786      5794
      5791      5797      5794      5796      5793      5791      5797      5794
      5793      5791      5797      5799      5796      5794      5797      5799
      5803      5801      5810      5812      5805      5803      5801      5808
      5805      5803      5801      5810      5806      5803      5801      5808
      5806      5803      5801      5810      5807      5803      5801      5808
      5807      5803      5801      5810      5808      5801      5810      5812
      5819      5817      5826      5828      5821      5819      5817      5824
      5821      5819      5817      5826      5822      5819      5817      5824
      5822      5819      5817      5826      5823      5819      5817      5824
      5823      5819      5817      5826      5824      5817      5826      5828
      5835      5833      5842      5844      5837      5835      5833      5840
      5837      5835      5833      5842      5838      5835      5833      5840
      5838      5835      5833      5842      5839      5835      5833      5840
      5839      5835      5833      5842      5840      5833      5842      5844
      5851      5849      5858      5860      5853      5851      5849      5856
      5853      5851      5849      5858      5854      5851      5849      5856
      5854      5851      5849      5858      5855      5851      5849      5856
      5855      5851      5849      5858      5856      5849      5858      5860
      5867      5865      5874      5876      5869      5867      5865      5872
      5869      5867      5865      5874      5870      5867      5865      5872
      5870      5867      5865      5874      5871      5867      5865      5872
      5871      5867      5865      5874      5872      5865      5874      5876
      5883      5881      5890      5892      5885      5883      5881      5888
      5885      5883      5881      5890      5886      5883      5881      5888
      5886      5883      5881      5890      5887      5883      5881      5888
      5887      5883      5881      5890      5888      5881      5890      5892
      5899      5897      5906      5908      5901      5899      5897      5904
      5901      5899      5897      5906      5902      5899      5897      5904
      5902      5899      5897      5906      5903      5899      5897      5904
      5903      5899      5897      5906      5904      5897      5906      5908
      5915      5913      5922      5924      5917      5915      5913      5920
      5917      5915      5913      5922      5918      5915      5913      5920
      5918      5915      5913      5922      5919      5915      5913      5920
      5919      5915      5913      5922      5920      5913      5922      5924
      5931      5929      5938      5940      5933      5931      5929      5936
      5933      5931      5929      5938      5934      5931      5929      5936
      5934      5931      5929      5938      5935      5931      5929      5936
      5935      5931      5929      5938      5936      5929      5938      5940
      5947      5945      5954      5956      5949      5947      5945      5952
      5949      5947      5945      5954      5950      5947      5945      5952
      5950      5947      5945      5954      5951      5947      5945      5952
      5951      5947      5945      5954      5952      5945      5954      5956
      5963      5961      5970      5972      5965      5963      5961      5968
      5965      5963      5961      5970      5966      5963      5961      5968
      5966      5963      5961      5970      5967      5963      5961      5968
      5967      5963      5961      5970      5968      5961      5970      5972
      5979      5977      5986      5988      5981      5979      5977      5984
      5981      5979      5977      5986      5982      5979      5977      5984
      5982      5979      5977      5986      5983      5979      5977      5984
      5983      5979      5977      5986      5984      5977      5986      5988
      5995      5993      6002      6004      5997      5995      5993      6000
      5997      5995      5993      6002      5998      5995      5993      6000
      5998      5995      5993      6002      5999      5995      5993      6000
      5999      5995      5993      6002      6000      5993      6002      6004
      6011      6009      6018      6020      6013      6011      6009      6016
      6013      6011      6009      6018      6014      6011      6009      6016
      6014      6011      6009      6018      6015      6011      6009      6016
      6015      6011      6009      6018      6016      6009      6018      6020
      6027      6025      6034      6036      6029      6027      6025      6032
      6029      6027      6025      6034      6030      6027      6025      6032
      6030      6027      6025      6034      6031      6027      6025      6032
      6031      6027      6025      6034      6032      6025      6034      6036
      6043      6041      6050      6052      6045      6043      6041      6048
      6045      6043      6041      6050      6046      6043      6041      6048
      6046      6043      6041      6050      6047      6043      6041      6048
      6047      6043      6041      6050      6048      6041      6050      6052
      6059      6057      6066      6068      6061      6059      6057      6064
      6061      6059      6057      6066      6062      6059      6057      6064
      6062      6059      6057      6066      6063      6059      6057      6064
      6063      6059      6057      6066      6064      6057      6066      6068
      6075      6073      6082      6084      6077      6075      6073      6080
      6077      6075      6073      6082      6078      6075      6073      6080
      6078      6075      6073      6082      6079      6075      6073      6080
      6079      6075      6073      6082      6080      6073      6082      6084
      6091      6089      6098      6100      6093      6091      6089      6096
      6093      6091      6089      6098      6094      6091      6089      6096
      6094      6091      6089      6098      6095      6091      6089      6096
      6095      6091      6089      6098      6096      6089      6098      6100
      6107      6105      6114      6116      6109      6107      6105      6112
      6109      6107      6105      6114      6110      6107      6105      6112
      6110      6107      6105      6114      6111      6107      6105      6112
      6111      6107      6105      6114      6112      6105      6114      6116
      6123      6121      6130      6132      6125      6123      6121      6128
      6125      6123      6121      6130      6126      6123      6121      6128
      6126      6123      6121      6130      6127      6123      6121      6128
      6127      6123      6121      6130      6128      6121      6130      6132
      6139      6137      6146      6148      6141      6139      6137      6144
      6141      6139      6137      6146      6142      6139      6137      6144
      6142      6139      6137      6146      6143      6139      6137      6144
      6143      6139      6137      6146      6144      6137      6146      6148
      6155      6153      6162      6164      6157      6155      6153      6160
      6157      6155      6153      6162      6158      6155      6153      6160
      6158      6155      6153      6162      6159      6155      6153      6160
      6159      6155      6153      6162      6160      6153      6162      6164
      6171      6169      6178      6180      6173      6171      6169      6176
      6173      6171      6169      6178      6174      6171      6169      6176
      6174      6171      6169      6178      6175      6171      6169      6176
      6175      6171      6169      6178      6176      6169      6178      6180
      6187      6185      6194      6196      6189      6187      6185      6192
      6189      6187      6185      6194      6190      6187      6185      6192
      6190      6187      6185      6194      6191      6187      6185      6192
      6191      6187      6185      6194      6192      6185      6194      6196
      6203      6201      6210      6212      6205      6203      6201      6208
      6205      6203      6201      6210      6206      6203      6201      6208
      6206      6203      6201      6210      6207      6203      6201      6208
      6207      6203      6201      6210      6208      6201      6210      6212
      6219      6217      6226      6228      6221      6219      6217      6224
      6221      6219      6217      6226      6222      6219      6217      6224
      6222      6219      6217      6226      6223      6219      6217      6224
      6223      6219      6217      6226      6224      6217      6226      6228
      6235      6233      6242      6244      6237      6235      6233      6240
      6237      6235      6233      6242      6238      6235      6233      6240
      6238      6235      6233      6242      6239      6235      6233      6240
      6239      6235      6233      6242      6240      6233      6242      6244
      6251      6249      6258      6260      6253      6251      6249      6256
      6253      6251      6249      6258      6254      6251      6249      6256
      6254      6251      6249      6258      6255      6251      6249      6256
      6255      6251      6249      6258      6256      6249      6258      6260
      6267      6265      6274      6276      6269      6267      6265      6272
      6269      6267      6265      6274      6270      6267      6265      6272
      6270      6267      6265      6274      6271      6267      6265      6272
      6271      6267      6265      6274      6272      6265      6274      6276
      6283      6281      6290      6292      6285      6283      6281      6288
      6285      6283      6281      6290      6286      6283      6281      6288
      6286      6283      6281      6290      6287      6283      6281      6288
      6287      6283      6281      6290      6288      6281      6290      6292
      6299      6297      6306      6308      6301      6299      6297      6304
      6301      6299      6297      6306      6302      6299      6297      6304
      6302      6299      6297      6306      6303      6299      6297      6304
      6303      6299      6297      6306      6304      6297      6306      6308
      6315      6313      6322      6324      6317      6315      6313      6320
      6317      6315      6313      6322      6318      6315      6313      6320
      6318      6315      6313      6322      6319      6315      6313      6320
      6319      6315      6313      6322      6320      6313      6322      6324
      6331      6329      6338      6340      6333      6331      6329      6336
      6333      6331      6329      6338      6334      6331      6329      6336
      6334      6331      6329      6338      6335      6331      6329      6336
      6335      6331      6329      6338      6336      6329      6338      6340
      6347      6345      6354      6356      6349      6347      6345      6352
      6349      6347      6345      6354      6350      6347      6345      6352
      6350      6347      6345      6354      6351      6347      6345      6352
      6351      6347      6345      6354      6352      6345      6354      6356
      6363      6361      6370      6372      6365      6363      6361      6368
      6365      6363      6361      6370      6366      6363      6361      6368
      6366      6363      6361      6370      6367      6363      6361      6368
      6367      6363      6361      6370      6368      6361      6370      6372
      6379      6377      6386      6388      6381      6379      6377      6384
      6381      6379      6377      6386      6382      6379      6377      6384
      6382      6379      6377      6386      6383      6379      6377      6384
      6383      6379      6377      6386      6384      6377      6386      6388
      6395      6393      6402      6404      6397      6395      6393      6400
      6397      6395      6393      6402      6398      6395      6393      6400
      6398      6395      6393      6402      6399      6395      6393      6400
      6399      6395      6393      6402      6400      6393      6402      6404
      6411      6409      6418      6420      6413      6411      6409      6416
      6413      6411      6409      6418      6414      6411      6409      6416
      6414      6411      6409      6418      6415      6411      6409      6416
      6415      6411      6409      6418      6416      6409      6418      6420
      6427      6425      6434      6436      6429      6427      6425      6432
      6429      6427      6425      6434      6430      6427      6425      6432
      6430      6427      6425      6434      6431      6427      6425      6432
      6431      6427      6425      6434      6432      6425      6434      6436
      6443      6441      6450      6452      6445      6443      6441      6448
      6445      6443      6441      6450      6446      6443      6441      6448
      6446      6443      6441      6450      6447      6443      6441      6448
      6447      6443      6441      6450      6448      6441      6450      6452
      6459      6457      6466      6468      6461      6459      6457      6464
      6461      6459      6457      6466      6462      6459      6457      6464
      6462      6459      6457      6466      6463      6459      6457      6464
      6463      6459      6457      6466      6464      6457      6466      6468
      6475      6473      6482      6484      6477      6475      6473      6480
      6477      6475      6473      6482      6478      6475      6473      6480
      6478      6475      6473      6482      6479      6475      6473      6480
      6479      6475      6473      6482      6480      6473      6482      6484
      6491      6489      6498      6500      6493      6491      6489      6496
      6493      6491      6489      6498      6494      6491      6489      6496
      6494      6491      6489      6498      6495      6491      6489      6496
      6495      6491      6489      6498      6496      6489      6498      6500
      6507      6505      6514      6516      6509      6507      6505      6512
      6509      6507      6505      6514      6510      6507      6505      6512
      6510      6507      6505      6514      6511      6507      6505      6512
      6511      6507      6505      6514      6512      6505      6514      6516
      6523      6521      6530      6532      6525      6523      6521      6528
      6525      6523      6521      6530      6526      6523      6521      6528
      6526      6523      6521      6530      6527      6523      6521      6528
      6527      6523      6521      6530      6528      6521      6530      6532
      6539      6537      6546      6548      6541      6539      6537      6544
      6541      6539      6537      6546      6542      6539      6537      6544
      6542      6539      6537      6546      6543      6539      6537      6544
      6543      6539      6537      6546      6544      6537      6546      6548
      6555      6553      6562      6564      6557      6555      6553      6560
      6557      6555      6553      6562      6558      6555      6553      6560
      6558      6555      6553      6562      6559      6555      6553      6560
      6559      6555      6553      6562      6560      6553      6562      6564
      6571      6569      6578      6580      6573      6571      6569      6576
      6573      6571      6569      6578      6574      6571      6569      6576
      6574      6571      6569      6578      6575      6571      6569      6576
      6575      6571      6569      6578      6576      6569      6578      6580
      6587      6585      6594      6596      6589      6587      6585      6592
      6589      6587      6585      6594      6590      6587      6585      6592
      6590      6587      6585      6594      6591      6587      6585      6592
      6591      6587      6585      6594      6592      6585      6594      6596
      6603      6601      6610      6612      6605      6603      6601      6608
      6605      6603      6601      6610      6606      6603      6601      6608
      6606      6603      6601      6610      6607      6603      6601      6608
      6607      6603      6601      6610      6608      6601      6610      6612
      6619      6617      6626      6628      6621      6619      6617      6624
      6621      6619      6617      6626      6622      6619      6617      6624
      6622      6619      6617      6626      6623      6619      6617      6624
      6623      6619      6617      6626      6624      6617      6626      6628
      6635      6633      6642      6644      6637      6635      6633      6640
      6637      6635      6633      6642      6638      6635      6633      6640
      6638      6635      6633      6642      6639      6635      6633      6640
      6639      6635      6633      6642      6640      6633      6642      6644
      6651      6649      6658      6660      6653      6651      6649      6656
      6653      6651      6649      6658      6654      6651      6649      6656
      6654      6651      6649      6658      6655      6651      6649      6656
      6655      6651      6649      6658      6656      6649      6658      6660
      6667      6665      6674      6676      6669      6667      6665      6672
      6669      6667      6665      6674      6670      6667      6665      6672
      6670      6667      6665      6674      6671      6667      6665      6672
      6671      6667      6665      6674      6672      6665      6674      6676
      6683      6681      6690      6692      6685      6683      6681      6688
      6685      6683      6681      6690      6686      6683      6681      6688
      6686      6683      6681      6690      6687      6683      6681      6688
      6687      6683      6681      6690      6688      6681      6690      6692
      6699      6697      6706      6708      6701      6699      6697      6704
      6701      6699      6697      6706      6702      6699      6697      6704
      6702      6699      6697      6706      6703      6699      6697      6704
      6703      6699      6697      6706      6704      6697      6706      6708
      6715      6713      6722      6724      6717      6715      6713      6720
      6717      6715      6713      6722      6718      6715      6713      6720
      6718      6715      6713      6722      6719      6715      6713      6720
      6719      6715      6713      6722      6720      6713      6722      6724
      6731      6729      6738      6740      6733      6731      6729      6736
      6733      6731      6729      6738      6734      6731      6729      6736
      6734      6731      6729      6738      6735      6731      6729      6736
      6735      6731      6729      6738      6736      6729      6738      6740
      6747      6745      6754      6756      6749      6747      6745      6752
      6749      6747      6745      6754      6750      6747      6745      6752
      6750      6747      6745      6754      6751      6747      6745      6752
      6751      6747      6745      6754      6752      6745      6754      6756
      6763      6761      6770      6772      6765      6763      6761      6768
      6765      6763      6761      6770      6766      6763      6761      6768
      6766      6763      6761      6770      6767      6763      6761      6768
      6767      6763      6761      6770      6768      6761      6770      6772
      6779      6777      6786      6788      6781      6779      6777      6784
      6781      6779      6777      6786      6782      6779      6777      6784
      6782      6779      6777      6786      6783      6779      6777      6784
      6783      6779      6777      6786      6784      6777      6786      6788
      6795      6793      6802      6804      6797      6795      6793      6800
      6797      6795      6793      6802      6798      6795      6793      6800
      6798      6795      6793      6802      6799      6795      6793      6800
      6799      6795      6793      6802      6800      6793      6802      6804
      6811      6809      6818      6820      6813      6811      6809      6816
      6813      6811      6809      6818      6814      6811      6809      6816
      6814      6811      6809      6818      6815      6811      6809      6816
      6815      6811      6809      6818      6816      6809      6818      6820
      6827      6825      6834      6836      6829      6827      6825      6832
      6829      6827      6825      6834      6830      6827      6825      6832
      6830      6827      6825      6834      6831      6827      6825      6832
      6831      6827      6825      6834      6832      6825      6834      6836
      6843      6841      6850      6852      6845      6843      6841      6848
      6845      6843      6841      6850      6846      6843      6841      6848
      6846      6843      6841      6850      6847      6843      6841      6848
      6847      6843      6841      6850      6848      6841      6850      6852
      6859      6857      6866      6868      6861      6859      6857      6864
      6861      6859      6857      6866      6862      6859      6857      6864
      6862      6859      6857      6866      6863      6859      6857      6864
      6863      6859      6857      6866      6864      6857      6866      6868
      6875      6873      6882      6884      6877      6875      6873      6880
      6877      6875      6873      6882      6878      6875      6873      6880
      6878      6875      6873      6882      6879      6875      6873      6880
      6879      6875      6873      6882      6880      6873      6882      6884
      6891      6889      6898      6900      6893      6891      6889      6896
      6893      6891      6889      6898      6894      6891      6889      6896
      6894      6891      6889      6898      6895      6891      6889      6896
      6895      6891      6889      6898      6896      6889      6898      6900
      6907      6905      6914      6916      6909      6907      6905      6912
      6909      6907      6905      6914      6910      6907      6905      6912
      6910      6907      6905      6914      6911      6907      6905      6912
      6911      6907      6905      6914      6912      6905      6914      6916
      6923      6921      6930      6932      6925      6923      6921      6928
      6925      6923      6921      6930      6926      6923      6921      6928
      6926      6923      6921      6930      6927      6923      6921      6928
      6927      6923      6921      6930      6928      6921      6930      6932
      6939      6937      6946      6948      6941      6939      6937      6944
      6941      6939      6937      6946      6942      6939      6937      6944
      6942      6939      6937      6946      6943      6939      6937      6944
      6943      6939      6937      6946      6944      6937      6946      6948
      6955      6953      6962      6964      6957      6955      6953      6960
      6957      6955      6953      6962      6958      6955      6953      6960
      6958      6955      6953      6962      6959      6955      6953      6960
      6959      6955      6953      6962      6960      6953      6962      6964
      6971      6969      6978      6980      6973      6971      6969      6976
      6973      6971      6969      6978      6974      6971      6969      6976
      6974      6971      6969      6978      6975      6971      6969      6976
      6975      6971      6969      6978      6976      6969      6978      6980
      6987      6985      6994      6996      6989      6987      6985      6992
      6989      6987      6985      6994      6990      6987      6985      6992
      6990      6987      6985      6994      6991      6987      6985      6992
      6991      6987      6985      6994      6992      6985      6994      6996
      7003      7001      7010      7012      7005      7003      7001      7008
      7005      7003      7001      7010      7006      7003      7001      7008
      7006      7003      7001      7010      7007      7003      7001      7008
      7007      7003      7001      7010      7008      7001      7010      7012
      7019      7017      7026      7028      7021      7019      7017      7024
      7021      7019      7017      7026      7022      7019      7017      7024
      7022      7019      7017      7026      7023      7019      7017      7024
      7023      7019      7017      7026      7024      7017      7026      7028
      7035      7033      7042      7044      7037      7035      7033      7040
      7037      7035      7033      7042      7038      7035      7033      7040
      7038      7035      7033      7042      7039      7035      7033      7040
      7039      7035      7033      7042      7040      7033      7042      7044
      7051      7049      7058      7060      7053      7051      7049      7056
      7053      7051      7049      7058      7054      7051      7049      7056
      7054      7051      7049      7058      7055      7051      7049      7056
      7055      7051      7049      7058      7056      7049      7058      7060
      7067      7065      7074      7076      7069      7067      7065      7072
      7069      7067      7065      7074      7070      7067      7065      7072
      7070      7067      7065      7074      7071      7067      7065      7072
      7071      7067      7065      7074      7072      7065      7074      7076
      7083      7081      7090      7092      7085      7083      7081      7088
      7085      7083      7081      7090      7086      7083      7081      7088
      7086      7083      7081      7090      7087      7083      7081      7088
      7087      7083      7081      7090      7088      7081      7090      7092
      7099      7097      7106      7108      7101      7099      7097      7104
      7101      7099      7097      7106      7102      7099      7097      7104
      7102      7099      7097      7106      7103      7099      7097      7104
      7103      7099      7097      7106      7104      7097      7106      7108
      7115      7113      7122      7124      7117      7115      7113      7120
      7117      7115      7113      7122      7118      7115      7113      7120
      7118      7115      7113      7122      7119      7115      7113      7120
      7119      7115      7113      7122      7120      7113      7122      7124
      7131      7129      7138      7140      7133      7131      7129      7136
      7133      7131      7129      7138      7134      7131      7129      7136
      7134      7131      7129      7138      7135      7131      7129      7136
      7135      7131      7129      7138      7136      7129      7138      7140
      7147      7145      7154      7156      7149      7147      7145      7152
      7149      7147      7145      7154      7150      7147      7145      7152
      7150      7147      7145      7154      7151      7147      7145      7152
      7151      7147      7145      7154      7152      7145      7154      7156
      7163      7161      7170      7172      7165      7163      7161      7168
      7165      7163      7161      7170      7166      7163      7161      7168
      7166      7163      7161      7170      7167      7163      7161      7168
      7167      7163      7161      7170      7168      7161      7170      7172
      7179      7177      7186      7188      7181      7179      7177      7184
      7181      7179      7177      7186      7182      7179      7177      7184
      7182      7179      7177      7186      7183      7179      7177      7184
      7183      7179      7177      7186      7184      7177      7186      7188
      7195      7193      7202      7204      7197      7195      7193      7200
      7197      7195      7193      7202      7198      7195      7193      7200
      7198      7195      7193      7202      7199      7195      7193      7200
      7199      7195      7193      7202      7200      7193      7202      7204
      7211      7209      7218      7220      7213      7211      7209      7216
      7213      7211      7209      7218      7214      7211      7209      7216
      7214      7211      7209      7218      7215      7211      7209      7216
      7215      7211      7209      7218      7216      7209      7218      7220
      7227      7225      7234      7236      7229      7227      7225      7232
      7229      7227      7225      7234      7230      7227      7225      7232
      7230      7227      7225      7234      7231      7227      7225      7232
      7231      7227      7225      7234      7232      7225      7234      7236
      7241      7246      7248      7250      7241      7246      7248      7251
      7241      7246      7254      7256      7241      7246      7254      7257
      7243      7241      7246      7248      7243      7241      7246      7254
      7244      7241      7246      7248      7244      7241      7246      7254
      7245      7241      7246      7248      7245      7241      7246      7254
      7246      7248      7251      7253      7246      7248      7251      7257
      7246      7254      7257      7251      7246      7254      7257      7259
      7248      7246      7254      7256      7248      7246      7254      7257
      7248      7251      7257      7254      7248      7251      7257      7259
      7250      7248      7246      7254      7250      7248      7251      7253
      7250      7248      7251      7257      7251      7248      7246      7254
      7251      7257      7254      7256      7253      7251      7257      7254
      7253      7251      7257      7259      7256      7254      7257      7259
      7261      7266      7268      7270      7261      7266      7268      7271
      7261      7266      7274      7276      7261      7266      7274      7277
      7263      7261      7266      7268      7263      7261      7266      7274
      7264      7261      7266      7268      7264      7261      7266      7274
      7265      7261      7266      7268      7265      7261      7266      7274
      7266      7268      7271      7273      7266      7268      7271      7277
      7266      7274      7277      7271      7266      7274      7277      7279
      7268      7266      7274      7276      7268      7266      7274      7277
      7268      7271      7277      7274      7268      7271      7277      7279
      7270      7268      7266      7274      7270      7268      7271      7273
      7270      7268      7271      7277      7271      7268      7266      7274
      7271      7277      7274      7276      7273      7271      7277      7274
      7273      7271      7277      7279      7276      7274      7277      7279
      7281      7286      7288      7290      7281      7286      7288      7291
      7281      7286      7294      7296      7281      7286      7294      7297
      7283      7281      7286      7288      7283      7281      7286      7294
      7284      7281      7286      7288      7284      7281      7286      7294
      7285      7281      7286      7288      7285      7281      7286      7294
      7286      7288      7291      7293      7286      7288      7291      7297
      7286      7294      7297      7291      7286      7294      7297      7299
      7288      7286      7294      7296      7288      7286      7294      7297
      7288      7291      7297      7294      7288      7291      7297      7299
      7290      7288      7286      7294      7290      7288      7291      7293
      7290      7288      7291      7297      7291      7288      7286      7294
      7291      7297      7294      7296      7293      7291      7297      7294
      7293      7291      7297      7299      7296      7294      7297      7299
      7301      7306      7308      7310      7301      7306      7308      7311
      7301      7306      7314      7316      7301      7306      7314      7317
      7303      7301      7306      7308      7303      7301      7306      7314
      7304      7301      7306      7308      7304      7301      7306      7314
      7305      7301      7306      7308      7305      7301      7306      7314
      7306      7308      7311      7313      7306      7308      7311      7317
      7306      7314      7317      7311      7306      7314      7317      7319
      7308      7306      7314      7316      7308      7306      7314      7317
      7308      7311      7317      7314      7308      7311      7317      7319
      7310      7308      7306      7314      7310      7308      7311      7313
      7310      7308      7311      7317      7311      7308      7306      7314
      7311      7317      7314      7316      7313      7311      7317      7314
      7313      7311      7317      7319      7316      7314      7317      7319
      7321      7326      7328      7330      7321      7326      7328      7331
      7321      7326      7334      7336      7321      7326      7334      7337
      7323      7321      7326      7328      7323      7321      7326      7334
      7324      7321      7326      7328      7324      7321      7326      7334
      7325      7321      7326      7328      7325      7321      7326      7334
      7326      7328      7331      7333      7326      7328      7331      7337
      7326      7334      7337      7331      7326      7334      7337      7339
      7328      7326      7334      7336      7328      7326      7334      7337
      7328      7331      7337      7334      7328      7331      7337      7339
      7330      7328      7326      7334      7330      7328      7331      7333
      7330      7328      7331      7337      7331      7328      7326      7334
      7331      7337      7334      7336      7333      7331      7337      7334
      7333      7331      7337      7339      7336      7334      7337      7339
      7341      7346      7348      7350      7341      7346      7348      7351
      7341      7346      7354      7356      7341      7346      7354      7357
      7343      7341      7346      7348      7343      7341      7346      7354
      7344      7341      7346      7348      7344      7341      7346      7354
      7345      7341      7346      7348      7345      7341      7346      7354
      7346      7348      7351      7353      7346      7348      7351      7357
      7346      7354      7357      7351      7346      7354      7357      7359
      7348      7346      7354      7356      7348      7346      7354      7357
      7348      7351      7357      7354      7348      7351      7357      7359
      7350      7348      7346      7354      7350      7348      7351      7353
      7350      7348      7351      7357      7351      7348      7346      7354
      7351      7357      7354      7356      7353      7351      7357      7354
      7353      7351      7357      7359      7356      7354      7357      7359
      7361      7366      7368      7370      7361      7366      7368      7371
      7361      7366      7374      7376      7361      7366      7374      7377
      7363      7361      7366      7368      7363      7361      7366      7374
      7364      7361      7366      7368      7364      7361      7366      7374
      7365      7361      7366      7368      7365      7361      7366      7374
      7366      7368      7371      7373      7366      7368      7371      7377
      7366      7374      7377      7371      7366      7374      7377      7379
      7368      7366      7374      7376      7368      7366      7374      7377
      7368      7371      7377      7374      7368      7371      7377      7379
      7370      7368      7366      7374      7370      7368      7371      7373
      7370      7368      7371      7377      7371      7368      7366      7374
      7371      7377      7374      7376      7373      7371      7377      7374
      7373      7371      7377      7379      7376      7374      7377      7379
      7381      7386      7388      7390      7381      7386      7388      7391
      7381      7386      7394      7396      7381      7386      7394      7397
      7383      7381      7386      7388      7383      7381      7386      7394
      7384      7381      7386      7388      7384      7381      7386      7394
      7385      7381      7386      7388      7385      7381      7386      7394
      7386      7388      7391      7393      7386      7388      7391      7397
      7386      7394      7397      7391      7386      7394      7397      7399
      7388      7386      7394      7396      7388      7386      7394      7397
      7388      7391      7397      7394      7388      7391      7397      7399
      7390      7388      7386      7394      7390      7388      7391      7393
      7390      7388      7391      7397      7391      7388      7386      7394
      7391      7397      7394      7396      7393      7391      7397      7394
      7393      7391      7397      7399      7396      7394      7397      7399
      7401      7406      7408      7410      7401      7406      7408      7411
      7401      7406      7414      7416      7401      7406      7414      7417
      7403      7401      7406      7408      7403      7401      7406      7414
      7404      7401      7406      7408      7404      7401      7406      7414
      7405      7401      7406      7408      7405      7401      7406      7414
      7406      7408      7411      7413      7406      7408      7411      7417
      7406      7414      7417      7411      7406      7414      7417      7419
      7408      7406      7414      7416      7408      7406      7414      7417
      7408      7411      7417      7414      7408      7411      7417      7419
      7410      7408      7406      7414      7410      7408      7411      7413
      7410      7408      7411      7417      7411      7408      7406      7414
      7411      7417      7414      7416      7413      7411      7417      7414
      7413      7411      7417      7419      7416      7414      7417      7419
      7421      7426      7428      7430      7421      7426      7428      7431
      7421      7426      7434      7436      7421      7426      7434      7437
      7423      7421      7426      7428      7423      7421      7426      7434
      7424      7421      7426      7428      7424      7421      7426      7434
      7425      7421      7426      7428      7425      7421      7426      7434
      7426      7428      7431      7433      7426      7428      7431      7437
      7426      7434      7437      7431      7426      7434      7437      7439
      7428      7426      7434      7436      7428      7426      7434      7437
      7428      7431      7437      7434      7428      7431      7437      7439
      7430      7428      7426      7434      7430      7428      7431      7433
      7430      7428      7431      7437      7431      7428      7426      7434
      7431      7437      7434      7436      7433      7431      7437      7434
      7433      7431      7437      7439      7436      7434      7437      7439
      7441      7446      7448      7450      7441      7446      7448      7451
      7441      7446      7454      7456      7441      7446      7454      7457
      7443      7441      7446      7448      7443      7441      7446      7454
      7444      7441      7446      7448      7444      7441      7446      7454
      7445      7441      7446      7448      7445      7441      7446      7454
      7446      7448      7451      7453      7446      7448      7451      7457
      7446      7454      7457      7451      7446      7454      7457      7459
      7448      7446      7454      7456      7448      7446      7454      7457
      7448      7451      7457      7454      7448      7451      7457      7459
      7450      7448      7446      7454      7450      7448      7451      7453
      7450      7448      7451      7457      7451      7448      7446      7454
      7451      7457      7454      7456      7453      7451      7457      7454
      7453      7451      7457      7459      7456      7454      7457      7459
      7461      7466      7468      7470      7461      7466      7468      7471
      7461      7466      7474      7476      7461      7466      7474      7477
      7463      7461      7466      7468      7463      7461      7466      7474
      7464      7461      7466      7468      7464      7461      7466      7474
      7465      7461      7466      7468      7465      7461      7466      7474
      7466      7468      7471      7473      7466      7468      7471      7477
      7466      7474      7477      7471      7466      7474      7477      7479
      7468      7466      7474      7476      7468      7466      7474      7477
      7468      7471      7477      7474      7468      7471      7477      7479
      7470      7468      7466      7474      7470      7468      7471      7473
      7470      7468      7471      7477      7471      7468      7466      7474
      7471      7477      7474      7476      7473      7471      7477      7474
      7473      7471      7477      7479      7476      7474      7477      7479
      7481      7486      7488      7490      7481      7486      7488      7491
      7481      7486      7494      7496      7481      7486      7494      7497
      7483      7481      7486      7488      7483      7481      7486      7494
      7484      7481      7486      7488      7484      7481      7486      7494
      7485      7481      7486      7488      7485      7481      7486      7494
      7486      7488      7491      7493      7486      7488      7491      7497
      7486      7494      7497      7491      7486      7494      7497      7499
      7488      7486      7494      7496      7488      7486      7494      7497
      7488      7491      7497      7494      7488      7491      7497      7499
      7490      7488      7486      7494      7490      7488      7491      7493
      7490      7488      7491      7497      7491      7488      7486      7494
      7491      7497      7494      7496      7493      7491      7497      7494
      7493      7491      7497      7499      7496      7494      7497      7499
      7501      7506      7508      7510      7501      7506      7508      7511
      7501      7506      7514      7516      7501      7506      7514      7517
      7503      7501      7506      7508      7503      7501      7506      7514
      7504      7501      7506      7508      7504      7501      7506      7514
      7505      7501      7506      7508      7505      7501      7506      7514
      7506      7508      7511      7513      7506      7508      7511      7517
      7506      7514      7517      7511      7506      7514      7517      7519
      7508      7506      7514      7516      7508      7506      7514      7517
      7508      7511      7517      7514      7508      7511      7517      7519
      7510      7508      7506      7514      7510      7508      7511      7513
      7510      7508      7511      7517      7511      7508      7506      7514
      7511      7517      7514      7516      7513      7511      7517      7514
      7513      7511      7517      7519      7516      7514      7517      7519
      7521      7526      7528      7530      7521      7526      7528      7531
      7521      7526      7534      7536      7521      7526      7534      7537
      7523      7521      7526      7528      7523      7521      7526      7534
      7524      7521      7526      7528      7524      7521      7526      7534
      7525      7521      7526      7528      7525      7521      7526      7534
      7526      7528      7531      7533      7526      7528      7531      7537
      7526      7534      7537      7531      7526      7534      7537      7539
      7528      7526      7534      7536      7528      7526      7534      7537
      7528      7531      7537      7534      7528      7531      7537      7539
      7530      7528      7526      7534      7530      7528      7531      7533
      7530      7528      7531      7537      7531      7528      7526      7534
      7531      7537      7534      7536      7533      7531      7537      7534
      7533      7531      7537      7539      7536      7534      7537      7539
      7541      7546      7548      7550      7541      7546      7548      7551
      7541      7546      7554      7556      7541      7546      7554      7557
      7543      7541      7546      7548      7543      7541      7546      7554
      7544      7541      7546      7548      7544      7541      7546      7554
      7545      7541      7546      7548      7545      7541      7546      7554
      7546      7548      7551      7553      7546      7548      7551      7557
      7546      7554      7557      7551      7546      7554      7557      7559
      7548      7546      7554      7556      7548      7546      7554      7557
      7548      7551      7557      7554      7548      7551      7557      7559
      7550      7548      7546      7554      7550      7548      7551      7553
      7550      7548      7551      7557      7551      7548      7546      7554
      7551      7557      7554      7556      7553      7551      7557      7554
      7553      7551      7557      7559      7556      7554      7557      7559
      7561      7566      7568      7570      7561      7566      7568      7571
      7561      7566      7574      7576      7561      7566      7574      7577
      7563      7561      7566      7568      7563      7561      7566      7574
      7564      7561      7566      7568      7564      7561      7566      7574
      7565      7561      7566      7568      7565      7561      7566      7574
      7566      7568      7571      7573      7566      7568      7571      7577
      7566      7574      7577      7571      7566      7574      7577      7579
      7568      7566      7574      7576      7568      7566      7574      7577
      7568      7571      7577      7574      7568      7571      7577      7579
      7570      7568      7566      7574      7570      7568      7571      7573
      7570      7568      7571      7577      7571      7568      7566      7574
      7571      7577      7574      7576      7573      7571      7577      7574
      7573      7571      7577      7579      7576      7574      7577      7579
      7581      7586      7588      7590      7581      7586      7588      7591
      7581      7586      7594      7596      7581      7586      7594      7597
      7583      7581      7586      7588      7583      7581      7586      7594
      7584      7581      7586      7588      7584      7581      7586      7594
      7585      7581      7586      7588      7585      7581      7586      7594
      7586      7588      7591      7593      7586      7588      7591      7597
      7586      7594      7597      7591      7586      7594      7597      7599
      7588      7586      7594      7596      7588      7586      7594      7597
      7588      7591      7597      7594      7588      7591      7597      7599
      7590      7588      7586      7594      7590      7588      7591      7593
      7590      7588      7591      7597      7591      7588      7586      7594
      7591      7597      7594      7596      7593      7591      7597      7594
      7593      7591      7597      7599      7596      7594      7597      7599
      7601      7606      7608      7610      7601      7606      7608      7611
      7601      7606      7614      7616      7601      7606      7614      7617
      7603      7601      7606      7608      7603      7601      7606      7614
      7604      7601      7606      7608      7604      7601      7606      7614
      7605      7601      7606      7608      7605      7601      7606      7614
      7606      7608      7611      7613      7606      7608      7611      7617
      7606      7614      7617      7611      7606      7614      7617      7619
      7608      7606      7614      7616      7608      7606      7614      7617
      7608      7611      7617      7614      7608      7611      7617      7619
      7610      7608      7606      7614      7610      7608      7611      7613
      7610      7608      7611      7617      7611      7608      7606      7614
      7611      7617      7614      7616      7613      7611      7617      7614
      7613      7611      7617      7619      7616      7614      7617      7619
      7621      7626      7628      7630      7621      7626      7628      7631
      7621      7626      7634      7636      7621      7626      7634      7637
      7623      7621      7626      7628      7623      7621      7626      7634
      7624      7621      7626      7628      7624      7621      7626      7634
      7625      7621      7626      7628      7625      7621      7626      7634
      7626      7628      7631      7633      7626      7628      7631      7637
      7626      7634      7637      7631      7626      7634      7637      7639
      7628      7626      7634      7636      7628      7626      7634      7637
      7628      7631      7637      7634      7628      7631      7637      7639
      7630      7628      7626      7634      7630      7628      7631      7633
      7630      7628      7631      7637      7631      7628      7626      7634
      7631      7637      7634      7636      7633      7631      7637      7634
      7633      7631      7637      7639      7636      7634      7637      7639
      7641      7646      7648      7650      7641      7646      7648      7651
      7641      7646      7654      7656      7641      7646      7654      7657
      7643      7641      7646      7648      7643      7641      7646      7654
      7644      7641      7646      7648      7644      7641      7646      7654
      7645      7641      7646      7648      7645      7641      7646      7654
      7646      7648      7651      7653      7646      7648      7651      7657
      7646      7654      7657      7651      7646      7654      7657      7659
      7648      7646      7654      7656      7648      7646      7654      7657
      7648      7651      7657      7654      7648      7651      7657      7659
      7650      7648      7646      7654      7650      7648      7651      7653
      7650      7648      7651      7657      7651      7648      7646      7654
      7651      7657      7654      7656      7653      7651      7657      7654
      7653      7651      7657      7659      7656      7654      7657      7659
      7661      7666      7668      7670      7661      7666      7668      7671
      7661      7666      7674      7676      7661      7666      7674      7677
      7663      7661      7666      7668      7663      7661      7666      7674
      7664      7661      7666      7668      7664      7661      7666      7674
      7665      7661      7666      7668      7665      7661      7666      7674
      7666      7668      7671      7673      7666      7668      7671      7677
      7666      7674      7677      7671      7666      7674      7677      7679
      7668      7666      7674      7676      7668      7666      7674      7677
      7668      7671      7677      7674      7668      7671      7677      7679
      7670      7668      7666      7674      7670      7668      7671      7673
      7670      7668      7671      7677      7671      7668      7666      7674
      7671      7677      7674      7676      7673      7671      7677      7674
      7673      7671      7677      7679      7676      7674      7677      7679
      7681      7686      7688      7690      7681      7686      7688      7691
      7681      7686      7694      7696      7681      7686      7694      7697
      7683      7681      7686      7688      7683      7681      7686      7694
      7684      7681      7686      7688      7684      7681      7686      7694
      7685      7681      7686      7688      7685      7681      7686      7694
      7686      7688      7691      7693      7686      7688      7691      7697
      7686      7694      7697      7691      7686      7694      7697      7699
      7688      7686      7694      7696      7688      7686      7694      7697
      7688      7691      7697      7694      7688      7691      7697      7699
      7690      7688      7686      7694      7690      7688      7691      7693
      7690      7688      7691      7697      7691      7688      7686      7694
      7691      7697      7694      7696      7693      7691      7697      7694
      7693      7691      7697      7699      7696      7694      7697      7699
      7701      7706      7708      7710      7701      7706      7708      7711
      7701      7706      7714      7716      7701      7706      7714      7717
      7703      7701      7706      7708      7703      7701      7706      7714
      7704      7701      7706      7708      7704      7701      7706      7714
      7705      7701      7706      7708      7705      7701      7706      7714
      7706      7708      7711      7713      7706      7708      7711      7717
      7706      7714      7717      7711      7706      7714      7717      7719
      7708      7706      7714      7716      7708      7706      7714      7717
      7708      7711      7717      7714      7708      7711      7717      7719
      7710      7708      7706      7714      7710      7708      7711      7713
      7710      7708      7711      7717      7711      7708      7706      7714
      7711      7717      7714      7716      7713      7711      7717      7714
      7713      7711      7717      7719      7716      7714      7717      7719
      7721      7726      7728      7730      7721      7726      7728      7731
      7721      7726      7734      7736      7721      7726      7734      7737
      7723      7721      7726      7728      7723      7721      7726      7734
      7724      7721      7726      7728      7724      7721      7726      7734
      7725      7721      7726      7728      7725      7721      7726      7734
      7726      7728      7731      7733      7726      7728      7731      7737
      7726      7734      7737      7731      7726      7734      7737      7739
      7728      7726      7734      7736      7728      7726      7734      7737
      7728      7731      7737      7734      7728      7731      7737      7739
      7730      7728      7726      7734      7730      7728      7731      7733
      7730      7728      7731      7737      7731      7728      7726      7734
      7731      7737      7734      7736      7733      7731      7737      7734
      7733      7731      7737      7739      7736      7734      7737      7739
      7741      7746      7748      7750      7741      7746      7748      7751
      7741      7746      7754      7756      7741      7746      7754      7757
      7743      7741      7746      7748      7743      7741      7746      7754
      7744      7741      7746      7748      7744      7741      7746      7754
      7745      7741      7746      7748      7745      7741      7746      7754
      7746      7748      7751      7753      7746      7748      7751      7757
      7746      7754      7757      7751      7746      7754      7757      7759
      7748      7746      7754      7756      7748      7746      7754      7757
      7748      7751      7757      7754      7748      7751      7757      7759
      7750      7748      7746      7754      7750      7748      7751      7753
      7750      7748      7751      7757      7751      7748      7746      7754
      7751      7757      7754      7756      7753      7751      7757      7754
      7753      7751      7757      7759      7756      7754      7757      7759
      7761      7766      7768      7770      7761      7766      7768      7771
      7761      7766      7774      7776      7761      7766      7774      7777
      7763      7761      7766      7768      7763      7761      7766      7774
      7764      7761      7766      7768      7764      7761      7766      7774
      7765      7761      7766      7768      7765      7761      7766      7774
      7766      7768      7771      7773      7766      7768      7771      7777
      7766      7774      7777      7771      7766      7774      7777      7779
      7768      7766      7774      7776      7768      7766      7774      7777
      7768      7771      7777      7774      7768      7771      7777      7779
      7770      7768      7766      7774      7770      7768      7771      7773
      7770      7768      7771      7777      7771      7768      7766      7774
      7771      7777      7774      7776      7773      7771      7777      7774
      7773      7771      7777      7779      7776      7774      7777      7779
      7781      7786      7788      7790      7781      7786      7788      7791
      7781      7786      7794      7796      7781      7786      7794      7797
      7783      7781      7786      7788      7783      7781      7786      7794
      7784      7781      7786      7788      7784      7781      7786      7794
      7785      7781      7786      7788      7785      7781      7786      7794
      7786      7788      7791      7793      7786      7788      7791      7797
      7786      7794      7797      7791      7786      7794      7797      7799
      7788      7786      7794      7796      7788      7786      7794      7797
      7788      7791      7797      7794      7788      7791      7797      7799
      7790      7788      7786      7794      7790      7788      7791      7793
      7790      7788      7791      7797      7791      7788      7786      7794
      7791      7797      7794      7796      7793      7791      7797      7794
      7793      7791      7797      7799      7796      7794      7797      7799
      7801      7806      7808      7810      7801      7806      7808      7811
      7801      7806      7814      7816      7801      7806      7814      7817
      7803      7801      7806      7808      7803      7801      7806      7814
      7804      7801      7806      7808      7804      7801      7806      7814
      7805      7801      7806      7808      7805      7801      7806      7814
      7806      7808      7811      7813      7806      7808      7811      7817
      7806      7814      7817      7811      7806      7814      7817      7819
      7808      7806      7814      7816      7808      7806      7814      7817
      7808      7811      7817      7814      7808      7811      7817      7819
      7810      7808      7806      7814      7810      7808      7811      7813
      7810      7808      7811      7817      7811      7808      7806      7814
      7811      7817      7814      7816      7813      7811      7817      7814
      7813      7811      7817      7819      7816      7814      7817      7819
      7821      7826      7828      7830      7821      7826      7828      7831
      7821      7826      7834      7836      7821      7826      7834      7837
      7823      7821      7826      7828      7823      7821      7826      7834
      7824      7821      7826      7828      7824      7821      7826      7834
      7825      7821      7826      7828      7825      7821      7826      7834
      7826      7828      7831      7833      7826      7828      7831      7837
      7826      7834      7837      7831      7826      7834      7837      7839
      7828      7826      7834      7836      7828      7826      7834      7837
      7828      7831      7837      7834      7828      7831      7837      7839
      7830      7828      7826      7834      7830      7828      7831      7833
      7830      7828      7831      7837      7831      7828      7826      7834
      7831      7837      7834      7836      7833      7831      7837      7834
      7833      7831      7837      7839      7836      7834      7837      7839
      7841      7846      7848      7850      7841      7846      7848      7851
      7841      7846      7854      7856      7841      7846      7854      7857
      7843      7841      7846      7848      7843      7841      7846      7854
      7844      7841      7846      7848      7844      7841      7846      7854
      7845      7841      7846      7848      7845      7841      7846      7854
      7846      7848      7851      7853      7846      7848      7851      7857
      7846      7854      7857      7851      7846      7854      7857      7859
      7848      7846      7854      7856      7848      7846      7854      7857
      7848      7851      7857      7854      7848      7851      7857      7859
      7850      7848      7846      7854      7850      7848      7851      7853
      7850      7848      7851      7857      7851      7848      7846      7854
      7851      7857      7854      7856      7853      7851      7857      7854
      7853      7851      7857      7859      7856      7854      7857      7859
      7861      7866      7868      7870      7861      7866      7868      7871
      7861      7866      7874      7876      7861      7866      7874      7877
      7863      7861      7866      7868      7863      7861      7866      7874
      7864      7861      7866      7868      7864      7861      7866      7874
      7865      7861      7866      7868      7865      7861      7866      7874
      7866      7868      7871      7873      7866      7868      7871      7877
      7866      7874      7877      7871      7866      7874      7877      7879
      7868      7866      7874      7876      7868      7866      7874      7877
      7868      7871      7877      7874      7868      7871      7877      7879
      7870      7868      7866      7874      7870      7868      7871      7873
      7870      7868      7871      7877      7871      7868      7866      7874
      7871      7877      7874      7876      7873      7871      7877      7874
      7873      7871      7877      7879      7876      7874      7877      7879
      7881      7886      7888      7890      7881      7886      7888      7891
      7881      7886      7894      7896      7881      7886      7894      7897
      7883      7881      7886      7888      7883      7881      7886      7894
      7884      7881      7886      7888      7884      7881      7886      7894
      7885      7881      7886      7888      7885      7881      7886      7894
      7886      7888      7891      7893      7886      7888      7891      7897
      7886      7894      7897      7891      7886      7894      7897      7899
      7888      7886      7894      7896      7888      7886      7894      7897
      7888      7891      7897      7894      7888      7891      7897      7899
      7890      7888      7886      7894      7890      7888      7891      7893
      7890      7888      7891      7897      7891      7888      7886      7894
      7891      7897      7894      7896      7893      7891      7897      7894
      7893      7891      7897      7899      7896      7894      7897      7899
      7901      7906      7908      7910      7901      7906      7908      7911
      7901      7906      7914      7916      7901      7906      7914      7917
      7903      7901      7906      7908      7903      7901      7906      7914
      7904      7901      7906      7908      7904      7901      7906      7914
      7905      7901      7906      7908      7905      7901      7906      7914
      7906      7908      7911      7913      7906      7908      7911      7917
      7906      7914      7917      7911      7906      7914      7917      7919
      7908      7906      7914      7916      7908      7906      7914      7917
      7908      7911      7917      7914      7908      7911      7917      7919
      7910      7908      7906      7914      7910      7908      7911      7913
      7910      7908      7911      7917      7911      7908      7906      7914
      7911      7917      7914      7916      7913      7911      7917      7914
      7913      7911      7917      7919      7916      7914      7917      7919
      7921      7926      7928      7930      7921      7926      7928      7931
      7921      7926      7934      7936      7921      7926      7934      7937
      7923      7921      7926      7928      7923      7921      7926      7934
      7924      7921      7926      7928      7924      7921      7926      7934
      7925      7921      7926      7928      7925      7921      7926      7934
      7926      7928      7931      7933      7926      7928      7931      7937
      7926      7934      7937      7931      7926      7934      7937      7939
      7928      7926      7934      7936      7928      7926      7934      7937
      7928      7931      7937      7934      7928      7931      7937      7939
      7930      7928      7926      7934      7930      7928      7931      7933
      7930      7928      7931      7937      7931      7928      7926      7934
      7931      7937      7934      7936      7933      7931      7937      7934
      7933      7931      7937      7939      7936      7934      7937      7939
      7941      7946      7948      7950      7941      7946      7948      7951
      7941      7946      7954      7956      7941      7946      7954      7957
      7943      7941      7946      7948      7943      7941      7946      7954
      7944      7941      7946      7948      7944      7941      7946      7954
      7945      7941      7946      7948      7945      7941      7946      7954
      7946      7948      7951      7953      7946      7948      7951      7957
      7946      7954      7957      7951      7946      7954      7957      7959
      7948      7946      7954      7956      7948      7946      7954      7957
      7948      7951      7957      7954      7948      7951      7957      7959
      7950      7948      7946      7954      7950      7948      7951      7953
      7950      7948      7951      7957      7951      7948      7946      7954
      7951      7957      7954      7956      7953      7951      7957      7954
      7953      7951      7957      7959      7956      7954      7957      7959
      7961      7966      7968      7970      7961      7966      7968      7971
      7961      7966      7974      7976      7961      7966      7974      7977
      7963      7961      7966      7968      7963      7961      7966      7974
      7964      7961      7966      7968      7964      7961      7966      7974
      7965      7961      7966      7968      7965      7961      7966      7974
      7966      7968      7971      7973      7966      7968      7971      7977
      7966      7974      7977      7971      7966      7974      7977      7979
      7968      7966      7974      7976      7968      7966      7974      7977
      7968      7971      7977      7974      7968      7971      7977      7979
      7970      7968      7966      7974      7970      7968      7971      7973
      7970      7968      7971      7977      7971      7968      7966      7974
      7971      7977      7974      7976      7973      7971      7977      7974
      7973      7971      7977      7979      7976      7974      7977      7979
      7981      7986      7988      7990      7981      7986      7988      7991
      7981      7986      7994      7996      7981      7986      7994      7997
      7983      7981      7986      7988      7983      7981      7986      7994
      7984      7981      7986      7988      7984      7981      7986      7994
      7985      7981      7986      7988      7985      7981      7986      7994
      7986      7988      7991      7993      7986      7988      7991      7997
      7986      7994      7997      7991      7986      7994      7997      7999
      7988      7986      7994      7996      7988      7986      7994      7997
      7988      7991      7997      7994      7988      7991      7997      7999
      7990      7988      7986      7994      7990      7988      7991      7993
      7990      7988      7991      7997      7991      7988      7986      7994
      7991      7997      7994      7996      7993      7991      7997      7994
      7993      7991      7997      7999      7996      7994      7997      7999
      8001      8006      8008      8010      8001      8006      8008      8011
      8001      8006      8014      8016      8001      8006      8014      8017
      8003      8001      8006      8008      8003      8001      8006      8014
      8004      8001      8006      8008      8004      8001      8006      8014
      8005      8001      8006      8008      8005      8001      8006      8014
      8006      8008      8011      8013      8006      8008      8011      8017
      8006      8014      8017      8011      8006      8014      8017      8019
      8008      8006      8014      8016      8008      8006      8014      8017
      8008      8011      8017      8014      8008      8011      8017      8019
      8010      8008      8006      8014      8010      8008      8011      8013
      8010      8008      8011      8017      8011      8008      8006      8014
      8011      8017      8014      8016      8013      8011      8017      8014
      8013      8011      8017      8019      8016      8014      8017      8019
      8021      8026      8028      8030      8021      8026      8028      8031
      8021      8026      8034      8036      8021      8026      8034      8037
      8023      8021      8026      8028      8023      8021      8026      8034
      8024      8021      8026      8028      8024      8021      8026      8034
      8025      8021      8026      8028      8025      8021      8026      8034
      8026      8028      8031      8033      8026      8028      8031      8037
      8026      8034      8037      8031      8026      8034      8037      8039
      8028      8026      8034      8036      8028      8026      8034      8037
      8028      8031      8037      8034      8028      8031      8037      8039
      8030      8028      8026      8034      8030      8028      8031      8033
      8030      8028      8031      8037      8031      8028      8026      8034
      8031      8037      8034      8036      8033      8031      8037      8034
      8033      8031      8037      8039      8036      8034      8037      8039
      8041      8046      8048      8050      8041      8046      8048      8051
      8041      8046      8054      8056      8041      8046      8054      8057
      8043      8041      8046      8048      8043      8041      8046      8054
      8044      8041      8046      8048      8044      8041      8046      8054
      8045      8041      8046      8048      8045      8041      8046      8054
      8046      8048      8051      8053      8046      8048      8051      8057
      8046      8054      8057      8051      8046      8054      8057      8059
      8048      8046      8054      8056      8048      8046      8054      8057
      8048      8051      8057      8054      8048      8051      8057      8059
      8050      8048      8046      8054      8050      8048      8051      8053
      8050      8048      8051      8057      8051      8048      8046      8054
      8051      8057      8054      8056      8053      8051      8057      8054
      8053      8051      8057      8059      8056      8054      8057      8059
      8061      8066      8068      8070      8061      8066      8068      8071
      8061      8066      8074      8076      8061      8066      8074      8077
      8063      8061      8066      8068      8063      8061      8066      8074
      8064      8061      8066      8068      8064      8061      8066      8074
      8065      8061      8066      8068      8065      8061      8066      8074
      8066      8068      8071      8073      8066      8068      8071      8077
      8066      8074      8077      8071      8066      8074      8077      8079
      8068      8066      8074      8076      8068      8066      8074      8077
      8068      8071      8077      8074      8068      8071      8077      8079
      8070      8068      8066      8074      8070      8068      8071      8073
      8070      8068      8071      8077      8071      8068      8066      8074
      8071      8077      8074      8076      8073      8071      8077      8074
      8073      8071      8077      8079      8076      8074      8077      8079
      8081      8086      8088      8090      8081      8086      8088      8091
      8081      8086      8094      8096      8081      8086      8094      8097
      8083      8081      8086      8088      8083      8081      8086      8094
      8084      8081      8086      8088      8084      8081      8086      8094
      8085      8081      8086      8088      8085      8081      8086      8094
      8086      8088      8091      8093      8086      8088      8091      8097
      8086      8094      8097      8091      8086      8094      8097      8099
      8088      8086      8094      8096      8088      8086      8094      8097
      8088      8091      8097      8094      8088      8091      8097      8099
      8090      8088      8086      8094      8090      8088      8091      8093
      8090      8088      8091      8097      8091      8088      8086      8094
      8091      8097      8094      8096      8093      8091      8097      8094
      8093      8091      8097      8099      8096      8094      8097      8099
      8101      8106      8108      8110      8101      8106      8108      8111
      8101      8106      8114      8116      8101      8106      8114      8117
      8103      8101      8106      8108      8103      8101      8106      8114
      8104      8101      8106      8108      8104      8101      8106      8114
      8105      8101      8106      8108      8105      8101      8106      8114
      8106      8108      8111      8113      8106      8108      8111      8117
      8106      8114      8117      8111      8106      8114      8117      8119
      8108      8106      8114      8116      8108      8106      8114      8117
      8108      8111      8117      8114      8108      8111      8117      8119
      8110      8108      8106      8114      8110      8108      8111      8113
      8110      8108      8111      8117      8111      8108      8106      8114
      8111      8117      8114      8116      8113      8111      8117      8114
      8113      8111      8117      8119      8116      8114      8117      8119
      8121      8126      8128      8130      8121      8126      8128      8131
      8121      8126      8134      8136      8121      8126      8134      8137
      8123      8121      8126      8128      8123      8121      8126      8134
      8124      8121      8126      8128      8124      8121      8126      8134
      8125      8121      8126      8128      8125      8121      8126      8134
      8126      8128      8131      8133      8126      8128      8131      8137
      8126      8134      8137      8131      8126      8134      8137      8139
      8128      8126      8134      8136      8128      8126      8134      8137
      8128      8131      8137      8134      8128      8131      8137      8139
      8130      8128      8126      8134      8130      8128      8131      8133
      8130      8128      8131      8137      8131      8128      8126      8134
      8131      8137      8134      8136      8133      8131      8137      8134
      8133      8131      8137      8139      8136      8134      8137      8139
      8141      8146      8148      8150      8141      8146      8148      8151
      8141      8146      8154      8156      8141      8146      8154      8157
      8143      8141      8146      8148      8143      8141      8146      8154
      8144      8141      8146      8148      8144      8141      8146      8154
      8145      8141      8146      8148      8145      8141      8146      8154
      8146      8148      8151      8153      8146      8148      8151      8157
      8146      8154      8157      8151      8146      8154      8157      8159
      8148      8146      8154      8156      8148      8146      8154      8157
      8148      8151      8157      8154      8148      8151      8157      8159
      8150      8148      8146      8154      8150      8148      8151      8153
      8150      8148      8151      8157      8151      8148      8146      8154
      8151      8157      8154      8156      8153      8151      8157      8154
      8153      8151      8157      8159      8156      8154      8157      8159
      8161      8166      8168      8170      8161      8166      8168      8171
      8161      8166      8174      8176      8161      8166      8174      8177
      8163      8161      8166      8168      8163      8161      8166      8174
      8164      8161      8166      8168      8164      8161      8166      8174
      8165      8161      8166      8168      8165      8161      8166      8174
      8166      8168      8171      8173      8166      8168      8171      8177
      8166      8174      8177      8171      8166      8174      8177      8179
      8168      8166      8174      8176      8168      8166      8174      8177
      8168      8171      8177      8174      8168      8171      8177      8179
      8170      8168      8166      8174      8170      8168      8171      8173
      8170      8168      8171      8177      8171      8168      8166      8174
      8171      8177      8174      8176      8173      8171      8177      8174
      8173      8171      8177      8179      8176      8174      8177      8179
      8181      8186      8188      8190      8181      8186      8188      8191
      8181      8186      8194      8196      8181      8186      8194      8197
      8183      8181      8186      8188      8183      8181      8186      8194
      8184      8181      8186      8188      8184      8181      8186      8194
      8185      8181      8186      8188      8185      8181      8186      8194
      8186      8188      8191      8193      8186      8188      8191      8197
      8186      8194      8197      8191      8186      8194      8197      8199
      8188      8186      8194      8196      8188      8186      8194      8197
      8188      8191      8197      8194      8188      8191      8197      8199
      8190      8188      8186      8194      8190      8188      8191      8193
      8190      8188      8191      8197      8191      8188      8186      8194
      8191      8197      8194      8196      8193      8191      8197      8194
      8193      8191      8197      8199      8196      8194      8197      8199
      8201      8206      8208      8210      8201      8206      8208      8211
      8201      8206      8214      8216      8201      8206      8214      8217
      8203      8201      8206      8208      8203      8201      8206      8214
      8204      8201      8206      8208      8204      8201      8206      8214
      8205      8201      8206      8208      8205      8201      8206      8214
      8206      8208      8211      8213      8206      8208      8211      8217
      8206      8214      8217      8211      8206      8214      8217      8219
      8208      8206      8214      8216      8208      8206      8214      8217
      8208      8211      8217      8214      8208      8211      8217      8219
      8210      8208      8206      8214      8210      8208      8211      8213
      8210      8208      8211      8217      8211      8208      8206      8214
      8211      8217      8214      8216      8213      8211      8217      8214
      8213      8211      8217      8219      8216      8214      8217      8219
      8221      8226      8228      8230      8221      8226      8228      8231
      8221      8226      8234      8236      8221      8226      8234      8237
      8223      8221      8226      8228      8223      8221      8226      8234
      8224      8221      8226      8228      8224      8221      8226      8234
      8225      8221      8226      8228      8225      8221      8226      8234
      8226      8228      8231      8233      8226      8228      8231      8237
      8226      8234      8237      8231      8226      8234      8237      8239
      8228      8226      8234      8236      8228      8226      8234      8237
      8228      8231      8237      8234      8228      8231      8237      8239
      8230      8228      8226      8234      8230      8228      8231      8233
      8230      8228      8231      8237      8231      8228      8226      8234
      8231      8237      8234      8236      8233      8231      8237      8234
      8233      8231      8237      8239      8236      8234      8237      8239
      8241      8246      8248      8250      8241      8246      8248      8251
      8241      8246      8254      8256      8241      8246      8254      8257
      8243      8241      8246      8248      8243      8241      8246      8254
      8244      8241      8246      8248      8244      8241      8246      8254
      8245      8241      8246      8248      8245      8241      8246      8254
      8246      8248      8251      8253      8246      8248      8251      8257
      8246      8254      8257      8251      8246      8254      8257      8259
      8248      8246      8254      8256      8248      8246      8254      8257
      8248      8251      8257      8254      8248      8251      8257      8259
      8250      8248      8246      8254      8250      8248      8251      8253
      8250      8248      8251      8257      8251      8248      8246      8254
      8251      8257      8254      8256      8253      8251      8257      8254
      8253      8251      8257      8259      8256      8254      8257      8259
      8261      8266      8268      8270      8261      8266      8268      8271
      8261      8266      8274      8276      8261      8266      8274      8277
      8263      8261      8266      8268      8263      8261      8266      8274
      8264      8261      8266      8268      8264      8261      8266      8274
      8265      8261      8266      8268      8265      8261      8266      8274
      8266      8268      8271      8273      8266      8268      8271      8277
      8266      8274      8277      8271      8266      8274      8277      8279
      8268      8266      8274      8276      8268      8266      8274      8277
      8268      8271      8277      8274      8268      8271      8277      8279
      8270      8268      8266      8274      8270      8268      8271      8273
      8270      8268      8271      8277      8271      8268      8266      8274
      8271      8277      8274      8276      8273      8271      8277      8274
      8273      8271      8277      8279      8276      8274      8277      8279
      8281      8286      8288      8290      8281      8286      8288      8291
      8281      8286      8294      8296      8281      8286      8294      8297
      8283      8281      8286      8288      8283      8281      8286      8294
      8284      8281      8286      8288      8284      8281      8286      8294
      8285      8281      8286      8288      8285      8281      8286      8294
      8286      8288      8291      8293      8286      8288      8291      8297
      8286      8294      8297      8291      8286      8294      8297      8299
      8288      8286      8294      8296      8288      8286      8294      8297
      8288      8291      8297      8294      8288      8291      8297      8299
      8290      8288      8286      8294      8290      8288      8291      8293
      8290      8288      8291      8297      8291      8288      8286      8294
      8291      8297      8294      8296      8293      8291      8297      8294
      8293      8291      8297      8299      8296      8294      8297      8299
      8301      8306      8308      8310      8301      8306      8308      8311
      8301      8306      8314      8316      8301      8306      8314      8317
      8303      8301      8306      8308      8303      8301      8306      8314
      8304      8301      8306      8308      8304      8301      8306      8314
      8305      8301      8306      8308      8305      8301      8306      8314
      8306      8308      8311      8313      8306      8308      8311      8317
      8306      8314      8317      8311      8306      8314      8317      8319
      8308      8306      8314      8316      8308      8306      8314      8317
      8308      8311      8317      8314      8308      8311      8317      8319
      8310      8308      8306      8314      8310      8308      8311      8313
      8310      8308      8311      8317      8311      8308      8306      8314
      8311      8317      8314      8316      8313      8311      8317      8314
      8313      8311      8317      8319      8316      8314      8317      8319
      8321      8326      8328      8330      8321      8326      8328      8331
      8321      8326      8334      8336      8321      8326      8334      8337
      8323      8321      8326      8328      8323      8321      8326      8334
      8324      8321      8326      8328      8324      8321      8326      8334
      8325      8321      8326      8328      8325      8321      8326      8334
      8326      8328      8331      8333      8326      8328      8331      8337
      8326      8334      8337      8331      8326      8334      8337      8339
      8328      8326      8334      8336      8328      8326      8334      8337
      8328      8331      8337      8334      8328      8331      8337      8339
      8330      8328      8326      8334      8330      8328      8331      8333
      8330      8328      8331      8337      8331      8328      8326      8334
      8331      8337      8334      8336      8333      8331      8337      8334
      8333      8331      8337      8339      8336      8334      8337      8339
      8341      8346      8348      8350      8341      8346      8348      8351
      8341      8346      8354      8356      8341      8346      8354      8357
      8343      8341      8346      8348      8343      8341      8346      8354
      8344      8341      8346      8348      8344      8341      8346      8354
      8345      8341      8346      8348      8345      8341      8346      8354
      8346      8348      8351      8353      8346      8348      8351      8357
      8346      8354      8357      8351      8346      8354      8357      8359
      8348      8346      8354      8356      8348      8346      8354      8357
      8348      8351      8357      8354      8348      8351      8357      8359
      8350      8348      8346      8354      8350      8348      8351      8353
      8350      8348      8351      8357      8351      8348      8346      8354
      8351      8357      8354      8356      8353      8351      8357      8354
      8353      8351      8357      8359      8356      8354      8357      8359
      8361      8366      8368      8370      8361      8366      8368      8371
      8361      8366      8374      8376      8361      8366      8374      8377
      8363      8361      8366      8368      8363      8361      8366      8374
      8364      8361      8366      8368      8364      8361      8366      8374
      8365      8361      8366      8368      8365      8361      8366      8374
      8366      8368      8371      8373      8366      8368      8371      8377
      8366      8374      8377      8371      8366      8374      8377      8379
      8368      8366      8374      8376      8368      8366      8374      8377
      8368      8371      8377      8374      8368      8371      8377      8379
      8370      8368      8366      8374      8370      8368      8371      8373
      8370      8368      8371      8377      8371      8368      8366      8374
      8371      8377      8374      8376      8373      8371      8377      8374
      8373      8371      8377      8379      8376      8374      8377      8379
      8381      8386      8388      8390      8381      8386      8388      8391
      8381      8386      8394      8396      8381      8386      8394      8397
      8383      8381      8386      8388      8383      8381      8386      8394
      8384      8381      8386      8388      8384      8381      8386      8394
      8385      8381      8386      8388      8385      8381      8386      8394
      8386      8388      8391      8393      8386      8388      8391      8397
      8386      8394      8397      8391      8386      8394      8397      8399
      8388      8386      8394      8396      8388      8386      8394      8397
      8388      8391      8397      8394      8388      8391      8397      8399
      8390      8388      8386      8394      8390      8388      8391      8393
      8390      8388      8391      8397      8391      8388      8386      8394
      8391      8397      8394      8396      8393      8391      8397      8394
      8393      8391      8397      8399      8396      8394      8397      8399
      8401      8406      8408      8410      8401      8406      8408      8411
      8401      8406      8414      8416      8401      8406      8414      8417
      8403      8401      8406      8408      8403      8401      8406      8414
      8404      8401      8406      8408      8404      8401      8406      8414
      8405      8401      8406      8408      8405      8401      8406      8414
      8406      8408      8411      8413      8406      8408      8411      8417
      8406      8414      8417      8411      8406      8414      8417      8419
      8408      8406      8414      8416      8408      8406      8414      8417
      8408      8411      8417      8414      8408      8411      8417      8419
      8410      8408      8406      8414      8410      8408      8411      8413
      8410      8408      8411      8417      8411      8408      8406      8414
      8411      8417      8414      8416      8413      8411      8417      8414
      8413      8411      8417      8419      8416      8414      8417      8419
      8421      8426      8428      8430      8421      8426      8428      8431
      8421      8426      8434      8436      8421      8426      8434      8437
      8423      8421      8426      8428      8423      8421      8426      8434
      8424      8421      8426      8428      8424      8421      8426      8434
      8425      8421      8426      8428      8425      8421      8426      8434
      8426      8428      8431      8433      8426      8428      8431      8437
      8426      8434      8437      8431      8426      8434      8437      8439
      8428      8426      8434      8436      8428      8426      8434      8437
      8428      8431      8437      8434      8428      8431      8437      8439
      8430      8428      8426      8434      8430      8428      8431      8433
      8430      8428      8431      8437      8431      8428      8426      8434
      8431      8437      8434      8436      8433      8431      8437      8434
      8433      8431      8437      8439      8436      8434      8437      8439
      8441      8446      8448      8450      8441      8446      8448      8451
      8441      8446      8454      8456      8441      8446      8454      8457
      8443      8441      8446      8448      8443      8441      8446      8454
      8444      8441      8446      8448      8444      8441      8446      8454
      8445      8441      8446      8448      8445      8441      8446      8454
      8446      8448      8451      8453      8446      8448      8451      8457
      8446      8454      8457      8451      8446      8454      8457      8459
      8448      8446      8454      8456      8448      8446      8454      8457
      8448      8451      8457      8454      8448      8451      8457      8459
      8450      8448      8446      8454      8450      8448      8451      8453
      8450      8448      8451      8457      8451      8448      8446      8454
      8451      8457      8454      8456      8453      8451      8457      8454
      8453      8451      8457      8459      8456      8454      8457      8459
      8461      8466      8468      8470      8461      8466      8468      8471
      8461      8466      8474      8476      8461      8466      8474      8477
      8463      8461      8466      8468      8463      8461      8466      8474
      8464      8461      8466      8468      8464      8461      8466      8474
      8465      8461      8466      8468      8465      8461      8466      8474
      8466      8468      8471      8473      8466      8468      8471      8477
      8466      8474      8477      8471      8466      8474      8477      8479
      8468      8466      8474      8476      8468      8466      8474      8477
      8468      8471      8477      8474      8468      8471      8477      8479
      8470      8468      8466      8474      8470      8468      8471      8473
      8470      8468      8471      8477      8471      8468      8466      8474
      8471      8477      8474      8476      8473      8471      8477      8474
      8473      8471      8477      8479      8476      8474      8477      8479
      8481      8486      8488      8490      8481      8486      8488      8491
      8481      8486      8494      8496      8481      8486      8494      8497
      8483      8481      8486      8488      8483      8481      8486      8494
      8484      8481      8486      8488      8484      8481      8486      8494
      8485      8481      8486      8488      8485      8481      8486      8494
      8486      8488      8491      8493      8486      8488      8491      8497
      8486      8494      8497      8491      8486      8494      8497      8499
      8488      8486      8494      8496      8488      8486      8494      8497
      8488      8491      8497      8494      8488      8491      8497      8499
      8490      8488      8486      8494      8490      8488      8491      8493
      8490      8488      8491      8497      8491      8488      8486      8494
      8491      8497      8494      8496      8493      8491      8497      8494
      8493      8491      8497      8499      8496      8494      8497      8499
      8501      8506      8508      8510      8501      8506      8508      8511
      8501      8506      8514      8516      8501      8506      8514      8517
      8503      8501      8506      8508      8503      8501      8506      8514
      8504      8501      8506      8508      8504      8501      8506      8514
      8505      8501      8506      8508      8505      8501      8506      8514
      8506      8508      8511      8513      8506      8508      8511      8517
      8506      8514      8517      8511      8506      8514      8517      8519
      8508      8506      8514      8516      8508      8506      8514      8517
      8508      8511      8517      8514      8508      8511      8517      8519
      8510      8508      8506      8514      8510      8508      8511      8513
      8510      8508      8511      8517      8511      8508      8506      8514
      8511      8517      8514      8516      8513      8511      8517      8514
      8513      8511      8517      8519      8516      8514      8517      8519
      8521      8526      8528      8530      8521      8526      8528      8531
      8521      8526      8534      8536      8521      8526      8534      8537
      8523      8521      8526      8528      8523      8521      8526      8534
      8524      8521      8526      8528      8524      8521      8526      8534
      8525      8521      8526      8528      8525      8521      8526      8534
      8526      8528      8531      8533      8526      8528      8531      8537
      8526      8534      8537      8531      8526      8534      8537      8539
      8528      8526      8534      8536      8528      8526      8534      8537
      8528      8531      8537      8534      8528      8531      8537      8539
      8530      8528      8526      8534      8530      8528      8531      8533
      8530      8528      8531      8537      8531      8528      8526      8534
      8531      8537      8534      8536      8533      8531      8537      8534
      8533      8531      8537      8539      8536      8534      8537      8539
      8541      8546      8548      8550      8541      8546      8548      8551
      8541      8546      8554      8556      8541      8546      8554      8557
      8543      8541      8546      8548      8543      8541      8546      8554
      8544      8541      8546      8548      8544      8541      8546      8554
      8545      8541      8546      8548      8545      8541      8546      8554
      8546      8548      8551      8553      8546      8548      8551      8557
      8546      8554      8557      8551      8546      8554      8557      8559
      8548      8546      8554      8556      8548      8546      8554      8557
      8548      8551      8557      8554      8548      8551      8557      8559
      8550      8548      8546      8554      8550      8548      8551      8553
      8550      8548      8551      8557      8551      8548      8546      8554
      8551      8557      8554      8556      8553      8551      8557      8554
      8553      8551      8557      8559      8556      8554      8557      8559
      8561      8566      8568      8570      8561      8566      8568      8571
      8561      8566      8574      8576      8561      8566      8574      8577
      8563      8561      8566      8568      8563      8561      8566      8574
      8564      8561      8566      8568      8564      8561      8566      8574
      8565      8561      8566      8568      8565      8561      8566      8574
      8566      8568      8571      8573      8566      8568      8571      8577
      8566      8574      8577      8571      8566      8574      8577      8579
      8568      8566      8574      8576      8568      8566      8574      8577
      8568      8571      8577      8574      8568      8571      8577      8579
      8570      8568      8566      8574      8570      8568      8571      8573
      8570      8568      8571      8577      8571      8568      8566      8574
      8571      8577      8574      8576      8573      8571      8577      8574
      8573      8571      8577      8579      8576      8574      8577      8579
      8581      8586      8588      8590      8581      8586      8588      8591
      8581      8586      8594      8596      8581      8586      8594      8597
      8583      8581      8586      8588      8583      8581      8586      8594
      8584      8581      8586      8588      8584      8581      8586      8594
      8585      8581      8586      8588      8585      8581      8586      8594
      8586      8588      8591      8593      8586      8588      8591      8597
      8586      8594      8597      8591      8586      8594      8597      8599
      8588      8586      8594      8596      8588      8586      8594      8597
      8588      8591      8597      8594      8588      8591      8597      8599
      8590      8588      8586      8594      8590      8588      8591      8593
      8590      8588      8591      8597      8591      8588      8586      8594
      8591      8597      8594      8596      8593      8591      8597      8594
      8593      8591      8597      8599      8596      8594      8597      8599
      8601      8606      8608      8610      8601      8606      8608      8611
      8601      8606      8614      8616      8601      8606      8614      8617
      8603      8601      8606      8608      8603      8601      8606      8614
      8604      8601      8606      8608      8604      8601      8606      8614
      8605      8601      8606      8608      8605      8601      8606      8614
      8606      8608      8611      8613      8606      8608      8611      8617
      8606      8614      8617      8611      8606      8614      8617      8619
      8608      8606      8614      8616      8608      8606      8614      8617
      8608      8611      8617      8614      8608      8611      8617      8619
      8610      8608      8606      8614      8610      8608      8611      8613
      8610      8608      8611      8617      8611      8608      8606      8614
      8611      8617      8614      8616      8613      8611      8617      8614
      8613      8611      8617      8619      8616      8614      8617      8619
      8621      8626      8628      8630      8621      8626      8628      8631
      8621      8626      8634      8636      8621      8626      8634      8637
      8623      8621      8626      8628      8623      8621      8626      8634
      8624      8621      8626      8628      8624      8621      8626      8634
      8625      8621      8626      8628      8625      8621      8626      8634
      8626      8628      8631      8633      8626      8628      8631      8637
      8626      8634      8637      8631      8626      8634      8637      8639
      8628      8626      8634      8636      8628      8626      8634      8637
      8628      8631      8637      8634      8628      8631      8637      8639
      8630      8628      8626      8634      8630      8628      8631      8633
      8630      8628      8631      8637      8631      8628      8626      8634
      8631      8637      8634      8636      8633      8631      8637      8634
      8633      8631      8637      8639      8636      8634      8637      8639
      8641      8646      8648      8650      8641      8646      8648      8651
      8641      8646      8654      8656      8641      8646      8654      8657
      8643      8641      8646      8648      8643      8641      8646      8654
      8644      8641      8646      8648      8644      8641      8646      8654
      8645      8641      8646      8648      8645      8641      8646      8654
      8646      8648      8651      8653      8646      8648      8651      8657
      8646      8654      8657      8651      8646      8654      8657      8659
      8648      8646      8654      8656      8648      8646      8654      8657
      8648      8651      8657      8654      8648      8651      8657      8659
      8650      8648      8646      8654      8650      8648      8651      8653
      8650      8648      8651      8657      8651      8648      8646      8654
      8651      8657      8654      8656      8653      8651      8657      8654
      8653      8651      8657      8659      8656      8654      8657      8659
      8661      8666      8668      8670      8661      8666      8668      8671
      8661      8666      8674      8676      8661      8666      8674      8677
      8663      8661      8666      8668      8663      8661      8666      8674
      8664      8661      8666      8668      8664      8661      8666      8674
      8665      8661      8666      8668      8665      8661      8666      8674
      8666      8668      8671      8673      8666      8668      8671      8677
      8666      8674      8677      8671      8666      8674      8677      8679
      8668      8666      8674      8676      8668      8666      8674      8677
      8668      8671      8677      8674      8668      8671      8677      8679
      8670      8668      8666      8674      8670      8668      8671      8673
      8670      8668      8671      8677      8671      8668      8666      8674
      8671      8677      8674      8676      8673      8671      8677      8674
      8673      8671      8677      8679      8676      8674      8677      8679
      8681      8686      8688      8690      8681      8686      8688      8691
      8681      8686      8694      8696      8681      8686      8694      8697
      8683      8681      8686      8688      8683      8681      8686      8694
      8684      8681      8686      8688      8684      8681      8686      8694
      8685      8681      8686      8688      8685      8681      8686      8694
      8686      8688      8691      8693      8686      8688      8691      8697
      8686      8694      8697      8691      8686      8694      8697      8699
      8688      8686      8694      8696      8688      8686      8694      8697
      8688      8691      8697      8694      8688      8691      8697      8699
      8690      8688      8686      8694      8690      8688      8691      8693
      8690      8688      8691      8697      8691      8688      8686      8694
      8691      8697      8694      8696      8693      8691      8697      8694
      8693      8691      8697      8699      8696      8694      8697      8699
      8701      8706      8708      8710      8701      8706      8708      8711
      8701      8706      8714      8716      8701      8706      8714      8717
      8703      8701      8706      8708      8703      8701      8706      8714
      8704      8701      8706      8708      8704      8701      8706      8714
      8705      8701      8706      8708      8705      8701      8706      8714
      8706      8708      8711      8713      8706      8708      8711      8717
      8706      8714      8717      8711      8706      8714      8717      8719
      8708      8706      8714      8716      8708      8706      8714      8717
      8708      8711      8717      8714      8708      8711      8717      8719
      8710      8708      8706      8714      8710      8708      8711      8713
      8710      8708      8711      8717      8711      8708      8706      8714
      8711      8717      8714      8716      8713      8711      8717      8714
      8713      8711      8717      8719      8716      8714      8717      8719
      8721      8726      8728      8730      8721      8726      8728      8731
      8721      8726      8734      8736      8721      8726      8734      8737
      8723      8721      8726      8728      8723      8721      8726      8734
      8724      8721      8726      8728      8724      8721      8726      8734
      8725      8721      8726      8728      8725      8721      8726      8734
      8726      8728      8731      8733      8726      8728      8731      8737
      8726      8734      8737      8731      8726      8734      8737      8739
      8728      8726      8734      8736      8728      8726      8734      8737
      8728      8731      8737      8734      8728      8731      8737      8739
      8730      8728      8726      8734      8730      8728      8731      8733
      8730      8728      8731      8737      8731      8728      8726      8734
      8731      8737      8734      8736      8733      8731      8737      8734
      8733      8731      8737      8739      8736      8734      8737      8739
      8741      8746      8748      8750      8741      8746      8748      8751
      8741      8746      8754      8756      8741      8746      8754      8757
      8743      8741      8746      8748      8743      8741      8746      8754
      8744      8741      8746      8748      8744      8741      8746      8754
      8745      8741      8746      8748      8745      8741      8746      8754
      8746      8748      8751      8753      8746      8748      8751      8757
      8746      8754      8757      8751      8746      8754      8757      8759
      8748      8746      8754      8756      8748      8746      8754      8757
      8748      8751      8757      8754      8748      8751      8757      8759
      8750      8748      8746      8754      8750      8748      8751      8753
      8750      8748      8751      8757      8751      8748      8746      8754
      8751      8757      8754      8756      8753      8751      8757      8754
      8753      8751      8757      8759      8756      8754      8757      8759
      8761      8766      8768      8770      8761      8766      8768      8771
      8761      8766      8774      8776      8761      8766      8774      8777
      8763      8761      8766      8768      8763      8761      8766      8774
      8764      8761      8766      8768      8764      8761      8766      8774
      8765      8761      8766      8768      8765      8761      8766      8774
      8766      8768      8771      8773      8766      8768      8771      8777
      8766      8774      8777      8771      8766      8774      8777      8779
      8768      8766      8774      8776      8768      8766      8774      8777
      8768      8771      8777      8774      8768      8771      8777      8779
      8770      8768      8766      8774      8770      8768      8771      8773
      8770      8768      8771      8777      8771      8768      8766      8774
      8771      8777      8774      8776      8773      8771      8777      8774
      8773      8771      8777      8779      8776      8774      8777      8779
      8781      8786      8788      8790      8781      8786      8788      8791
      8781      8786      8794      8796      8781      8786      8794      8797
      8783      8781      8786      8788      8783      8781      8786      8794
      8784      8781      8786      8788      8784      8781      8786      8794
      8785      8781      8786      8788      8785      8781      8786      8794
      8786      8788      8791      8793      8786      8788      8791      8797
      8786      8794      8797      8791      8786      8794      8797      8799
      8788      8786      8794      8796      8788      8786      8794      8797
      8788      8791      8797      8794      8788      8791      8797      8799
      8790      8788      8786      8794      8790      8788      8791      8793
      8790      8788      8791      8797      8791      8788      8786      8794
      8791      8797      8794      8796      8793      8791      8797      8794
      8793      8791      8797      8799      8796      8794      8797      8799
      8801      8806      8808      8810      8801      8806      8808      8811
      8801      8806      8814      8816      8801      8806      8814      8817
      8803      8801      8806      8808      8803      8801      8806      8814
      8804      8801      8806      8808      8804      8801      8806      8814
      8805      8801      8806      8808      8805      8801      8806      8814
      8806      8808      8811      8813      8806      8808      8811      8817
      8806      8814      8817      8811      8806      8814      8817      8819
      8808      8806      8814      8816      8808      8806      8814      8817
      8808      8811      8817      8814      8808      8811      8817      8819
      8810      8808      8806      8814      8810      8808      8811      8813
      8810      8808      8811      8817      8811      8808      8806      8814
      8811      8817      8814      8816      8813      8811      8817      8814
      8813      8811      8817      8819      8816      8814      8817      8819
      8821      8826      8828      8830      8821      8826      8828      8831
      8821      8826      8834      8836      8821      8826      8834      8837
      8823      8821      8826      8828      8823      8821      8826      8834
      8824      8821      8826      8828      8824      8821      8826      8834
      8825      8821      8826      8828      8825      8821      8826      8834
      8826      8828      8831      8833      8826      8828      8831      8837
      8826      8834      8837      8831      8826      8834      8837      8839
      8828      8826      8834      8836      8828      8826      8834      8837
      8828      8831      8837      8834      8828      8831      8837      8839
      8830      8828      8826      8834      8830      8828      8831      8833
      8830      8828      8831      8837      8831      8828      8826      8834
      8831      8837      8834      8836      8833      8831      8837      8834
      8833      8831      8837      8839      8836      8834      8837      8839
      8841      8846      8848      8850      8841      8846      8848      8851
      8841      8846      8854      8856      8841      8846      8854      8857
      8843      8841      8846      8848      8843      8841      8846      8854
      8844      8841      8846      8848      8844      8841      8846      8854
      8845      8841      8846      8848      8845      8841      8846      8854
      8846      8848      8851      8853      8846      8848      8851      8857
      8846      8854      8857      8851      8846      8854      8857      8859
      8848      8846      8854      8856      8848      8846      8854      8857
      8848      8851      8857      8854      8848      8851      8857      8859
      8850      8848      8846      8854      8850      8848      8851      8853
      8850      8848      8851      8857      8851      8848      8846      8854
      8851      8857      8854      8856      8853      8851      8857      8854
      8853      8851      8857      8859      8856      8854      8857      8859
      8861      8866      8868      8870      8861      8866      8868      8871
      8861      8866      8874      8876      8861      8866      8874      8877
      8863      8861      8866      8868      8863      8861      8866      8874
      8864      8861      8866      8868      8864      8861      8866      8874
      8865      8861      8866      8868      8865      8861      8866      8874
      8866      8868      8871      8873      8866      8868      8871      8877
      8866      8874      8877      8871      8866      8874      8877      8879
      8868      8866      8874      8876      8868      8866      8874      8877
      8868      8871      8877      8874      8868      8871      8877      8879
      8870      8868      8866      8874      8870      8868      8871      8873
      8870      8868      8871      8877      8871      8868      8866      8874
      8871      8877      8874      8876      8873      8871      8877      8874
      8873      8871      8877      8879      8876      8874      8877      8879
      8881      8886      8888      8890      8881      8886      8888      8891
      8881      8886      8894      8896      8881      8886      8894      8897
      8883      8881      8886      8888      8883      8881      8886      8894
      8884      8881      8886      8888      8884      8881      8886      8894
      8885      8881      8886      8888      8885      8881      8886      8894
      8886      8888      8891      8893      8886      8888      8891      8897
      8886      8894      8897      8891      8886      8894      8897      8899
      8888      8886      8894      8896      8888      8886      8894      8897
      8888      8891      8897      8894      8888      8891      8897      8899
      8890      8888      8886      8894      8890      8888      8891      8893
      8890      8888      8891      8897      8891      8888      8886      8894
      8891      8897      8894      8896      8893      8891      8897      8894
      8893      8891      8897      8899      8896      8894      8897      8899
      8901      8906      8908      8910      8901      8906      8908      8911
      8901      8906      8914      8916      8901      8906      8914      8917
      8903      8901      8906      8908      8903      8901      8906      8914
      8904      8901      8906      8908      8904      8901      8906      8914
      8905      8901      8906      8908      8905      8901      8906      8914
      8906      8908      8911      8913      8906      8908      8911      8917
      8906      8914      8917      8911      8906      8914      8917      8919
      8908      8906      8914      8916      8908      8906      8914      8917
      8908      8911      8917      8914      8908      8911      8917      8919
      8910      8908      8906      8914      8910      8908      8911      8913
      8910      8908      8911      8917      8911      8908      8906      8914
      8911      8917      8914      8916      8913      8911      8917      8914
      8913      8911      8917      8919      8916      8914      8917      8919
      8921      8926      8928      8930      8921      8926      8928      8931
      8921      8926      8934      8936      8921      8926      8934      8937
      8923      8921      8926      8928      8923      8921      8926      8934
      8924      8921      8926      8928      8924      8921      8926      8934
      8925      8921      8926      8928      8925      8921      8926      8934
      8926      8928      8931      8933      8926      8928      8931      8937
      8926      8934      8937      8931      8926      8934      8937      8939
      8928      8926      8934      8936      8928      8926      8934      8937
      8928      8931      8937      8934      8928      8931      8937      8939
      8930      8928      8926      8934      8930      8928      8931      8933
      8930      8928      8931      8937      8931      8928      8926      8934
      8931      8937      8934      8936      8933      8931      8937      8934
      8933      8931      8937      8939      8936      8934      8937      8939
      8941      8946      8948      8950      8941      8946      8948      8951
      8941      8946      8954      8956      8941      8946      8954      8957
      8943      8941      8946      8948      8943      8941      8946      8954
      8944      8941      8946      8948      8944      8941      8946      8954
      8945      8941      8946      8948      8945      8941      8946      8954
      8946      8948      8951      8953      8946      8948      8951      8957
      8946      8954      8957      8951      8946      8954      8957      8959
      8948      8946      8954      8956      8948      8946      8954      8957
      8948      8951      8957      8954      8948      8951      8957      8959
      8950      8948      8946      8954      8950      8948      8951      8953
      8950      8948      8951      8957      8951      8948      8946      8954
      8951      8957      8954      8956      8953      8951      8957      8954
      8953      8951      8957      8959      8956      8954      8957      8959
      8961      8966      8968      8970      8961      8966      8968      8971
      8961      8966      8974      8976      8961      8966      8974      8977
      8963      8961      8966      8968      8963      8961      8966      8974
      8964      8961      8966      8968      8964      8961      8966      8974
      8965      8961      8966      8968      8965      8961      8966      8974
      8966      8968      8971      8973      8966      8968      8971      8977
      8966      8974      8977      8971      8966      8974      8977      8979
      8968      8966      8974      8976      8968      8966      8974      8977
      8968      8971      8977      8974      8968      8971      8977      8979
      8970      8968      8966      8974      8970      8968      8971      8973
      8970      8968      8971      8977      8971      8968      8966      8974
      8971      8977      8974      8976      8973      8971      8977      8974
      8973      8971      8977      8979      8976      8974      8977      8979
      8981      8986      8988      8990      8981      8986      8988      8991
      8981      8986      8994      8996      8981      8986      8994      8997
      8983      8981      8986      8988      8983      8981      8986      8994
      8984      8981      8986      8988      8984      8981      8986      8994
      8985      8981      8986      8988      8985      8981      8986      8994
      8986      8988      8991      8993      8986      8988      8991      8997
      8986      8994      8997      8991      8986      8994      8997      8999
      8988      8986      8994      8996      8988      8986      8994      8997
      8988      8991      8997      8994      8988      8991      8997      8999
      8990      8988      8986      8994      8990      8988      8991      8993
      8990      8988      8991      8997      8991      8988      8986      8994
      8991      8997      8994      8996      8993      8991      8997      8994
      8993      8991      8997      8999      8996      8994      8997      8999
      9001      9006      9008      9010      9001      9006      9008      9011
      9001      9006      9014      9016      9001      9006      9014      9017
      9003      9001      9006      9008      9003      9001      9006      9014
      9004      9001      9006      9008      9004      9001      9006      9014
      9005      9001      9006      9008      9005      9001      9006      9014
      9006      9008      9011      9013      9006      9008      9011      9017
      9006      9014      9017      9011      9006      9014      9017      9019
      9008      9006      9014      9016      9008      9006      9014      9017
      9008      9011      9017      9014      9008      9011      9017      9019
      9010      9008      9006      9014      9010      9008      9011      9013
      9010      9008      9011      9017      9011      9008      9006      9014
      9011      9017      9014      9016      9013      9011      9017      9014
      9013      9011      9017      9019      9016      9014      9017      9019
      9021      9026      9028      9030      9021      9026      9028      9031
      9021      9026      9034      9036      9021      9026      9034      9037
      9023      9021      9026      9028      9023      9021      9026      9034
      9024      9021      9026      9028      9024      9021      9026      9034
      9025      9021      9026      9028      9025      9021      9026      9034
      9026      9028      9031      9033      9026      9028      9031      9037
      9026      9034      9037      9031      9026      9034      9037      9039
      9028      9026      9034      9036      9028      9026      9034      9037
      9028      9031      9037      9034      9028      9031      9037      9039
      9030      9028      9026      9034      9030      9028      9031      9033
      9030      9028      9031      9037      9031      9028      9026      9034
      9031      9037      9034      9036      9033      9031      9037      9034
      9033      9031      9037      9039      9036      9034      9037      9039
      9041      9046      9048      9050      9041      9046      9048      9051
      9041      9046      9054      9056      9041      9046      9054      9057
      9043      9041      9046      9048      9043      9041      9046      9054
      9044      9041      9046      9048      9044      9041      9046      9054
      9045      9041      9046      9048      9045      9041      9046      9054
      9046      9048      9051      9053      9046      9048      9051      9057
      9046      9054      9057      9051      9046      9054      9057      9059
      9048      9046      9054      9056      9048      9046      9054      9057
      9048      9051      9057      9054      9048      9051      9057      9059
      9050      9048      9046      9054      9050      9048      9051      9053
      9050      9048      9051      9057      9051      9048      9046      9054
      9051      9057      9054      9056      9053      9051      9057      9054
      9053      9051      9057      9059      9056      9054      9057      9059
      9061      9066      9068      9070      9061      9066      9068      9071
      9061      9066      9074      9076      9061      9066      9074      9077
      9063      9061      9066      9068      9063      9061      9066      9074
      9064      9061      9066      9068      9064      9061      9066      9074
      9065      9061      9066      9068      9065      9061      9066      9074
      9066      9068      9071      9073      9066      9068      9071      9077
      9066      9074      9077      9071      9066      9074      9077      9079
      9068      9066      9074      9076      9068      9066      9074      9077
      9068      9071      9077      9074      9068      9071      9077      9079
      9070      9068      9066      9074      9070      9068      9071      9073
      9070      9068      9071      9077      9071      9068      9066      9074
      9071      9077      9074      9076      9073      9071      9077      9074
      9073      9071      9077      9079      9076      9074      9077      9079
      9081      9086      9088      9090      9081      9086      9088      9091
      9081      9086      9094      9096      9081      9086      9094      9097
      9083      9081      9086      9088      9083      9081      9086      9094
      9084      9081      9086      9088      9084      9081      9086      9094
      9085      9081      9086      9088      9085      9081      9086      9094
      9086      9088      9091      9093      9086      9088      9091      9097
      9086      9094      9097      9091      9086      9094      9097      9099
      9088      9086      9094      9096      9088      9086      9094      9097
      9088      9091      9097      9094      9088      9091      9097      9099
      9090      9088      9086      9094      9090      9088      9091      9093
      9090      9088      9091      9097      9091      9088      9086      9094
      9091      9097      9094      9096      9093      9091      9097      9094
      9093      9091      9097      9099      9096      9094      9097      9099
      9101      9106      9108      9110      9101      9106      9108      9111
      9101      9106      9114      9116      9101      9106      9114      9117
      9103      9101      9106      9108      9103      9101      9106      9114
      9104      9101      9106      9108      9104      9101      9106      9114
      9105      9101      9106      9108      9105      9101      9106      9114
      9106      9108      9111      9113      9106      9108      9111      9117
      9106      9114      9117      9111      9106      9114      9117      9119
      9108      9106      9114      9116      9108      9106      9114      9117
      9108      9111      9117      9114      9108      9111      9117      9119
      9110      9108      9106      9114      9110      9108      9111      9113
      9110      9108      9111      9117      9111      9108      9106      9114
      9111      9117      9114      9116      9113      9111      9117      9114
      9113      9111      9117      9119      9116      9114      9117      9119
      9121      9126      9128      9130      9121      9126      9128      9131
      9121      9126      9134      9136      9121      9126      9134      9137
      9123      9121      9126      9128      9123      9121      9126      9134
      9124      9121      9126      9128      9124      9121      9126      9134
      9125      9121      9126      9128      9125      9121      9126      9134
      9126      9128      9131      9133      9126      9128      9131      9137
      9126      9134      9137      9131      9126      9134      9137      9139
      9128      9126      9134      9136      9128      9126      9134      9137
      9128      9131      9137      9134      9128      9131      9137      9139
      9130      9128      9126      9134      9130      9128      9131      9133
      9130      9128      9131      9137      9131      9128      9126      9134
      9131      9137      9134      9136      9133      9131      9137      9134
      9133      9131      9137      9139      9136      9134      9137      9139
      9141      9146      9148      9150      9141      9146      9148      9151
      9141      9146      9154      9156      9141      9146      9154      9157
      9143      9141      9146      9148      9143      9141      9146      9154
      9144      9141      9146      9148      9144      9141      9146      9154
      9145      9141      9146      9148      9145      9141      9146      9154
      9146      9148      9151      9153      9146      9148      9151      9157
      9146      9154      9157      9151      9146      9154      9157      9159
      9148      9146      9154      9156      9148      9146      9154      9157
      9148      9151      9157      9154      9148      9151      9157      9159
      9150      9148      9146      9154      9150      9148      9151      9153
      9150      9148      9151      9157      9151      9148      9146      9154
      9151      9157      9154      9156      9153      9151      9157      9154
      9153      9151      9157      9159      9156      9154      9157      9159
      9161      9166      9168      9170      9161      9166      9168      9171
      9161      9166      9174      9176      9161      9166      9174      9177
      9163      9161      9166      9168      9163      9161      9166      9174
      9164      9161      9166      9168      9164      9161      9166      9174
      9165      9161      9166      9168      9165      9161      9166      9174
      9166      9168      9171      9173      9166      9168      9171      9177
      9166      9174      9177      9171      9166      9174      9177      9179
      9168      9166      9174      9176      9168      9166      9174      9177
      9168      9171      9177      9174      9168      9171      9177      9179
      9170      9168      9166      9174      9170      9168      9171      9173
      9170      9168      9171      9177      9171      9168      9166      9174
      9171      9177      9174      9176      9173      9171      9177      9174
      9173      9171      9177      9179      9176      9174      9177      9179
      9181      9186      9188      9190      9181      9186      9188      9191
      9181      9186      9194      9196      9181      9186      9194      9197
      9183      9181      9186      9188      9183      9181      9186      9194
      9184      9181      9186      9188      9184      9181      9186      9194
      9185      9181      9186      9188      9185      9181      9186      9194
      9186      9188      9191      9193      9186      9188      9191      9197
      9186      9194      9197      9191      9186      9194      9197      9199
      9188      9186      9194      9196      9188      9186      9194      9197
      9188      9191      9197      9194      9188      9191      9197      9199
      9190      9188      9186      9194      9190      9188      9191      9193
      9190      9188      9191      9197      9191      9188      9186      9194
      9191      9197      9194      9196      9193      9191      9197      9194
      9193      9191      9197      9199      9196      9194      9197      9199
      9201      9206      9208      9210      9201      9206      9208      9211
      9201      9206      9214      9216      9201      9206      9214      9217
      9203      9201      9206      9208      9203      9201      9206      9214
      9204      9201      9206      9208      9204      9201      9206      9214
      9205      9201      9206      9208      9205      9201      9206      9214
      9206      9208      9211      9213      9206      9208      9211      9217
      9206      9214      9217      9211      9206      9214      9217      9219
      9208      9206      9214      9216      9208      9206      9214      9217
      9208      9211      9217      9214      9208      9211      9217      9219
      9210      9208      9206      9214      9210      9208      9211      9213
      9210      9208      9211      9217      9211      9208      9206      9214
      9211      9217      9214      9216      9213      9211      9217      9214
      9213      9211      9217      9219      9216      9214      9217      9219
      9221      9226      9228      9230      9221      9226      9228      9231
      9221      9226      9234      9236      9221      9226      9234      9237
      9223      9221      9226      9228      9223      9221      9226      9234
      9224      9221      9226      9228      9224      9221      9226      9234
      9225      9221      9226      9228      9225      9221      9226      9234
      9226      9228      9231      9233      9226      9228      9231      9237
      9226      9234      9237      9231      9226      9234      9237      9239
      9228      9226      9234      9236      9228      9226      9234      9237
      9228      9231      9237      9234      9228      9231      9237      9239
      9230      9228      9226      9234      9230      9228      9231      9233
      9230      9228      9231      9237      9231      9228      9226      9234
      9231      9237      9234      9236      9233      9231      9237      9234
      9233      9231      9237      9239      9236      9234      9237      9239
      9241      9246      9248      9250      9241      9246      9248      9251
      9241      9246      9254      9256      9241      9246      9254      9257
      9243      9241      9246      9248      9243      9241      9246      9254
      9244      9241      9246      9248      9244      9241      9246      9254
      9245      9241      9246      9248      9245      9241      9246      9254
      9246      9248      9251      9253      9246      9248      9251      9257
      9246      9254      9257      9251      9246      9254      9257      9259
      9248      9246      9254      9256      9248      9246      9254      9257
      9248      9251      9257      9254      9248      9251      9257      9259
      9250      9248      9246      9254      9250      9248      9251      9253
      9250      9248      9251      9257      9251      9248      9246      9254
      9251      9257      9254      9256      9253      9251      9257      9254
      9253      9251      9257      9259      9256      9254      9257      9259
      9261      9266      9268      9270      9261      9266      9268      9271
      9261      9266      9274      9276      9261      9266      9274      9277
      9263      9261      9266      9268      9263      9261      9266      9274
      9264      9261      9266      9268      9264      9261      9266      9274
      9265      9261      9266      9268      9265      9261      9266      9274
      9266      9268      9271      9273      9266      9268      9271      9277
      9266      9274      9277      9271      9266      9274      9277      9279
      9268      9266      9274      9276      9268      9266      9274      9277
      9268      9271      9277      9274      9268      9271      9277      9279
      9270      9268      9266      9274      9270      9268      9271      9273
      9270      9268      9271      9277      9271      9268      9266      9274
      9271      9277      9274      9276      9273      9271      9277      9274
      9273      9271      9277      9279      9276      9274      9277      9279
      9281      9286      9288      9290      9281      9286      9288      9291
      9281      9286      9294      9296      9281      9286      9294      9297
      9283      9281      9286      9288      9283      9281      9286      9294
      9284      9281      9286      9288      9284      9281      9286      9294
      9285      9281      9286      9288      9285      9281      9286      9294
      9286      9288      9291      9293      9286      9288      9291      9297
      9286      9294      9297      9291      9286      9294      9297      9299
      9288      9286      9294      9296      9288      9286      9294      9297
      9288      9291      9297      9294      9288      9291      9297      9299
      9290      9288      9286      9294      9290      9288      9291      9293
      9290      9288      9291      9297      9291      9288      9286      9294
      9291      9297      9294      9296      9293      9291      9297      9294
      9293      9291      9297      9299      9296      9294      9297      9299
      9301      9306      9308      9310      9301      9306      9308      9311
      9301      9306      9314      9316      9301      9306      9314      9317
      9303      9301      9306      9308      9303      9301      9306      9314
      9304      9301      9306      9308      9304      9301      9306      9314
      9305      9301      9306      9308      9305      9301      9306      9314
      9306      9308      9311      9313      9306      9308      9311      9317
      9306      9314      9317      9311      9306      9314      9317      9319
      9308      9306      9314      9316      9308      9306      9314      9317
      9308      9311      9317      9314      9308      9311      9317      9319
      9310      9308      9306      9314      9310      9308      9311      9313
      9310      9308      9311      9317      9311      9308      9306      9314
      9311      9317      9314      9316      9313      9311      9317      9314
      9313      9311      9317      9319      9316      9314      9317      9319
      9321      9326      9328      9330      9321      9326      9328      9331
      9321      9326      9334      9336      9321      9326      9334      9337
      9323      9321      9326      9328      9323      9321      9326      9334
      9324      9321      9326      9328      9324      9321      9326      9334
      9325      9321      9326      9328      9325      9321      9326      9334
      9326      9328      9331      9333      9326      9328      9331      9337
      9326      9334      9337      9331      9326      9334      9337      9339
      9328      9326      9334      9336      9328      9326      9334      9337
      9328      9331      9337      9334      9328      9331      9337      9339
      9330      9328      9326      9334      9330      9328      9331      9333
      9330      9328      9331      9337      9331      9328      9326      9334
      9331      9337      9334      9336      9333      9331      9337      9334
      9333      9331      9337      9339      9336      9334      9337      9339
      9341      9346      9348      9350      9341      9346      9348      9351
      9341      9346      9354      9356      9341      9346      9354      9357
      9343      9341      9346      9348      9343      9341      9346      9354
      9344      9341      9346      9348      9344      9341      9346      9354
      9345      9341      9346      9348      9345      9341      9346      9354
      9346      9348      9351      9353      9346      9348      9351      9357
      9346      9354      9357      9351      9346      9354      9357      9359
      9348      9346      9354      9356      9348      9346      9354      9357
      9348      9351      9357      9354      9348      9351      9357      9359
      9350      9348      9346      9354      9350      9348      9351      9353
      9350      9348      9351      9357      9351      9348      9346      9354
      9351      9357      9354      9356      9353      9351      9357      9354
      9353      9351      9357      9359      9356      9354      9357      9359
      9361      9366      9368      9370      9361      9366      9368      9371
      9361      9366      9374      9376      9361      9366      9374      9377
      9363      9361      9366      9368      9363      9361      9366      9374
      9364      9361      9366      9368      9364      9361      9366      9374
      9365      9361      9366      9368      9365      9361      9366      9374
      9366      9368      9371      9373      9366      9368      9371      9377
      9366      9374      9377      9371      9366      9374      9377      9379
      9368      9366      9374      9376      9368      9366      9374      9377
      9368      9371      9377      9374      9368      9371      9377      9379
      9370      9368      9366      9374      9370      9368      9371      9373
      9370      9368      9371      9377      9371      9368      9366      9374
      9371      9377      9374      9376      9373      9371      9377      9374
      9373      9371      9377      9379      9376      9374      9377      9379
      9381      9386      9388      9390      9381      9386      9388      9391
      9381      9386      9394      9396      9381      9386      9394      9397
      9383      9381      9386      9388      9383      9381      9386      9394
      9384      9381      9386      9388      9384      9381      9386      9394
      9385      9381      9386      9388      9385      9381      9386      9394
      9386      9388      9391      9393      9386      9388      9391      9397
      9386      9394      9397      9391      9386      9394      9397      9399
      9388      9386      9394      9396      9388      9386      9394      9397
      9388      9391      9397      9394      9388      9391      9397      9399
      9390      9388      9386      9394      9390      9388      9391      9393
      9390      9388      9391      9397      9391      9388      9386      9394
      9391      9397      9394      9396      9393      9391      9397      9394
      9393      9391      9397      9399      9396      9394      9397      9399
      9401      9406      9408      9410      9401      9406      9408      9411
      9401      9406      9414      9416      9401      9406      9414      9417
      9403      9401      9406      9408      9403      9401      9406      9414
      9404      9401      9406      9408      9404      9401      9406      9414
      9405      9401      9406      9408      9405      9401      9406      9414
      9406      9408      9411      9413      9406      9408      9411      9417
      9406      9414      9417      9411      9406      9414      9417      9419
      9408      9406      9414      9416      9408      9406      9414      9417
      9408      9411      9417      9414      9408      9411      9417      9419
      9410      9408      9406      9414      9410      9408      9411      9413
      9410      9408      9411      9417      9411      9408      9406      9414
      9411      9417      9414      9416      9413      9411      9417      9414
      9413      9411      9417      9419      9416      9414      9417      9419
      9421      9426      9428      9430      9421      9426      9428      9431
      9421      9426      9434      9436      9421      9426      9434      9437
      9423      9421      9426      9428      9423      9421      9426      9434
      9424      9421      9426      9428      9424      9421      9426      9434
      9425      9421      9426      9428      9425      9421      9426      9434
      9426      9428      9431      9433      9426      9428      9431      9437
      9426      9434      9437      9431      9426      9434      9437      9439
      9428      9426      9434      9436      9428      9426      9434      9437
      9428      9431      9437      9434      9428      9431      9437      9439
      9430      9428      9426      9434      9430      9428      9431      9433
      9430      9428      9431      9437      9431      9428      9426      9434
      9431      9437      9434      9436      9433      9431      9437      9434
      9433      9431      9437      9439      9436      9434      9437      9439
      9441      9446      9448      9450      9441      9446      9448      9451
      9441      9446      9454      9456      9441      9446      9454      9457
      9443      9441      9446      9448      9443      9441      9446      9454
      9444      9441      9446      9448      9444      9441      9446      9454
      9445      9441      9446      9448      9445      9441      9446      9454
      9446      9448      9451      9453      9446      9448      9451      9457
      9446      9454      9457      9451      9446      9454      9457      9459
      9448      9446      9454      9456      9448      9446      9454      9457
      9448      9451      9457      9454      9448      9451      9457      9459
      9450      9448      9446      9454      9450      9448      9451      9453
      9450      9448      9451      9457      9451      9448      9446      9454
      9451      9457      9454      9456      9453      9451      9457      9454
      9453      9451      9457      9459      9456      9454      9457      9459
      9461      9466      9468      9470      9461      9466      9468      9471
      9461      9466      9474      9476      9461      9466      9474      9477
      9463      9461      9466      9468      9463      9461      9466      9474
      9464      9461      9466      9468      9464      9461      9466      9474
      9465      9461      9466      9468      9465      9461      9466      9474
      9466      9468      9471      9473      9466      9468      9471      9477
      9466      9474      9477      9471      9466      9474      9477      9479
      9468      9466      9474      9476      9468      9466      9474      9477
      9468      9471      9477      9474      9468      9471      9477      9479
      9470      9468      9466      9474      9470      9468      9471      9473
      9470      9468      9471      9477      9471      9468      9466      9474
      9471      9477      9474      9476      9473      9471      9477      9474
      9473      9471      9477      9479      9476      9474      9477      9479
      9481      9486      9488      9490      9481      9486      9488      9491
      9481      9486      9494      9496      9481      9486      9494      9497
      9483      9481      9486      9488      9483      9481      9486      9494
      9484      9481      9486      9488      9484      9481      9486      9494
      9485      9481      9486      9488      9485      9481      9486      9494
      9486      9488      9491      9493      9486      9488      9491      9497
      9486      9494      9497      9491      9486      9494      9497      9499
      9488      9486      9494      9496      9488      9486      9494      9497
      9488      9491      9497      9494      9488      9491      9497      9499
      9490      9488      9486      9494      9490      9488      9491      9493
      9490      9488      9491      9497      9491      9488      9486      9494
      9491      9497      9494      9496      9493      9491      9497      9494
      9493      9491      9497      9499      9496      9494      9497      9499
      9501      9506      9508      9510      9501      9506      9508      9511
      9501      9506      9514      9516      9501      9506      9514      9517
      9503      9501      9506      9508      9503      9501      9506      9514
      9504      9501      9506      9508      9504      9501      9506      9514
      9505      9501      9506      9508      9505      9501      9506      9514
      9506      9508      9511      9513      9506      9508      9511      9517
      9506      9514      9517      9511      9506      9514      9517      9519
      9508      9506      9514      9516      9508      9506      9514      9517
      9508      9511      9517      9514      9508      9511      9517      9519
      9510      9508      9506      9514      9510      9508      9511      9513
      9510      9508      9511      9517      9511      9508      9506      9514
      9511      9517      9514      9516      9513      9511      9517      9514
      9513      9511      9517      9519      9516      9514      9517      9519
      9521      9526      9528      9530      9521      9526      9528      9531
      9521      9526      9534      9536      9521      9526      9534      9537
      9523      9521      9526      9528      9523      9521      9526      9534
      9524      9521      9526      9528      9524      9521      9526      9534
      9525      9521      9526      9528      9525      9521      9526      9534
      9526      9528      9531      9533      9526      9528      9531      9537
      9526      9534      9537      9531      9526      9534      9537      9539
      9528      9526      9534      9536      9528      9526      9534      9537
      9528      9531      9537      9534      9528      9531      9537      9539
      9530      9528      9526      9534      9530      9528      9531      9533
      9530      9528      9531      9537      9531      9528      9526      9534
      9531      9537      9534      9536      9533      9531      9537      9534
      9533      9531      9537      9539      9536      9534      9537      9539
      9541      9546      9548      9550      9541      9546      9548      9551
      9541      9546      9554      9556      9541      9546      9554      9557
      9543      9541      9546      9548      9543      9541      9546      9554
      9544      9541      9546      9548      9544      9541      9546      9554
      9545      9541      9546      9548      9545      9541      9546      9554
      9546      9548      9551      9553      9546      9548      9551      9557
      9546      9554      9557      9551      9546      9554      9557      9559
      9548      9546      9554      9556      9548      9546      9554      9557
      9548      9551      9557      9554      9548      9551      9557      9559
      9550      9548      9546      9554      9550      9548      9551      9553
      9550      9548      9551      9557      9551      9548      9546      9554
      9551      9557      9554      9556      9553      9551      9557      9554
      9553      9551      9557      9559      9556      9554      9557      9559
      9561      9566      9568      9570      9561      9566      9568      9571
      9561      9566      9574      9576      9561      9566      9574      9577
      9563      9561      9566      9568      9563      9561      9566      9574
      9564      9561      9566      9568      9564      9561      9566      9574
      9565      9561      9566      9568      9565      9561      9566      9574
      9566      9568      9571      9573      9566      9568      9571      9577
      9566      9574      9577      9571      9566      9574      9577      9579
      9568      9566      9574      9576      9568      9566      9574      9577
      9568      9571      9577      9574      9568      9571      9577      9579
      9570      9568      9566      9574      9570      9568      9571      9573
      9570      9568      9571      9577      9571      9568      9566      9574
      9571      9577      9574      9576      9573      9571      9577      9574
      9573      9571      9577      9579      9576      9574      9577      9579
      9581      9586      9588      9590      9581      9586      9588      9591
      9581      9586      9594      9596      9581      9586      9594      9597
      9583      9581      9586      9588      9583      9581      9586      9594
      9584      9581      9586      9588      9584      9581      9586      9594
      9585      9581      9586      9588      9585      9581      9586      9594
      9586      9588      9591      9593      9586      9588      9591      9597
      9586      9594      9597      9591      9586      9594      9597      9599
      9588      9586      9594      9596      9588      9586      9594      9597
      9588      9591      9597      9594      9588      9591      9597      9599
      9590      9588      9586      9594      9590      9588      9591      9593
      9590      9588      9591      9597      9591      9588      9586      9594
      9591      9597      9594      9596      9593      9591      9597      9594
      9593      9591      9597      9599      9596      9594      9597      9599
      9601      9606      9608      9610      9601      9606      9608      9611
      9601      9606      9614      9616      9601      9606      9614      9617
      9603      9601      9606      9608      9603      9601      9606      9614
      9604      9601      9606      9608      9604      9601      9606      9614
      9605      9601      9606      9608      9605      9601      9606      9614
      9606      9608      9611      9613      9606      9608      9611      9617
      9606      9614      9617      9611      9606      9614      9617      9619
      9608      9606      9614      9616      9608      9606      9614      9617
      9608      9611      9617      9614      9608      9611      9617      9619
      9610      9608      9606      9614      9610      9608      9611      9613
      9610      9608      9611      9617      9611      9608      9606      9614
      9611      9617      9614      9616      9613      9611      9617      9614
      9613      9611      9617      9619      9616      9614      9617      9619
      9621      9626      9628      9630      9621      9626      9628      9631
      9621      9626      9634      9636      9621      9626      9634      9637
      9623      9621      9626      9628      9623      9621      9626      9634
      9624      9621      9626      9628      9624      9621      9626      9634
      9625      9621      9626      9628      9625      9621      9626      9634
      9626      9628      9631      9633      9626      9628      9631      9637
      9626      9634      9637      9631      9626      9634      9637      9639
      9628      9626      9634      9636      9628      9626      9634      9637
      9628      9631      9637      9634      9628      9631      9637      9639
      9630      9628      9626      9634      9630      9628      9631      9633
      9630      9628      9631      9637      9631      9628      9626      9634
      9631      9637      9634      9636      9633      9631      9637      9634
      9633      9631      9637      9639      9636      9634      9637      9639
      9641      9646      9648      9650      9641      9646      9648      9651
      9641      9646      9654      9656      9641      9646      9654      9657
      9643      9641      9646      9648      9643      9641      9646      9654
      9644      9641      9646      9648      9644      9641      9646      9654
      9645      9641      9646      9648      9645      9641      9646      9654
      9646      9648      9651      9653      9646      9648      9651      9657
      9646      9654      9657      9651      9646      9654      9657      9659
      9648      9646      9654      9656      9648      9646      9654      9657
      9648      9651      9657      9654      9648      9651      9657      9659
      9650      9648      9646      9654      9650      9648      9651      9653
      9650      9648      9651      9657      9651      9648      9646      9654
      9651      9657      9654      9656      9653      9651      9657      9654
      9653      9651      9657      9659      9656      9654      9657      9659
      9661      9666      9668      9670      9661      9666      9668      9671
      9661      9666      9674      9676      9661      9666      9674      9677
      9663      9661      9666      9668      9663      9661      9666      9674
      9664      9661      9666      9668      9664      9661      9666      9674
      9665      9661      9666      9668      9665      9661      9666      9674
      9666      9668      9671      9673      9666      9668      9671      9677
      9666      9674      9677      9671      9666      9674      9677      9679
      9668      9666      9674      9676      9668      9666      9674      9677
      9668      9671      9677      9674      9668      9671      9677      9679
      9670      9668      9666      9674      9670      9668      9671      9673
      9670      9668      9671      9677      9671      9668      9666      9674
      9671      9677      9674      9676      9673      9671      9677      9674
      9673      9671      9677      9679      9676      9674      9677      9679
      9681      9686      9688      9690      9681      9686      9688      9691
      9681      9686      9694      9696      9681      9686      9694      9697
      9683      9681      9686      9688      9683      9681      9686      9694
      9684      9681      9686      9688      9684      9681      9686      9694
      9685      9681      9686      9688      9685      9681      9686      9694
      9686      9688      9691      9693      9686      9688      9691      9697
      9686      9694      9697      9691      9686      9694      9697      9699
      9688      9686      9694      9696      9688      9686      9694      9697
      9688      9691      9697      9694      9688      9691      9697      9699
      9690      9688      9686      9694      9690      9688      9691      9693
      9690      9688      9691      9697      9691      9688      9686      9694
      9691      9697      9694      9696      9693      9691      9697      9694
      9693      9691      9697      9699      9696      9694      9697      9699
      9701      9706      9708      9710      9701      9706      9708      9711
      9701      9706      9714      9716      9701      9706      9714      9717
      9703      9701      9706      9708      9703      9701      9706      9714
      9704      9701      9706      9708      9704      9701      9706      9714
      9705      9701      9706      9708      9705      9701      9706      9714
      9706      9708      9711      9713      9706      9708      9711      9717
      9706      9714      9717      9711      9706      9714      9717      9719
      9708      9706      9714      9716      9708      9706      9714      9717
      9708      9711      9717      9714      9708      9711      9717      9719
      9710      9708      9706      9714      9710      9708      9711      9713
      9710      9708      9711      9717      9711      9708      9706      9714
      9711      9717      9714      9716      9713      9711      9717      9714
      9713      9711      9717      9719      9716      9714      9717      9719
      9721      9726      9728      9730      9721      9726      9728      9731
      9721      9726      9734      9736      9721      9726      9734      9737
      9723      9721      9726      9728      9723      9721      9726      9734
      9724      9721      9726      9728      9724      9721      9726      9734
      9725      9721      9726      9728      9725      9721      9726      9734
      9726      9728      9731      9733      9726      9728      9731      9737
      9726      9734      9737      9731      9726      9734      9737      9739
      9728      9726      9734      9736      9728      9726      9734      9737
      9728      9731      9737      9734      9728      9731      9737      9739
      9730      9728      9726      9734      9730      9728      9731      9733
      9730      9728      9731      9737      9731      9728      9726      9734
      9731      9737      9734      9736      9733      9731      9737      9734
      9733      9731      9737      9739      9736      9734      9737      9739
      9741      9746      9748      9750      9741      9746      9748      9751
      9741      9746      9754      9756      9741      9746      9754      9757
      9743      9741      9746      9748      9743      9741      9746      9754
      9744      9741      9746      9748      9744      9741      9746      9754
      9745      9741      9746      9748      9745      9741      9746      9754
      9746      9748      9751      9753      9746      9748      9751      9757
      9746      9754      9757      9751      9746      9754      9757      9759
      9748      9746      9754      9756      9748      9746      9754      9757
      9748      9751      9757      9754      9748      9751      9757      9759
      9750      9748      9746      9754      9750      9748      9751      9753
      9750      9748      9751      9757      9751      9748      9746      9754
      9751      9757      9754      9756      9753      9751      9757      9754
      9753      9751      9757      9759      9756      9754      9757      9759
      9761      9766      9768      9770      9761      9766      9768      9771
      9761      9766      9774      9776      9761      9766      9774      9777
      9763      9761      9766      9768      9763      9761      9766      9774
      9764      9761      9766      9768      9764      9761      9766      9774
      9765      9761      9766      9768      9765      9761      9766      9774
      9766      9768      9771      9773      9766      9768      9771      9777
      9766      9774      9777      9771      9766      9774      9777      9779
      9768      9766      9774      9776      9768      9766      9774      9777
      9768      9771      9777      9774      9768      9771      9777      9779
      9770      9768      9766      9774      9770      9768      9771      9773
      9770      9768      9771      9777      9771      9768      9766      9774
      9771      9777      9774      9776      9773      9771      9777      9774
      9773      9771      9777      9779      9776      9774      9777      9779
      9781      9786      9788      9790      9781      9786      9788      9791
      9781      9786      9794      9796      9781      9786      9794      9797
      9783      9781      9786      9788      9783      9781      9786      9794
      9784      9781      9786      9788      9784      9781      9786      9794
      9785      9781      9786      9788      9785      9781      9786      9794
      9786      9788      9791      9793      9786      9788      9791      9797
      9786      9794      9797      9791      9786      9794      9797      9799
      9788      9786      9794      9796      9788      9786      9794      9797
      9788      9791      9797      9794      9788      9791      9797      9799
      9790      9788      9786      9794      9790      9788      9791      9793
      9790      9788      9791      9797      9791      9788      9786      9794
      9791      9797      9794      9796      9793      9791      9797      9794
      9793      9791      9797      9799      9796      9794      9797      9799
      9801      9806      9808      9810      9801      9806      9808      9811
      9801      9806      9814      9816      9801      9806      9814      9817
      9803      9801      9806      9808      9803      9801      9806      9814
      9804      9801      9806      9808      9804      9801      9806      9814
      9805      9801      9806      9808      9805      9801      9806      9814
      9806      9808      9811      9813      9806      9808      9811      9817
      9806      9814      9817      9811      9806      9814      9817      9819
      9808      9806      9814      9816      9808      9806      9814      9817
      9808      9811      9817      9814      9808      9811      9817      9819
      9810      9808      9806      9814      9810      9808      9811      9813
      9810      9808      9811      9817      9811      9808      9806      9814
      9811      9817      9814      9816      9813      9811      9817      9814
      9813      9811      9817      9819      9816      9814      9817      9819
      9821      9826      9828      9830      9821      9826      9828      9831
      9821      9826      9834      9836      9821      9826      9834      9837
      9823      9821      9826      9828      9823      9821      9826      9834
      9824      9821      9826      9828      9824      9821      9826      9834
      9825      9821      9826      9828      9825      9821      9826      9834
      9826      9828      9831      9833      9826      9828      9831      9837
      9826      9834      9837      9831      9826      9834      9837      9839
      9828      9826      9834      9836      9828      9826      9834      9837
      9828      9831      9837      9834      9828      9831      9837      9839
      9830      9828      9826      9834      9830      9828      9831      9833
      9830      9828      9831      9837      9831      9828      9826      9834
      9831      9837      9834      9836      9833      9831      9837      9834
      9833      9831      9837      9839      9836      9834      9837      9839
      9841      9846      9848      9850      9841      9846      9848      9851
      9841      9846      9854      9856      9841      9846      9854      9857
      9843      9841      9846      9848      9843      9841      9846      9854
      9844      9841      9846      9848      9844      9841      9846      9854
      9845      9841      9846      9848      9845      9841      9846      9854
      9846      9848      9851      9853      9846      9848      9851      9857
      9846      9854      9857      9851      9846      9854      9857      9859
      9848      9846      9854      9856      9848      9846      9854      9857
      9848      9851      9857      9854      9848      9851      9857      9859
      9850      9848      9846      9854      9850      9848      9851      9853
      9850      9848      9851      9857      9851      9848      9846      9854
      9851      9857      9854      9856      9853      9851      9857      9854
      9853      9851      9857      9859      9856      9854      9857      9859
      9861      9866      9868      9870      9861      9866      9868      9871
      9861      9866      9874      9876      9861      9866      9874      9877
      9863      9861      9866      9868      9863      9861      9866      9874
      9864      9861      9866      9868      9864      9861      9866      9874
      9865      9861      9866      9868      9865      9861      9866      9874
      9866      9868      9871      9873      9866      9868      9871      9877
      9866      9874      9877      9871      9866      9874      9877      9879
      9868      9866      9874      9876      9868      9866      9874      9877
      9868      9871      9877      9874      9868      9871      9877      9879
      9870      9868      9866      9874      9870      9868      9871      9873
      9870      9868      9871      9877      9871      9868      9866      9874
      9871      9877      9874      9876      9873      9871      9877      9874
      9873      9871      9877      9879      9876      9874      9877      9879
      9881      9886      9888      9890      9881      9886      9888      9891
      9881      9886      9894      9896      9881      9886      9894      9897
      9883      9881      9886      9888      9883      9881      9886      9894
      9884      9881      9886      9888      9884      9881      9886      9894
      9885      9881      9886      9888      9885      9881      9886      9894
      9886      9888      9891      9893      9886      9888      9891      9897
      9886      9894      9897      9891      9886      9894      9897      9899
      9888      9886      9894      9896      9888      9886      9894      9897
      9888      9891      9897      9894      9888      9891      9897      9899
      9890      9888      9886      9894      9890      9888      9891      9893
      9890      9888      9891      9897      9891      9888      9886      9894
      9891      9897      9894      9896      9893      9891      9897      9894
      9893      9891      9897      9899      9896      9894      9897      9899
      9901      9906      9908      9910      9901      9906      9908      9911
      9901      9906      9914      9916      9901      9906      9914      9917
      9903      9901      9906      9908      9903      9901      9906      9914
      9904      9901      9906      9908      9904      9901      9906      9914
      9905      9901      9906      9908      9905      9901      9906      9914
      9906      9908      9911      9913      9906      9908      9911      9917
      9906      9914      9917      9911      9906      9914      9917      9919
      9908      9906      9914      9916      9908      9906      9914      9917
      9908      9911      9917      9914      9908      9911      9917      9919
      9910      9908      9906      9914      9910      9908      9911      9913
      9910      9908      9911      9917      9911      9908      9906      9914
      9911      9917      9914      9916      9913      9911      9917      9914
      9913      9911      9917      9919      9916      9914      9917      9919
      9921      9926      9928      9930      9921      9926      9928      9931
      9921      9926      9934      9936      9921      9926      9934      9937
      9923      9921      9926      9928      9923      9921      9926      9934
      9924      9921      9926      9928      9924      9921      9926      9934
      9925      9921      9926      9928      9925      9921      9926      9934
      9926      9928      9931      9933      9926      9928      9931      9937
      9926      9934      9937      9931      9926      9934      9937      9939
      9928      9926      9934      9936      9928      9926      9934      9937
      9928      9931      9937      9934      9928      9931      9937      9939
      9930      9928      9926      9934      9930      9928      9931      9933
      9930      9928      9931      9937      9931      9928      9926      9934
      9931      9937      9934      9936      9933      9931      9937      9934
      9933      9931      9937      9939      9936      9934      9937      9939
      9941      9946      9948      9950      9941      9946      9948      9951
      9941      9946      9954      9956      9941      9946      9954      9957
      9943      9941      9946      9948      9943      9941      9946      9954
      9944      9941      9946      9948      9944      9941      9946      9954
      9945      9941      9946      9948      9945      9941      9946      9954
      9946      9948      9951      9953      9946      9948      9951      9957
      9946      9954      9957      9951      9946      9954      9957      9959
      9948      9946      9954      9956      9948      9946      9954      9957
      9948      9951      9957      9954      9948      9951      9957      9959
      9950      9948      9946      9954      9950      9948      9951      9953
      9950      9948      9951      9957      9951      9948      9946      9954
      9951      9957      9954      9956      9953      9951      9957      9954
      9953      9951      9957      9959      9956      9954      9957      9959
      9961      9966      9968      9970      9961      9966      9968      9971
      9961      9966      9974      9976      9961      9966      9974      9977
      9963      9961      9966      9968      9963      9961      9966      9974
      9964      9961      9966      9968      9964      9961      9966      9974
      9965      9961      9966      9968      9965      9961      9966      9974
      9966      9968      9971      9973      9966      9968      9971      9977
      9966      9974      9977      9971      9966      9974      9977      9979
      9968      9966      9974      9976      9968      9966      9974      9977
      9968      9971      9977      9974      9968      9971      9977      9979
      9970      9968      9966      9974      9970      9968      9971      9973
      9970      9968      9971      9977      9971      9968      9966      9974
      9971      9977      9974      9976      9973      9971      9977      9974
      9973      9971      9977      9979      9976      9974      9977      9979
      9981      9986      9988      9990      9981      9986      9988      9991
      9981      9986      9994      9996      9981      9986      9994      9997
      9983      9981      9986      9988      9983      9981      9986      9994
      9984      9981      9986      9988      9984      9981      9986      9994
      9985      9981      9986      9988      9985      9981      9986      9994
      9986      9988      9991      9993      9986      9988      9991      9997
      9986      9994      9997      9991      9986      9994      9997      9999
      9988      9986      9994      9996      9988      9986      9994      9997
      9988      9991      9997      9994      9988      9991      9997      9999
      9990      9988      9986      9994      9990      9988      9991      9993
      9990      9988      9991      9997      9991      9988      9986      9994
      9991      9997      9994      9996      9993      9991      9997      9994
      9993      9991      9997      9999      9996      9994      9997      9999
     10001     10006     10008     10010     10001     10006     10008     10011
     10001     10006     10014     10016     10001     10006     10014     10017
     10003     10001     10006     10008     10003     10001     10006     10014
     10004     10001     10006     10008     10004     10001     10006     10014
     10005     10001     10006     10008     10005     10001     10006     10014
     10006     10008     10011     10013     10006     10008     10011     10017
     10006     10014     10017     10011     10006     10014     10017     10019
     10008     10006     10014     10016     10008     10006     10014     10017
     10008     10011     10017     10014     10008     10011     10017     10019
     10010     10008     10006     10014     10010     10008     10011     10013
     10010     10008     10011     10017     10011     10008     10006     10014
     10011     10017     10014     10016     10013     10011     10017     10014
     10013     10011     10017     10019     10016     10014     10017     10019
     10021     10026     10028     10030     10021     10026     10028     10031
     10021     10026     10034     10036     10021     10026     10034     10037
     10023     10021     10026     10028     10023     10021     10026     10034
     10024     10021     10026     10028     10024     10021     10026     10034
     10025     10021     10026     10028     10025     10021     10026     10034
     10026     10028     10031     10033     10026     10028     10031     10037
     10026     10034     10037     10031     10026     10034     10037     10039
     10028     10026     10034     10036     10028     10026     10034     10037
     10028     10031     10037     10034     10028     10031     10037     10039
     10030     10028     10026     10034     10030     10028     10031     10033
     10030     10028     10031     10037     10031     10028     10026     10034
     10031     10037     10034     10036     10033     10031     10037     10034
     10033     10031     10037     10039     10036     10034     10037     10039
     10041     10046     10048     10050     10041     10046     10048     10051
     10041     10046     10054     10056     10041     10046     10054     10057
     10043     10041     10046     10048     10043     10041     10046     10054
     10044     10041     10046     10048     10044     10041     10046     10054
     10045     10041     10046     10048     10045     10041     10046     10054
     10046     10048     10051     10053     10046     10048     10051     10057
     10046     10054     10057     10051     10046     10054     10057     10059
     10048     10046     10054     10056     10048     10046     10054     10057
     10048     10051     10057     10054     10048     10051     10057     10059
     10050     10048     10046     10054     10050     10048     10051     10053
     10050     10048     10051     10057     10051     10048     10046     10054
     10051     10057     10054     10056     10053     10051     10057     10054
     10053     10051     10057     10059     10056     10054     10057     10059
     10061     10066     10068     10070     10061     10066     10068     10071
     10061     10066     10074     10076     10061     10066     10074     10077
     10063     10061     10066     10068     10063     10061     10066     10074
     10064     10061     10066     10068     10064     10061     10066     10074
     10065     10061     10066     10068     10065     10061     10066     10074
     10066     10068     10071     10073     10066     10068     10071     10077
     10066     10074     10077     10071     10066     10074     10077     10079
     10068     10066     10074     10076     10068     10066     10074     10077
     10068     10071     10077     10074     10068     10071     10077     10079
     10070     10068     10066     10074     10070     10068     10071     10073
     10070     10068     10071     10077     10071     10068     10066     10074
     10071     10077     10074     10076     10073     10071     10077     10074
     10073     10071     10077     10079     10076     10074     10077     10079
     10081     10086     10088     10090     10081     10086     10088     10091
     10081     10086     10094     10096     10081     10086     10094     10097
     10083     10081     10086     10088     10083     10081     10086     10094
     10084     10081     10086     10088     10084     10081     10086     10094
     10085     10081     10086     10088     10085     10081     10086     10094
     10086     10088     10091     10093     10086     10088     10091     10097
     10086     10094     10097     10091     10086     10094     10097     10099
     10088     10086     10094     10096     10088     10086     10094     10097
     10088     10091     10097     10094     10088     10091     10097     10099
     10090     10088     10086     10094     10090     10088     10091     10093
     10090     10088     10091     10097     10091     10088     10086     10094
     10091     10097     10094     10096     10093     10091     10097     10094
     10093     10091     10097     10099     10096     10094     10097     10099
     10101     10106     10108     10110     10101     10106     10108     10111
     10101     10106     10114     10116     10101     10106     10114     10117
     10103     10101     10106     10108     10103     10101     10106     10114
     10104     10101     10106     10108     10104     10101     10106     10114
     10105     10101     10106     10108     10105     10101     10106     10114
     10106     10108     10111     10113     10106     10108     10111     10117
     10106     10114     10117     10111     10106     10114     10117     10119
     10108     10106     10114     10116     10108     10106     10114     10117
     10108     10111     10117     10114     10108     10111     10117     10119
     10110     10108     10106     10114     10110     10108     10111     10113
     10110     10108     10111     10117     10111     10108     10106     10114
     10111     10117     10114     10116     10113     10111     10117     10114
     10113     10111     10117     10119     10116     10114     10117     10119
     10121     10126     10128     10130     10121     10126     10128     10131
     10121     10126     10134     10136     10121     10126     10134     10137
     10123     10121     10126     10128     10123     10121     10126     10134
     10124     10121     10126     10128     10124     10121     10126     10134
     10125     10121     10126     10128     10125     10121     10126     10134
     10126     10128     10131     10133     10126     10128     10131     10137
     10126     10134     10137     10131     10126     10134     10137     10139
     10128     10126     10134     10136     10128     10126     10134     10137
     10128     10131     10137     10134     10128     10131     10137     10139
     10130     10128     10126     10134     10130     10128     10131     10133
     10130     10128     10131     10137     10131     10128     10126     10134
     10131     10137     10134     10136     10133     10131     10137     10134
     10133     10131     10137     10139     10136     10134     10137     10139
     10141     10146     10148     10150     10141     10146     10148     10151
     10141     10146     10154     10156     10141     10146     10154     10157
     10143     10141     10146     10148     10143     10141     10146     10154
     10144     10141     10146     10148     10144     10141     10146     10154
     10145     10141     10146     10148     10145     10141     10146     10154
     10146     10148     10151     10153     10146     10148     10151     10157
     10146     10154     10157     10151     10146     10154     10157     10159
     10148     10146     10154     10156     10148     10146     10154     10157
     10148     10151     10157     10154     10148     10151     10157     10159
     10150     10148     10146     10154     10150     10148     10151     10153
     10150     10148     10151     10157     10151     10148     10146     10154
     10151     10157     10154     10156     10153     10151     10157     10154
     10153     10151     10157     10159     10156     10154     10157     10159
     10161     10166     10168     10170     10161     10166     10168     10171
     10161     10166     10174     10176     10161     10166     10174     10177
     10163     10161     10166     10168     10163     10161     10166     10174
     10164     10161     10166     10168     10164     10161     10166     10174
     10165     10161     10166     10168     10165     10161     10166     10174
     10166     10168     10171     10173     10166     10168     10171     10177
     10166     10174     10177     10171     10166     10174     10177     10179
     10168     10166     10174     10176     10168     10166     10174     10177
     10168     10171     10177     10174     10168     10171     10177     10179
     10170     10168     10166     10174     10170     10168     10171     10173
     10170     10168     10171     10177     10171     10168     10166     10174
     10171     10177     10174     10176     10173     10171     10177     10174
     10173     10171     10177     10179     10176     10174     10177     10179
     10181     10186     10188     10190     10181     10186     10188     10191
     10181     10186     10194     10196     10181     10186     10194     10197
     10183     10181     10186     10188     10183     10181     10186     10194
     10184     10181     10186     10188     10184     10181     10186     10194
     10185     10181     10186     10188     10185     10181     10186     10194
     10186     10188     10191     10193     10186     10188     10191     10197
     10186     10194     10197     10191     10186     10194     10197     10199
     10188     10186     10194     10196     10188     10186     10194     10197
     10188     10191     10197     10194     10188     10191     10197     10199
     10190     10188     10186     10194     10190     10188     10191     10193
     10190     10188     10191     10197     10191     10188     10186     10194
     10191     10197     10194     10196     10193     10191     10197     10194
     10193     10191     10197     10199     10196     10194     10197     10199
     10201     10206     10208     10210     10201     10206     10208     10211
     10201     10206     10214     10216     10201     10206     10214     10217
     10203     10201     10206     10208     10203     10201     10206     10214
     10204     10201     10206     10208     10204     10201     10206     10214
     10205     10201     10206     10208     10205     10201     10206     10214
     10206     10208     10211     10213     10206     10208     10211     10217
     10206     10214     10217     10211     10206     10214     10217     10219
     10208     10206     10214     10216     10208     10206     10214     10217
     10208     10211     10217     10214     10208     10211     10217     10219
     10210     10208     10206     10214     10210     10208     10211     10213
     10210     10208     10211     10217     10211     10208     10206     10214
     10211     10217     10214     10216     10213     10211     10217     10214
     10213     10211     10217     10219     10216     10214     10217     10219
     10221     10226     10228     10230     10221     10226     10228     10231
     10221     10226     10234     10236     10221     10226     10234     10237
     10223     10221     10226     10228     10223     10221     10226     10234
     10224     10221     10226     10228     10224     10221     10226     10234
     10225     10221     10226     10228     10225     10221     10226     10234
     10226     10228     10231     10233     10226     10228     10231     10237
     10226     10234     10237     10231     10226     10234     10237     10239
     10228     10226     10234     10236     10228     10226     10234     10237
     10228     10231     10237     10234     10228     10231     10237     10239
     10230     10228     10226     10234     10230     10228     10231     10233
     10230     10228     10231     10237     10231     10228     10226     10234
     10231     10237     10234     10236     10233     10231     10237     10234
     10233     10231     10237     10239     10236     10234     10237     10239
     10241     10246     10248     10250     10241     10246     10248     10251
     10241     10246     10254     10256     10241     10246     10254     10257
     10243     10241     10246     10248     10243     10241     10246     10254
     10244     10241     10246     10248     10244     10241     10246     10254
     10245     10241     10246     10248     10245     10241     10246     10254
     10246     10248     10251     10253     10246     10248     10251     10257
     10246     10254     10257     10251     10246     10254     10257     10259
     10248     10246     10254     10256     10248     10246     10254     10257
     10248     10251     10257     10254     10248     10251     10257     10259
     10250     10248     10246     10254     10250     10248     10251     10253
     10250     10248     10251     10257     10251     10248     10246     10254
     10251     10257     10254     10256     10253     10251     10257     10254
     10253     10251     10257     10259     10256     10254     10257     10259
     10261     10266     10268     10270     10261     10266     10268     10271
     10261     10266     10274     10276     10261     10266     10274     10277
     10263     10261     10266     10268     10263     10261     10266     10274
     10264     10261     10266     10268     10264     10261     10266     10274
     10265     10261     10266     10268     10265     10261     10266     10274
     10266     10268     10271     10273     10266     10268     10271     10277
     10266     10274     10277     10271     10266     10274     10277     10279
     10268     10266     10274     10276     10268     10266     10274     10277
     10268     10271     10277     10274     10268     10271     10277     10279
     10270     10268     10266     10274     10270     10268     10271     10273
     10270     10268     10271     10277     10271     10268     10266     10274
     10271     10277     10274     10276     10273     10271     10277     10274
     10273     10271     10277     10279     10276     10274     10277     10279
     10281     10286     10288     10290     10281     10286     10288     10291
     10281     10286     10294     10296     10281     10286     10294     10297
     10283     10281     10286     10288     10283     10281     10286     10294
     10284     10281     10286     10288     10284     10281     10286     10294
     10285     10281     10286     10288     10285     10281     10286     10294
     10286     10288     10291     10293     10286     10288     10291     10297
     10286     10294     10297     10291     10286     10294     10297     10299
     10288     10286     10294     10296     10288     10286     10294     10297
     10288     10291     10297     10294     10288     10291     10297     10299
     10290     10288     10286     10294     10290     10288     10291     10293
     10290     10288     10291     10297     10291     10288     10286     10294
     10291     10297     10294     10296     10293     10291     10297     10294
     10293     10291     10297     10299     10296     10294     10297     10299
     10301     10306     10308     10310     10301     10306     10308     10311
     10301     10306     10314     10316     10301     10306     10314     10317
     10303     10301     10306     10308     10303     10301     10306     10314
     10304     10301     10306     10308     10304     10301     10306     10314
     10305     10301     10306     10308     10305     10301     10306     10314
     10306     10308     10311     10313     10306     10308     10311     10317
     10306     10314     10317     10311     10306     10314     10317     10319
     10308     10306     10314     10316     10308     10306     10314     10317
     10308     10311     10317     10314     10308     10311     10317     10319
     10310     10308     10306     10314     10310     10308     10311     10313
     10310     10308     10311     10317     10311     10308     10306     10314
     10311     10317     10314     10316     10313     10311     10317     10314
     10313     10311     10317     10319     10316     10314     10317     10319
     10321     10326     10328     10330     10321     10326     10328     10331
     10321     10326     10334     10336     10321     10326     10334     10337
     10323     10321     10326     10328     10323     10321     10326     10334
     10324     10321     10326     10328     10324     10321     10326     10334
     10325     10321     10326     10328     10325     10321     10326     10334
     10326     10328     10331     10333     10326     10328     10331     10337
     10326     10334     10337     10331     10326     10334     10337     10339
     10328     10326     10334     10336     10328     10326     10334     10337
     10328     10331     10337     10334     10328     10331     10337     10339
     10330     10328     10326     10334     10330     10328     10331     10333
     10330     10328     10331     10337     10331     10328     10326     10334
     10331     10337     10334     10336     10333     10331     10337     10334
     10333     10331     10337     10339     10336     10334     10337     10339
     10341     10346     10348     10350     10341     10346     10348     10351
     10341     10346     10354     10356     10341     10346     10354     10357
     10343     10341     10346     10348     10343     10341     10346     10354
     10344     10341     10346     10348     10344     10341     10346     10354
     10345     10341     10346     10348     10345     10341     10346     10354
     10346     10348     10351     10353     10346     10348     10351     10357
     10346     10354     10357     10351     10346     10354     10357     10359
     10348     10346     10354     10356     10348     10346     10354     10357
     10348     10351     10357     10354     10348     10351     10357     10359
     10350     10348     10346     10354     10350     10348     10351     10353
     10350     10348     10351     10357     10351     10348     10346     10354
     10351     10357     10354     10356     10353     10351     10357     10354
     10353     10351     10357     10359     10356     10354     10357     10359
     10361     10366     10368     10370     10361     10366     10368     10371
     10361     10366     10374     10376     10361     10366     10374     10377
     10363     10361     10366     10368     10363     10361     10366     10374
     10364     10361     10366     10368     10364     10361     10366     10374
     10365     10361     10366     10368     10365     10361     10366     10374
     10366     10368     10371     10373     10366     10368     10371     10377
     10366     10374     10377     10371     10366     10374     10377     10379
     10368     10366     10374     10376     10368     10366     10374     10377
     10368     10371     10377     10374     10368     10371     10377     10379
     10370     10368     10366     10374     10370     10368     10371     10373
     10370     10368     10371     10377     10371     10368     10366     10374
     10371     10377     10374     10376     10373     10371     10377     10374
     10373     10371     10377     10379     10376     10374     10377     10379
     10381     10386     10388     10390     10381     10386     10388     10391
     10381     10386     10394     10396     10381     10386     10394     10397
     10383     10381     10386     10388     10383     10381     10386     10394
     10384     10381     10386     10388     10384     10381     10386     10394
     10385     10381     10386     10388     10385     10381     10386     10394
     10386     10388     10391     10393     10386     10388     10391     10397
     10386     10394     10397     10391     10386     10394     10397     10399
     10388     10386     10394     10396     10388     10386     10394     10397
     10388     10391     10397     10394     10388     10391     10397     10399
     10390     10388     10386     10394     10390     10388     10391     10393
     10390     10388     10391     10397     10391     10388     10386     10394
     10391     10397     10394     10396     10393     10391     10397     10394
     10393     10391     10397     10399     10396     10394     10397     10399
     10401     10406     10408     10410     10401     10406     10408     10411
     10401     10406     10414     10416     10401     10406     10414     10417
     10403     10401     10406     10408     10403     10401     10406     10414
     10404     10401     10406     10408     10404     10401     10406     10414
     10405     10401     10406     10408     10405     10401     10406     10414
     10406     10408     10411     10413     10406     10408     10411     10417
     10406     10414     10417     10411     10406     10414     10417     10419
     10408     10406     10414     10416     10408     10406     10414     10417
     10408     10411     10417     10414     10408     10411     10417     10419
     10410     10408     10406     10414     10410     10408     10411     10413
     10410     10408     10411     10417     10411     10408     10406     10414
     10411     10417     10414     10416     10413     10411     10417     10414
     10413     10411     10417     10419     10416     10414     10417     10419
     10421     10426     10428     10430     10421     10426     10428     10431
     10421     10426     10434     10436     10421     10426     10434     10437
     10423     10421     10426     10428     10423     10421     10426     10434
     10424     10421     10426     10428     10424     10421     10426     10434
     10425     10421     10426     10428     10425     10421     10426     10434
     10426     10428     10431     10433     10426     10428     10431     10437
     10426     10434     10437     10431     10426     10434     10437     10439
     10428     10426     10434     10436     10428     10426     10434     10437
     10428     10431     10437     10434     10428     10431     10437     10439
     10430     10428     10426     10434     10430     10428     10431     10433
     10430     10428     10431     10437     10431     10428     10426     10434
     10431     10437     10434     10436     10433     10431     10437     10434
     10433     10431     10437     10439     10436     10434     10437     10439
     10441     10446     10448     10450     10441     10446     10448     10451
     10441     10446     10454     10456     10441     10446     10454     10457
     10443     10441     10446     10448     10443     10441     10446     10454
     10444     10441     10446     10448     10444     10441     10446     10454
     10445     10441     10446     10448     10445     10441     10446     10454
     10446     10448     10451     10453     10446     10448     10451     10457
     10446     10454     10457     10451     10446     10454     10457     10459
     10448     10446     10454     10456     10448     10446     10454     10457
     10448     10451     10457     10454     10448     10451     10457     10459
     10450     10448     10446     10454     10450     10448     10451     10453
     10450     10448     10451     10457     10451     10448     10446     10454
     10451     10457     10454     10456     10453     10451     10457     10454
     10453     10451     10457     10459     10456     10454     10457     10459
     10461     10466     10468     10470     10461     10466     10468     10471
     10461     10466     10474     10476     10461     10466     10474     10477
     10463     10461     10466     10468     10463     10461     10466     10474
     10464     10461     10466     10468     10464     10461     10466     10474
     10465     10461     10466     10468     10465     10461     10466     10474
     10466     10468     10471     10473     10466     10468     10471     10477
     10466     10474     10477     10471     10466     10474     10477     10479
     10468     10466     10474     10476     10468     10466     10474     10477
     10468     10471     10477     10474     10468     10471     10477     10479
     10470     10468     10466     10474     10470     10468     10471     10473
     10470     10468     10471     10477     10471     10468     10466     10474
     10471     10477     10474     10476     10473     10471     10477     10474
     10473     10471     10477     10479     10476     10474     10477     10479
     10481     10486     10488     10490     10481     10486     10488     10491
     10481     10486     10494     10496     10481     10486     10494     10497
     10483     10481     10486     10488     10483     10481     10486     10494
     10484     10481     10486     10488     10484     10481     10486     10494
     10485     10481     10486     10488     10485     10481     10486     10494
     10486     10488     10491     10493     10486     10488     10491     10497
     10486     10494     10497     10491     10486     10494     10497     10499
     10488     10486     10494     10496     10488     10486     10494     10497
     10488     10491     10497     10494     10488     10491     10497     10499
     10490     10488     10486     10494     10490     10488     10491     10493
     10490     10488     10491     10497     10491     10488     10486     10494
     10491     10497     10494     10496     10493     10491     10497     10494
     10493     10491     10497     10499     10496     10494     10497     10499
     10501     10506     10508     10510     10501     10506     10508     10511
     10501     10506     10514     10516     10501     10506     10514     10517
     10503     10501     10506     10508     10503     10501     10506     10514
     10504     10501     10506     10508     10504     10501     10506     10514
     10505     10501     10506     10508     10505     10501     10506     10514
     10506     10508     10511     10513     10506     10508     10511     10517
     10506     10514     10517     10511     10506     10514     10517     10519
     10508     10506     10514     10516     10508     10506     10514     10517
     10508     10511     10517     10514     10508     10511     10517     10519
     10510     10508     10506     10514     10510     10508     10511     10513
     10510     10508     10511     10517     10511     10508     10506     10514
     10511     10517     10514     10516     10513     10511     10517     10514
     10513     10511     10517     10519     10516     10514     10517     10519
     10521     10526     10528     10530     10521     10526     10528     10531
     10521     10526     10534     10536     10521     10526     10534     10537
     10523     10521     10526     10528     10523     10521     10526     10534
     10524     10521     10526     10528     10524     10521     10526     10534
     10525     10521     10526     10528     10525     10521     10526     10534
     10526     10528     10531     10533     10526     10528     10531     10537
     10526     10534     10537     10531     10526     10534     10537     10539
     10528     10526     10534     10536     10528     10526     10534     10537
     10528     10531     10537     10534     10528     10531     10537     10539
     10530     10528     10526     10534     10530     10528     10531     10533
     10530     10528     10531     10537     10531     10528     10526     10534
     10531     10537     10534     10536     10533     10531     10537     10534
     10533     10531     10537     10539     10536     10534     10537     10539
     10541     10546     10548     10550     10541     10546     10548     10551
     10541     10546     10554     10556     10541     10546     10554     10557
     10543     10541     10546     10548     10543     10541     10546     10554
     10544     10541     10546     10548     10544     10541     10546     10554
     10545     10541     10546     10548     10545     10541     10546     10554
     10546     10548     10551     10553     10546     10548     10551     10557
     10546     10554     10557     10551     10546     10554     10557     10559
     10548     10546     10554     10556     10548     10546     10554     10557
     10548     10551     10557     10554     10548     10551     10557     10559
     10550     10548     10546     10554     10550     10548     10551     10553
     10550     10548     10551     10557     10551     10548     10546     10554
     10551     10557     10554     10556     10553     10551     10557     10554
     10553     10551     10557     10559     10556     10554     10557     10559
     10561     10566     10568     10570     10561     10566     10568     10571
     10561     10566     10574     10576     10561     10566     10574     10577
     10563     10561     10566     10568     10563     10561     10566     10574
     10564     10561     10566     10568     10564     10561     10566     10574
     10565     10561     10566     10568     10565     10561     10566     10574
     10566     10568     10571     10573     10566     10568     10571     10577
     10566     10574     10577     10571     10566     10574     10577     10579
     10568     10566     10574     10576     10568     10566     10574     10577
     10568     10571     10577     10574     10568     10571     10577     10579
     10570     10568     10566     10574     10570     10568     10571     10573
     10570     10568     10571     10577     10571     10568     10566     10574
     10571     10577     10574     10576     10573     10571     10577     10574
     10573     10571     10577     10579     10576     10574     10577     10579
     10581     10586     10588     10590     10581     10586     10588     10591
     10581     10586     10594     10596     10581     10586     10594     10597
     10583     10581     10586     10588     10583     10581     10586     10594
     10584     10581     10586     10588     10584     10581     10586     10594
     10585     10581     10586     10588     10585     10581     10586     10594
     10586     10588     10591     10593     10586     10588     10591     10597
     10586     10594     10597     10591     10586     10594     10597     10599
     10588     10586     10594     10596     10588     10586     10594     10597
     10588     10591     10597     10594     10588     10591     10597     10599
     10590     10588     10586     10594     10590     10588     10591     10593
     10590     10588     10591     10597     10591     10588     10586     10594
     10591     10597     10594     10596     10593     10591     10597     10594
     10593     10591     10597     10599     10596     10594     10597     10599
     10601     10606     10608     10610     10601     10606     10608     10611
     10601     10606     10614     10616     10601     10606     10614     10617
     10603     10601     10606     10608     10603     10601     10606     10614
     10604     10601     10606     10608     10604     10601     10606     10614
     10605     10601     10606     10608     10605     10601     10606     10614
     10606     10608     10611     10613     10606     10608     10611     10617
     10606     10614     10617     10611     10606     10614     10617     10619
     10608     10606     10614     10616     10608     10606     10614     10617
     10608     10611     10617     10614     10608     10611     10617     10619
     10610     10608     10606     10614     10610     10608     10611     10613
     10610     10608     10611     10617     10611     10608     10606     10614
     10611     10617     10614     10616     10613     10611     10617     10614
     10613     10611     10617     10619     10616     10614     10617     10619
     10621     10626     10628     10630     10621     10626     10628     10631
     10621     10626     10634     10636     10621     10626     10634     10637
     10623     10621     10626     10628     10623     10621     10626     10634
     10624     10621     10626     10628     10624     10621     10626     10634
     10625     10621     10626     10628     10625     10621     10626     10634
     10626     10628     10631     10633     10626     10628     10631     10637
     10626     10634     10637     10631     10626     10634     10637     10639
     10628     10626     10634     10636     10628     10626     10634     10637
     10628     10631     10637     10634     10628     10631     10637     10639
     10630     10628     10626     10634     10630     10628     10631     10633
     10630     10628     10631     10637     10631     10628     10626     10634
     10631     10637     10634     10636     10633     10631     10637     10634
     10633     10631     10637     10639     10636     10634     10637     10639
     10641     10646     10648     10650     10641     10646     10648     10651
     10641     10646     10654     10656     10641     10646     10654     10657
     10643     10641     10646     10648     10643     10641     10646     10654
     10644     10641     10646     10648     10644     10641     10646     10654
     10645     10641     10646     10648     10645     10641     10646     10654
     10646     10648     10651     10653     10646     10648     10651     10657
     10646     10654     10657     10651     10646     10654     10657     10659
     10648     10646     10654     10656     10648     10646     10654     10657
     10648     10651     10657     10654     10648     10651     10657     10659
     10650     10648     10646     10654     10650     10648     10651     10653
     10650     10648     10651     10657     10651     10648     10646     10654
     10651     10657     10654     10656     10653     10651     10657     10654
     10653     10651     10657     10659     10656     10654     10657     10659
     10661     10666     10668     10670     10661     10666     10668     10671
     10661     10666     10674     10676     10661     10666     10674     10677
     10663     10661     10666     10668     10663     10661     10666     10674
     10664     10661     10666     10668     10664     10661     10666     10674
     10665     10661     10666     10668     10665     10661     10666     10674
     10666     10668     10671     10673     10666     10668     10671     10677
     10666     10674     10677     10671     10666     10674     10677     10679
     10668     10666     10674     10676     10668     10666     10674     10677
     10668     10671     10677     10674     10668     10671     10677     10679
     10670     10668     10666     10674     10670     10668     10671     10673
     10670     10668     10671     10677     10671     10668     10666     10674
     10671     10677     10674     10676     10673     10671     10677     10674
     10673     10671     10677     10679     10676     10674     10677     10679
     10681     10686     10688     10690     10681     10686     10688     10691
     10681     10686     10694     10696     10681     10686     10694     10697
     10683     10681     10686     10688     10683     10681     10686     10694
     10684     10681     10686     10688     10684     10681     10686     10694
     10685     10681     10686     10688     10685     10681     10686     10694
     10686     10688     10691     10693     10686     10688     10691     10697
     10686     10694     10697     10691     10686     10694     10697     10699
     10688     10686     10694     10696     10688     10686     10694     10697
     10688     10691     10697     10694     10688     10691     10697     10699
     10690     10688     10686     10694     10690     10688     10691     10693
     10690     10688     10691     10697     10691     10688     10686     10694
     10691     10697     10694     10696     10693     10691     10697     10694
     10693     10691     10697     10699     10696     10694     10697     10699
     10701     10706     10708     10710     10701     10706     10708     10711
     10701     10706     10714     10716     10701     10706     10714     10717
     10703     10701     10706     10708     10703     10701     10706     10714
     10704     10701     10706     10708     10704     10701     10706     10714
     10705     10701     10706     10708     10705     10701     10706     10714
     10706     10708     10711     10713     10706     10708     10711     10717
     10706     10714     10717     10711     10706     10714     10717     10719
     10708     10706     10714     10716     10708     10706     10714     10717
     10708     10711     10717     10714     10708     10711     10717     10719
     10710     10708     10706     10714     10710     10708     10711     10713
     10710     10708     10711     10717     10711     10708     10706     10714
     10711     10717     10714     10716     10713     10711     10717     10714
     10713     10711     10717     10719     10716     10714     10717     10719
     10721     10726     10728     10730     10721     10726     10728     10731
     10721     10726     10734     10736     10721     10726     10734     10737
     10723     10721     10726     10728     10723     10721     10726     10734
     10724     10721     10726     10728     10724     10721     10726     10734
     10725     10721     10726     10728     10725     10721     10726     10734
     10726     10728     10731     10733     10726     10728     10731     10737
     10726     10734     10737     10731     10726     10734     10737     10739
     10728     10726     10734     10736     10728     10726     10734     10737
     10728     10731     10737     10734     10728     10731     10737     10739
     10730     10728     10726     10734     10730     10728     10731     10733
     10730     10728     10731     10737     10731     10728     10726     10734
     10731     10737     10734     10736     10733     10731     10737     10734
     10733     10731     10737     10739     10736     10734     10737     10739
     10741     10746     10748     10750     10741     10746     10748     10751
     10741     10746     10754     10756     10741     10746     10754     10757
     10743     10741     10746     10748     10743     10741     10746     10754
     10744     10741     10746     10748     10744     10741     10746     10754
     10745     10741     10746     10748     10745     10741     10746     10754
     10746     10748     10751     10753     10746     10748     10751     10757
     10746     10754     10757     10751     10746     10754     10757     10759
     10748     10746     10754     10756     10748     10746     10754     10757
     10748     10751     10757     10754     10748     10751     10757     10759
     10750     10748     10746     10754     10750     10748     10751     10753
     10750     10748     10751     10757     10751     10748     10746     10754
     10751     10757     10754     10756     10753     10751     10757     10754
     10753     10751     10757     10759     10756     10754     10757     10759
     10761     10766     10768     10770     10761     10766     10768     10771
     10761     10766     10774     10776     10761     10766     10774     10777
     10763     10761     10766     10768     10763     10761     10766     10774
     10764     10761     10766     10768     10764     10761     10766     10774
     10765     10761     10766     10768     10765     10761     10766     10774
     10766     10768     10771     10773     10766     10768     10771     10777
     10766     10774     10777     10771     10766     10774     10777     10779
     10768     10766     10774     10776     10768     10766     10774     10777
     10768     10771     10777     10774     10768     10771     10777     10779
     10770     10768     10766     10774     10770     10768     10771     10773
     10770     10768     10771     10777     10771     10768     10766     10774
     10771     10777     10774     10776     10773     10771     10777     10774
     10773     10771     10777     10779     10776     10774     10777     10779
     10781     10786     10788     10790     10781     10786     10788     10791
     10781     10786     10794     10796     10781     10786     10794     10797
     10783     10781     10786     10788     10783     10781     10786     10794
     10784     10781     10786     10788     10784     10781     10786     10794
     10785     10781     10786     10788     10785     10781     10786     10794
     10786     10788     10791     10793     10786     10788     10791     10797
     10786     10794     10797     10791     10786     10794     10797     10799
     10788     10786     10794     10796     10788     10786     10794     10797
     10788     10791     10797     10794     10788     10791     10797     10799
     10790     10788     10786     10794     10790     10788     10791     10793
     10790     10788     10791     10797     10791     10788     10786     10794
     10791     10797     10794     10796     10793     10791     10797     10794
     10793     10791     10797     10799     10796     10794     10797     10799
     10801     10806     10808     10810     10801     10806     10808     10811
     10801     10806     10814     10816     10801     10806     10814     10817
     10803     10801     10806     10808     10803     10801     10806     10814
     10804     10801     10806     10808     10804     10801     10806     10814
     10805     10801     10806     10808     10805     10801     10806     10814
     10806     10808     10811     10813     10806     10808     10811     10817
     10806     10814     10817     10811     10806     10814     10817     10819
     10808     10806     10814     10816     10808     10806     10814     10817
     10808     10811     10817     10814     10808     10811     10817     10819
     10810     10808     10806     10814     10810     10808     10811     10813
     10810     10808     10811     10817     10811     10808     10806     10814
     10811     10817     10814     10816     10813     10811     10817     10814
     10813     10811     10817     10819     10816     10814     10817     10819
     10821     10826     10828     10830     10821     10826     10828     10831
     10821     10826     10834     10836     10821     10826     10834     10837
     10823     10821     10826     10828     10823     10821     10826     10834
     10824     10821     10826     10828     10824     10821     10826     10834
     10825     10821     10826     10828     10825     10821     10826     10834
     10826     10828     10831     10833     10826     10828     10831     10837
     10826     10834     10837     10831     10826     10834     10837     10839
     10828     10826     10834     10836     10828     10826     10834     10837
     10828     10831     10837     10834     10828     10831     10837     10839
     10830     10828     10826     10834     10830     10828     10831     10833
     10830     10828     10831     10837     10831     10828     10826     10834
     10831     10837     10834     10836     10833     10831     10837     10834
     10833     10831     10837     10839     10836     10834     10837     10839
     10841     10846     10848     10850     10841     10846     10848     10851
     10841     10846     10854     10856     10841     10846     10854     10857
     10843     10841     10846     10848     10843     10841     10846     10854
     10844     10841     10846     10848     10844     10841     10846     10854
     10845     10841     10846     10848     10845     10841     10846     10854
     10846     10848     10851     10853     10846     10848     10851     10857
     10846     10854     10857     10851     10846     10854     10857     10859
     10848     10846     10854     10856     10848     10846     10854     10857
     10848     10851     10857     10854     10848     10851     10857     10859
     10850     10848     10846     10854     10850     10848     10851     10853
     10850     10848     10851     10857     10851     10848     10846     10854
     10851     10857     10854     10856     10853     10851     10857     10854
     10853     10851     10857     10859     10856     10854     10857     10859
     10861     10866     10868     10870     10861     10866     10868     10871
     10861     10866     10874     10876     10861     10866     10874     10877
     10863     10861     10866     10868     10863     10861     10866     10874
     10864     10861     10866     10868     10864     10861     10866     10874
     10865     10861     10866     10868     10865     10861     10866     10874
     10866     10868     10871     10873     10866     10868     10871     10877
     10866     10874     10877     10871     10866     10874     10877     10879
     10868     10866     10874     10876     10868     10866     10874     10877
     10868     10871     10877     10874     10868     10871     10877     10879
     10870     10868     10866     10874     10870     10868     10871     10873
     10870     10868     10871     10877     10871     10868     10866     10874
     10871     10877     10874     10876     10873     10871     10877     10874
     10873     10871     10877     10879     10876     10874     10877     10879
     10881     10886     10888     10890     10881     10886     10888     10891
     10881     10886     10894     10896     10881     10886     10894     10897
     10883     10881     10886     10888     10883     10881     10886     10894
     10884     10881     10886     10888     10884     10881     10886     10894
     10885     10881     10886     10888     10885     10881     10886     10894
     10886     10888     10891     10893     10886     10888     10891     10897
     10886     10894     10897     10891     10886     10894     10897     10899
     10888     10886     10894     10896     10888     10886     10894     10897
     10888     10891     10897     10894     10888     10891     10897     10899
     10890     10888     10886     10894     10890     10888     10891     10893
     10890     10888     10891     10897     10891     10888     10886     10894
     10891     10897     10894     10896     10893     10891     10897     10894
     10893     10891     10897     10899     10896     10894     10897     10899
     10901     10906     10908     10910     10901     10906     10908     10911
     10901     10906     10914     10916     10901     10906     10914     10917
     10903     10901     10906     10908     10903     10901     10906     10914
     10904     10901     10906     10908     10904     10901     10906     10914
     10905     10901     10906     10908     10905     10901     10906     10914
     10906     10908     10911     10913     10906     10908     10911     10917
     10906     10914     10917     10911     10906     10914     10917     10919
     10908     10906     10914     10916     10908     10906     10914     10917
     10908     10911     10917     10914     10908     10911     10917     10919
     10910     10908     10906     10914     10910     10908     10911     10913
     10910     10908     10911     10917     10911     10908     10906     10914
     10911     10917     10914     10916     10913     10911     10917     10914
     10913     10911     10917     10919     10916     10914     10917     10919
     10921     10926     10928     10930     10921     10926     10928     10931
     10921     10926     10934     10936     10921     10926     10934     10937
     10923     10921     10926     10928     10923     10921     10926     10934
     10924     10921     10926     10928     10924     10921     10926     10934
     10925     10921     10926     10928     10925     10921     10926     10934
     10926     10928     10931     10933     10926     10928     10931     10937
     10926     10934     10937     10931     10926     10934     10937     10939
     10928     10926     10934     10936     10928     10926     10934     10937
     10928     10931     10937     10934     10928     10931     10937     10939
     10930     10928     10926     10934     10930     10928     10931     10933
     10930     10928     10931     10937     10931     10928     10926     10934
     10931     10937     10934     10936     10933     10931     10937     10934
     10933     10931     10937     10939     10936     10934     10937     10939
     10941     10946     10948     10950     10941     10946     10948     10951
     10941     10946     10954     10956     10941     10946     10954     10957
     10943     10941     10946     10948     10943     10941     10946     10954
     10944     10941     10946     10948     10944     10941     10946     10954
     10945     10941     10946     10948     10945     10941     10946     10954
     10946     10948     10951     10953     10946     10948     10951     10957
     10946     10954     10957     10951     10946     10954     10957     10959
     10948     10946     10954     10956     10948     10946     10954     10957
     10948     10951     10957     10954     10948     10951     10957     10959
     10950     10948     10946     10954     10950     10948     10951     10953
     10950     10948     10951     10957     10951     10948     10946     10954
     10951     10957     10954     10956     10953     10951     10957     10954
     10953     10951     10957     10959     10956     10954     10957     10959
     10961     10966     10968     10970     10961     10966     10968     10971
     10961     10966     10974     10976     10961     10966     10974     10977
     10963     10961     10966     10968     10963     10961     10966     10974
     10964     10961     10966     10968     10964     10961     10966     10974
     10965     10961     10966     10968     10965     10961     10966     10974
     10966     10968     10971     10973     10966     10968     10971     10977
     10966     10974     10977     10971     10966     10974     10977     10979
     10968     10966     10974     10976     10968     10966     10974     10977
     10968     10971     10977     10974     10968     10971     10977     10979
     10970     10968     10966     10974     10970     10968     10971     10973
     10970     10968     10971     10977     10971     10968     10966     10974
     10971     10977     10974     10976     10973     10971     10977     10974
     10973     10971     10977     10979     10976     10974     10977     10979
     10981     10986     10988     10990     10981     10986     10988     10991
     10981     10986     10994     10996     10981     10986     10994     10997
     10983     10981     10986     10988     10983     10981     10986     10994
     10984     10981     10986     10988     10984     10981     10986     10994
     10985     10981     10986     10988     10985     10981     10986     10994
     10986     10988     10991     10993     10986     10988     10991     10997
     10986     10994     10997     10991     10986     10994     10997     10999
     10988     10986     10994     10996     10988     10986     10994     10997
     10988     10991     10997     10994     10988     10991     10997     10999
     10990     10988     10986     10994     10990     10988     10991     10993
     10990     10988     10991     10997     10991     10988     10986     10994
     10991     10997     10994     10996     10993     10991     10997     10994
     10993     10991     10997     10999     10996     10994     10997     10999
     11001     11006     11008     11010     11001     11006     11008     11011
     11001     11006     11014     11016     11001     11006     11014     11017
     11003     11001     11006     11008     11003     11001     11006     11014
     11004     11001     11006     11008     11004     11001     11006     11014
     11005     11001     11006     11008     11005     11001     11006     11014
     11006     11008     11011     11013     11006     11008     11011     11017
     11006     11014     11017     11011     11006     11014     11017     11019
     11008     11006     11014     11016     11008     11006     11014     11017
     11008     11011     11017     11014     11008     11011     11017     11019
     11010     11008     11006     11014     11010     11008     11011     11013
     11010     11008     11011     11017     11011     11008     11006     11014
     11011     11017     11014     11016     11013     11011     11017     11014
     11013     11011     11017     11019     11016     11014     11017     11019
     11021     11026     11028     11030     11021     11026     11028     11031
     11021     11026     11034     11036     11021     11026     11034     11037
     11023     11021     11026     11028     11023     11021     11026     11034
     11024     11021     11026     11028     11024     11021     11026     11034
     11025     11021     11026     11028     11025     11021     11026     11034
     11026     11028     11031     11033     11026     11028     11031     11037
     11026     11034     11037     11031     11026     11034     11037     11039
     11028     11026     11034     11036     11028     11026     11034     11037
     11028     11031     11037     11034     11028     11031     11037     11039
     11030     11028     11026     11034     11030     11028     11031     11033
     11030     11028     11031     11037     11031     11028     11026     11034
     11031     11037     11034     11036     11033     11031     11037     11034
     11033     11031     11037     11039     11036     11034     11037     11039
     11041     11046     11048     11050     11041     11046     11048     11051
     11041     11046     11054     11056     11041     11046     11054     11057
     11043     11041     11046     11048     11043     11041     11046     11054
     11044     11041     11046     11048     11044     11041     11046     11054
     11045     11041     11046     11048     11045     11041     11046     11054
     11046     11048     11051     11053     11046     11048     11051     11057
     11046     11054     11057     11051     11046     11054     11057     11059
     11048     11046     11054     11056     11048     11046     11054     11057
     11048     11051     11057     11054     11048     11051     11057     11059
     11050     11048     11046     11054     11050     11048     11051     11053
     11050     11048     11051     11057     11051     11048     11046     11054
     11051     11057     11054     11056     11053     11051     11057     11054
     11053     11051     11057     11059     11056     11054     11057     11059
     11061     11066     11068     11070     11061     11066     11068     11071
     11061     11066     11074     11076     11061     11066     11074     11077
     11063     11061     11066     11068     11063     11061     11066     11074
     11064     11061     11066     11068     11064     11061     11066     11074
     11065     11061     11066     11068     11065     11061     11066     11074
     11066     11068     11071     11073     11066     11068     11071     11077
     11066     11074     11077     11071     11066     11074     11077     11079
     11068     11066     11074     11076     11068     11066     11074     11077
     11068     11071     11077     11074     11068     11071     11077     11079
     11070     11068     11066     11074     11070     11068     11071     11073
     11070     11068     11071     11077     11071     11068     11066     11074
     11071     11077     11074     11076     11073     11071     11077     11074
     11073     11071     11077     11079     11076     11074     11077     11079
     11081     11086     11088     11090     11081     11086     11088     11091
     11081     11086     11094     11096     11081     11086     11094     11097
     11083     11081     11086     11088     11083     11081     11086     11094
     11084     11081     11086     11088     11084     11081     11086     11094
     11085     11081     11086     11088     11085     11081     11086     11094
     11086     11088     11091     11093     11086     11088     11091     11097
     11086     11094     11097     11091     11086     11094     11097     11099
     11088     11086     11094     11096     11088     11086     11094     11097
     11088     11091     11097     11094     11088     11091     11097     11099
     11090     11088     11086     11094     11090     11088     11091     11093
     11090     11088     11091     11097     11091     11088     11086     11094
     11091     11097     11094     11096     11093     11091     11097     11094
     11093     11091     11097     11099     11096     11094     11097     11099
     11101     11106     11108     11110     11101     11106     11108     11111
     11101     11106     11114     11116     11101     11106     11114     11117
     11103     11101     11106     11108     11103     11101     11106     11114
     11104     11101     11106     11108     11104     11101     11106     11114
     11105     11101     11106     11108     11105     11101     11106     11114
     11106     11108     11111     11113     11106     11108     11111     11117
     11106     11114     11117     11111     11106     11114     11117     11119
     11108     11106     11114     11116     11108     11106     11114     11117
     11108     11111     11117     11114     11108     11111     11117     11119
     11110     11108     11106     11114     11110     11108     11111     11113
     11110     11108     11111     11117     11111     11108     11106     11114
     11111     11117     11114     11116     11113     11111     11117     11114
     11113     11111     11117     11119     11116     11114     11117     11119
     11121     11126     11128     11130     11121     11126     11128     11131
     11121     11126     11134     11136     11121     11126     11134     11137
     11123     11121     11126     11128     11123     11121     11126     11134
     11124     11121     11126     11128     11124     11121     11126     11134
     11125     11121     11126     11128     11125     11121     11126     11134
     11126     11128     11131     11133     11126     11128     11131     11137
     11126     11134     11137     11131     11126     11134     11137     11139
     11128     11126     11134     11136     11128     11126     11134     11137
     11128     11131     11137     11134     11128     11131     11137     11139
     11130     11128     11126     11134     11130     11128     11131     11133
     11130     11128     11131     11137     11131     11128     11126     11134
     11131     11137     11134     11136     11133     11131     11137     11134
     11133     11131     11137     11139     11136     11134     11137     11139
     11141     11146     11148     11150     11141     11146     11148     11151
     11141     11146     11154     11156     11141     11146     11154     11157
     11143     11141     11146     11148     11143     11141     11146     11154
     11144     11141     11146     11148     11144     11141     11146     11154
     11145     11141     11146     11148     11145     11141     11146     11154
     11146     11148     11151     11153     11146     11148     11151     11157
     11146     11154     11157     11151     11146     11154     11157     11159
     11148     11146     11154     11156     11148     11146     11154     11157
     11148     11151     11157     11154     11148     11151     11157     11159
     11150     11148     11146     11154     11150     11148     11151     11153
     11150     11148     11151     11157     11151     11148     11146     11154
     11151     11157     11154     11156     11153     11151     11157     11154
     11153     11151     11157     11159     11156     11154     11157     11159
     11161     11166     11168     11170     11161     11166     11168     11171
     11161     11166     11174     11176     11161     11166     11174     11177
     11163     11161     11166     11168     11163     11161     11166     11174
     11164     11161     11166     11168     11164     11161     11166     11174
     11165     11161     11166     11168     11165     11161     11166     11174
     11166     11168     11171     11173     11166     11168     11171     11177
     11166     11174     11177     11171     11166     11174     11177     11179
     11168     11166     11174     11176     11168     11166     11174     11177
     11168     11171     11177     11174     11168     11171     11177     11179
     11170     11168     11166     11174     11170     11168     11171     11173
     11170     11168     11171     11177     11171     11168     11166     11174
     11171     11177     11174     11176     11173     11171     11177     11174
     11173     11171     11177     11179     11176     11174     11177     11179
     11181     11186     11188     11190     11181     11186     11188     11191
     11181     11186     11194     11196     11181     11186     11194     11197
     11183     11181     11186     11188     11183     11181     11186     11194
     11184     11181     11186     11188     11184     11181     11186     11194
     11185     11181     11186     11188     11185     11181     11186     11194
     11186     11188     11191     11193     11186     11188     11191     11197
     11186     11194     11197     11191     11186     11194     11197     11199
     11188     11186     11194     11196     11188     11186     11194     11197
     11188     11191     11197     11194     11188     11191     11197     11199
     11190     11188     11186     11194     11190     11188     11191     11193
     11190     11188     11191     11197     11191     11188     11186     11194
     11191     11197     11194     11196     11193     11191     11197     11194
     11193     11191     11197     11199     11196     11194     11197     11199
     11201     11206     11208     11210     11201     11206     11208     11211
     11201     11206     11214     11216     11201     11206     11214     11217
     11203     11201     11206     11208     11203     11201     11206     11214
     11204     11201     11206     11208     11204     11201     11206     11214
     11205     11201     11206     11208     11205     11201     11206     11214
     11206     11208     11211     11213     11206     11208     11211     11217
     11206     11214     11217     11211     11206     11214     11217     11219
     11208     11206     11214     11216     11208     11206     11214     11217
     11208     11211     11217     11214     11208     11211     11217     11219
     11210     11208     11206     11214     11210     11208     11211     11213
     11210     11208     11211     11217     11211     11208     11206     11214
     11211     11217     11214     11216     11213     11211     11217     11214
     11213     11211     11217     11219     11216     11214     11217     11219
     11221     11226     11228     11230     11221     11226     11228     11231
     11221     11226     11234     11236     11221     11226     11234     11237
     11223     11221     11226     11228     11223     11221     11226     11234
     11224     11221     11226     11228     11224     11221     11226     11234
     11225     11221     11226     11228     11225     11221     11226     11234
     11226     11228     11231     11233     11226     11228     11231     11237
     11226     11234     11237     11231     11226     11234     11237     11239
     11228     11226     11234     11236     11228     11226     11234     11237
     11228     11231     11237     11234     11228     11231     11237     11239
     11230     11228     11226     11234     11230     11228     11231     11233
     11230     11228     11231     11237     11231     11228     11226     11234
     11231     11237     11234     11236     11233     11231     11237     11234
     11233     11231     11237     11239     11236     11234     11237     11239
     11241     11246     11248     11250     11241     11246     11248     11251
     11241     11246     11254     11256     11241     11246     11254     11257
     11243     11241     11246     11248     11243     11241     11246     11254
     11244     11241     11246     11248     11244     11241     11246     11254
     11245     11241     11246     11248     11245     11241     11246     11254
     11246     11248     11251     11253     11246     11248     11251     11257
     11246     11254     11257     11251     11246     11254     11257     11259
     11248     11246     11254     11256     11248     11246     11254     11257
     11248     11251     11257     11254     11248     11251     11257     11259
     11250     11248     11246     11254     11250     11248     11251     11253
     11250     11248     11251     11257     11251     11248     11246     11254
     11251     11257     11254     11256     11253     11251     11257     11254
     11253     11251     11257     11259     11256     11254     11257     11259
     11261     11266     11268     11270     11261     11266     11268     11271
     11261     11266     11274     11276     11261     11266     11274     11277
     11263     11261     11266     11268     11263     11261     11266     11274
     11264     11261     11266     11268     11264     11261     11266     11274
     11265     11261     11266     11268     11265     11261     11266     11274
     11266     11268     11271     11273     11266     11268     11271     11277
     11266     11274     11277     11271     11266     11274     11277     11279
     11268     11266     11274     11276     11268     11266     11274     11277
     11268     11271     11277     11274     11268     11271     11277     11279
     11270     11268     11266     11274     11270     11268     11271     11273
     11270     11268     11271     11277     11271     11268     11266     11274
     11271     11277     11274     11276     11273     11271     11277     11274
     11273     11271     11277     11279     11276     11274     11277     11279
     11281     11286     11288     11290     11281     11286     11288     11291
     11281     11286     11294     11296     11281     11286     11294     11297
     11283     11281     11286     11288     11283     11281     11286     11294
     11284     11281     11286     11288     11284     11281     11286     11294
     11285     11281     11286     11288     11285     11281     11286     11294
     11286     11288     11291     11293     11286     11288     11291     11297
     11286     11294     11297     11291     11286     11294     11297     11299
     11288     11286     11294     11296     11288     11286     11294     11297
     11288     11291     11297     11294     11288     11291     11297     11299
     11290     11288     11286     11294     11290     11288     11291     11293
     11290     11288     11291     11297     11291     11288     11286     11294
     11291     11297     11294     11296     11293     11291     11297     11294
     11293     11291     11297     11299     11296     11294     11297     11299
     11301     11306     11308     11310     11301     11306     11308     11311
     11301     11306     11314     11316     11301     11306     11314     11317
     11303     11301     11306     11308     11303     11301     11306     11314
     11304     11301     11306     11308     11304     11301     11306     11314
     11305     11301     11306     11308     11305     11301     11306     11314
     11306     11308     11311     11313     11306     11308     11311     11317
     11306     11314     11317     11311     11306     11314     11317     11319
     11308     11306     11314     11316     11308     11306     11314     11317
     11308     11311     11317     11314     11308     11311     11317     11319
     11310     11308     11306     11314     11310     11308     11311     11313
     11310     11308     11311     11317     11311     11308     11306     11314
     11311     11317     11314     11316     11313     11311     11317     11314
     11313     11311     11317     11319     11316     11314     11317     11319
     11321     11326     11328     11330     11321     11326     11328     11331
     11321     11326     11334     11336     11321     11326     11334     11337
     11323     11321     11326     11328     11323     11321     11326     11334
     11324     11321     11326     11328     11324     11321     11326     11334
     11325     11321     11326     11328     11325     11321     11326     11334
     11326     11328     11331     11333     11326     11328     11331     11337
     11326     11334     11337     11331     11326     11334     11337     11339
     11328     11326     11334     11336     11328     11326     11334     11337
     11328     11331     11337     11334     11328     11331     11337     11339
     11330     11328     11326     11334     11330     11328     11331     11333
     11330     11328     11331     11337     11331     11328     11326     11334
     11331     11337     11334     11336     11333     11331     11337     11334
     11333     11331     11337     11339     11336     11334     11337     11339
     11341     11346     11348     11350     11341     11346     11348     11351
     11341     11346     11354     11356     11341     11346     11354     11357
     11343     11341     11346     11348     11343     11341     11346     11354
     11344     11341     11346     11348     11344     11341     11346     11354
     11345     11341     11346     11348     11345     11341     11346     11354
     11346     11348     11351     11353     11346     11348     11351     11357
     11346     11354     11357     11351     11346     11354     11357     11359
     11348     11346     11354     11356     11348     11346     11354     11357
     11348     11351     11357     11354     11348     11351     11357     11359
     11350     11348     11346     11354     11350     11348     11351     11353
     11350     11348     11351     11357     11351     11348     11346     11354
     11351     11357     11354     11356     11353     11351     11357     11354
     11353     11351     11357     11359     11356     11354     11357     11359
     11361     11366     11368     11370     11361     11366     11368     11371
     11361     11366     11374     11376     11361     11366     11374     11377
     11363     11361     11366     11368     11363     11361     11366     11374
     11364     11361     11366     11368     11364     11361     11366     11374
     11365     11361     11366     11368     11365     11361     11366     11374
     11366     11368     11371     11373     11366     11368     11371     11377
     11366     11374     11377     11371     11366     11374     11377     11379
     11368     11366     11374     11376     11368     11366     11374     11377
     11368     11371     11377     11374     11368     11371     11377     11379
     11370     11368     11366     11374     11370     11368     11371     11373
     11370     11368     11371     11377     11371     11368     11366     11374
     11371     11377     11374     11376     11373     11371     11377     11374
     11373     11371     11377     11379     11376     11374     11377     11379
     11381     11386     11388     11390     11381     11386     11388     11391
     11381     11386     11394     11396     11381     11386     11394     11397
     11383     11381     11386     11388     11383     11381     11386     11394
     11384     11381     11386     11388     11384     11381     11386     11394
     11385     11381     11386     11388     11385     11381     11386     11394
     11386     11388     11391     11393     11386     11388     11391     11397
     11386     11394     11397     11391     11386     11394     11397     11399
     11388     11386     11394     11396     11388     11386     11394     11397
     11388     11391     11397     11394     11388     11391     11397     11399
     11390     11388     11386     11394     11390     11388     11391     11393
     11390     11388     11391     11397     11391     11388     11386     11394
     11391     11397     11394     11396     11393     11391     11397     11394
     11393     11391     11397     11399     11396     11394     11397     11399
     11401     11406     11408     11410     11401     11406     11408     11411
     11401     11406     11414     11416     11401     11406     11414     11417
     11403     11401     11406     11408     11403     11401     11406     11414
     11404     11401     11406     11408     11404     11401     11406     11414
     11405     11401     11406     11408     11405     11401     11406     11414
     11406     11408     11411     11413     11406     11408     11411     11417
     11406     11414     11417     11411     11406     11414     11417     11419
     11408     11406     11414     11416     11408     11406     11414     11417
     11408     11411     11417     11414     11408     11411     11417     11419
     11410     11408     11406     11414     11410     11408     11411     11413
     11410     11408     11411     11417     11411     11408     11406     11414
     11411     11417     11414     11416     11413     11411     11417     11414
     11413     11411     11417     11419     11416     11414     11417     11419
     11421     11426     11428     11430     11421     11426     11428     11431
     11421     11426     11434     11436     11421     11426     11434     11437
     11423     11421     11426     11428     11423     11421     11426     11434
     11424     11421     11426     11428     11424     11421     11426     11434
     11425     11421     11426     11428     11425     11421     11426     11434
     11426     11428     11431     11433     11426     11428     11431     11437
     11426     11434     11437     11431     11426     11434     11437     11439
     11428     11426     11434     11436     11428     11426     11434     11437
     11428     11431     11437     11434     11428     11431     11437     11439
     11430     11428     11426     11434     11430     11428     11431     11433
     11430     11428     11431     11437     11431     11428     11426     11434
     11431     11437     11434     11436     11433     11431     11437     11434
     11433     11431     11437     11439     11436     11434     11437     11439
     11443     11441     11450     11452     11445     11443     11441     11448
     11445     11443     11441     11450     11446     11443     11441     11448
     11446     11443     11441     11450     11447     11443     11441     11448
     11447     11443     11441     11450     11448     11441     11450     11452
     11459     11457     11466     11468     11461     11459     11457     11464
     11461     11459     11457     11466     11462     11459     11457     11464
     11462     11459     11457     11466     11463     11459     11457     11464
     11463     11459     11457     11466     11464     11457     11466     11468
     11475     11473     11482     11484     11477     11475     11473     11480
     11477     11475     11473     11482     11478     11475     11473     11480
     11478     11475     11473     11482     11479     11475     11473     11480
     11479     11475     11473     11482     11480     11473     11482     11484
     11491     11489     11498     11500     11493     11491     11489     11496
     11493     11491     11489     11498     11494     11491     11489     11496
     11494     11491     11489     11498     11495     11491     11489     11496
     11495     11491     11489     11498     11496     11489     11498     11500
     11507     11505     11514     11516     11509     11507     11505     11512
     11509     11507     11505     11514     11510     11507     11505     11512
     11510     11507     11505     11514     11511     11507     11505     11512
     11511     11507     11505     11514     11512     11505     11514     11516
     11523     11521     11530     11532     11525     11523     11521     11528
     11525     11523     11521     11530     11526     11523     11521     11528
     11526     11523     11521     11530     11527     11523     11521     11528
     11527     11523     11521     11530     11528     11521     11530     11532
     11539     11537     11546     11548     11541     11539     11537     11544
     11541     11539     11537     11546     11542     11539     11537     11544
     11542     11539     11537     11546     11543     11539     11537     11544
     11543     11539     11537     11546     11544     11537     11546     11548
     11555     11553     11562     11564     11557     11555     11553     11560
     11557     11555     11553     11562     11558     11555     11553     11560
     11558     11555     11553     11562     11559     11555     11553     11560
     11559     11555     11553     11562     11560     11553     11562     11564
     11571     11569     11578     11580     11573     11571     11569     11576
     11573     11571     11569     11578     11574     11571     11569     11576
     11574     11571     11569     11578     11575     11571     11569     11576
     11575     11571     11569     11578     11576     11569     11578     11580
     11587     11585     11594     11596     11589     11587     11585     11592
     11589     11587     11585     11594     11590     11587     11585     11592
     11590     11587     11585     11594     11591     11587     11585     11592
     11591     11587     11585     11594     11592     11585     11594     11596
     11603     11601     11610     11612     11605     11603     11601     11608
     11605     11603     11601     11610     11606     11603     11601     11608
     11606     11603     11601     11610     11607     11603     11601     11608
     11607     11603     11601     11610     11608     11601     11610     11612
     11619     11617     11626     11628     11621     11619     11617     11624
     11621     11619     11617     11626     11622     11619     11617     11624
     11622     11619     11617     11626     11623     11619     11617     11624
     11623     11619     11617     11626     11624     11617     11626     11628
     11635     11633     11642     11644     11637     11635     11633     11640
     11637     11635     11633     11642     11638     11635     11633     11640
     11638     11635     11633     11642     11639     11635     11633     11640
     11639     11635     11633     11642     11640     11633     11642     11644
     11651     11649     11658     11660     11653     11651     11649     11656
     11653     11651     11649     11658     11654     11651     11649     11656
     11654     11651     11649     11658     11655     11651     11649     11656
     11655     11651     11649     11658     11656     11649     11658     11660
     11667     11665     11674     11676     11669     11667     11665     11672
     11669     11667     11665     11674     11670     11667     11665     11672
     11670     11667     11665     11674     11671     11667     11665     11672
     11671     11667     11665     11674     11672     11665     11674     11676
     11683     11681     11690     11692     11685     11683     11681     11688
     11685     11683     11681     11690     11686     11683     11681     11688
     11686     11683     11681     11690     11687     11683     11681     11688
     11687     11683     11681     11690     11688     11681     11690     11692
     11699     11697     11706     11708     11701     11699     11697     11704
     11701     11699     11697     11706     11702     11699     11697     11704
     11702     11699     11697     11706     11703     11699     11697     11704
     11703     11699     11697     11706     11704     11697     11706     11708
     11715     11713     11722     11724     11717     11715     11713     11720
     11717     11715     11713     11722     11718     11715     11713     11720
     11718     11715     11713     11722     11719     11715     11713     11720
     11719     11715     11713     11722     11720     11713     11722     11724
     11731     11729     11738     11740     11733     11731     11729     11736
     11733     11731     11729     11738     11734     11731     11729     11736
     11734     11731     11729     11738     11735     11731     11729     11736
     11735     11731     11729     11738     11736     11729     11738     11740
     11747     11745     11754     11756     11749     11747     11745     11752
     11749     11747     11745     11754     11750     11747     11745     11752
     11750     11747     11745     11754     11751     11747     11745     11752
     11751     11747     11745     11754     11752     11745     11754     11756
     11763     11761     11770     11772     11765     11763     11761     11768
     11765     11763     11761     11770     11766     11763     11761     11768
     11766     11763     11761     11770     11767     11763     11761     11768
     11767     11763     11761     11770     11768     11761     11770     11772
     11779     11777     11786     11788     11781     11779     11777     11784
     11781     11779     11777     11786     11782     11779     11777     11784
     11782     11779     11777     11786     11783     11779     11777     11784
     11783     11779     11777     11786     11784     11777     11786     11788
     11795     11793     11802     11804     11797     11795     11793     11800
     11797     11795     11793     11802     11798     11795     11793     11800
     11798     11795     11793     11802     11799     11795     11793     11800
     11799     11795     11793     11802     11800     11793     11802     11804
     11811     11809     11818     11820     11813     11811     11809     11816
     11813     11811     11809     11818     11814     11811     11809     11816
     11814     11811     11809     11818     11815     11811     11809     11816
     11815     11811     11809     11818     11816     11809     11818     11820
     11827     11825     11834     11836     11829     11827     11825     11832
     11829     11827     11825     11834     11830     11827     11825     11832
     11830     11827     11825     11834     11831     11827     11825     11832
     11831     11827     11825     11834     11832     11825     11834     11836
     11843     11841     11850     11852     11845     11843     11841     11848
     11845     11843     11841     11850     11846     11843     11841     11848
     11846     11843     11841     11850     11847     11843     11841     11848
     11847     11843     11841     11850     11848     11841     11850     11852
     11859     11857     11866     11868     11861     11859     11857     11864
     11861     11859     11857     11866     11862     11859     11857     11864
     11862     11859     11857     11866     11863     11859     11857     11864
     11863     11859     11857     11866     11864     11857     11866     11868
     11875     11873     11882     11884     11877     11875     11873     11880
     11877     11875     11873     11882     11878     11875     11873     11880
     11878     11875     11873     11882     11879     11875     11873     11880
     11879     11875     11873     11882     11880     11873     11882     11884
     11891     11889     11898     11900     11893     11891     11889     11896
     11893     11891     11889     11898     11894     11891     11889     11896
     11894     11891     11889     11898     11895     11891     11889     11896
     11895     11891     11889     11898     11896     11889     11898     11900
     11907     11905     11914     11916     11909     11907     11905     11912
     11909     11907     11905     11914     11910     11907     11905     11912
     11910     11907     11905     11914     11911     11907     11905     11912
     11911     11907     11905     11914     11912     11905     11914     11916
     11923     11921     11930     11932     11925     11923     11921     11928
     11925     11923     11921     11930     11926     11923     11921     11928
     11926     11923     11921     11930     11927     11923     11921     11928
     11927     11923     11921     11930     11928     11921     11930     11932
     11939     11937     11946     11948     11941     11939     11937     11944
     11941     11939     11937     11946     11942     11939     11937     11944
     11942     11939     11937     11946     11943     11939     11937     11944
     11943     11939     11937     11946     11944     11937     11946     11948
     11955     11953     11962     11964     11957     11955     11953     11960
     11957     11955     11953     11962     11958     11955     11953     11960
     11958     11955     11953     11962     11959     11955     11953     11960
     11959     11955     11953     11962     11960     11953     11962     11964
     11971     11969     11978     11980     11973     11971     11969     11976
     11973     11971     11969     11978     11974     11971     11969     11976
     11974     11971     11969     11978     11975     11971     11969     11976
     11975     11971     11969     11978     11976     11969     11978     11980
     11987     11985     11994     11996     11989     11987     11985     11992
     11989     11987     11985     11994     11990     11987     11985     11992
     11990     11987     11985     11994     11991     11987     11985     11992
     11991     11987     11985     11994     11992     11985     11994     11996
     12003     12001     12010     12012     12005     12003     12001     12008
     12005     12003     12001     12010     12006     12003     12001     12008
     12006     12003     12001     12010     12007     12003     12001     12008
     12007     12003     12001     12010     12008     12001     12010     12012
     12019     12017     12026     12028     12021     12019     12017     12024
     12021     12019     12017     12026     12022     12019     12017     12024
     12022     12019     12017     12026     12023     12019     12017     12024
     12023     12019     12017     12026     12024     12017     12026     12028
     12035     12033     12042     12044     12037     12035     12033     12040
     12037     12035     12033     12042     12038     12035     12033     12040
     12038     12035     12033     12042     12039     12035     12033     12040
     12039     12035     12033     12042     12040     12033     12042     12044
     12051     12049     12058     12060     12053     12051     12049     12056
     12053     12051     12049     12058     12054     12051     12049     12056
     12054     12051     12049     12058     12055     12051     12049     12056
     12055     12051     12049     12058     12056     12049     12058     12060
     12067     12065     12074     12076     12069     12067     12065     12072
     12069     12067     12065     12074     12070     12067     12065     12072
     12070     12067     12065     12074     12071     12067     12065     12072
     12071     12067     12065     12074     12072     12065     12074     12076
     12083     12081     12090     12092     12085     12083     12081     12088
     12085     12083     12081     12090     12086     12083     12081     12088
     12086     12083     12081     12090     12087     12083     12081     12088
     12087     12083     12081     12090     12088     12081     12090     12092
     12099     12097     12106     12108     12101     12099     12097     12104
     12101     12099     12097     12106     12102     12099     12097     12104
     12102     12099     12097     12106     12103     12099     12097     12104
     12103     12099     12097     12106     12104     12097     12106     12108
     12115     12113     12122     12124     12117     12115     12113     12120
     12117     12115     12113     12122     12118     12115     12113     12120
     12118     12115     12113     12122     12119     12115     12113     12120
     12119     12115     12113     12122     12120     12113     12122     12124
     12131     12129     12138     12140     12133     12131     12129     12136
     12133     12131     12129     12138     12134     12131     12129     12136
     12134     12131     12129     12138     12135     12131     12129     12136
     12135     12131     12129     12138     12136     12129     12138     12140
     12147     12145     12154     12156     12149     12147     12145     12152
     12149     12147     12145     12154     12150     12147     12145     12152
     12150     12147     12145     12154     12151     12147     12145     12152
     12151     12147     12145     12154     12152     12145     12154     12156
     12163     12161     12170     12172     12165     12163     12161     12168
     12165     12163     12161     12170     12166     12163     12161     12168
     12166     12163     12161     12170     12167     12163     12161     12168
     12167     12163     12161     12170     12168     12161     12170     12172
     12179     12177     12186     12188     12181     12179     12177     12184
     12181     12179     12177     12186     12182     12179     12177     12184
     12182     12179     12177     12186     12183     12179     12177     12184
     12183     12179     12177     12186     12184     12177     12186     12188
     12195     12193     12202     12204     12197     12195     12193     12200
     12197     12195     12193     12202     12198     12195     12193     12200
     12198     12195     12193     12202     12199     12195     12193     12200
     12199     12195     12193     12202     12200     12193     12202     12204
     12211     12209     12218     12220     12213     12211     12209     12216
     12213     12211     12209     12218     12214     12211     12209     12216
     12214     12211     12209     12218     12215     12211     12209     12216
     12215     12211     12209     12218     12216     12209     12218     12220
     12227     12225     12234     12236     12229     12227     12225     12232
     12229     12227     12225     12234     12230     12227     12225     12232
     12230     12227     12225     12234     12231     12227     12225     12232
     12231     12227     12225     12234     12232     12225     12234     12236
     12243     12241     12250     12252     12245     12243     12241     12248
     12245     12243     12241     12250     12246     12243     12241     12248
     12246     12243     12241     12250     12247     12243     12241     12248
     12247     12243     12241     12250     12248     12241     12250     12252
     12259     12257     12266     12268     12261     12259     12257     12264
     12261     12259     12257     12266     12262     12259     12257     12264
     12262     12259     12257     12266     12263     12259     12257     12264
     12263     12259     12257     12266     12264     12257     12266     12268
     12275     12273     12282     12284     12277     12275     12273     12280
     12277     12275     12273     12282     12278     12275     12273     12280
     12278     12275     12273     12282     12279     12275     12273     12280
     12279     12275     12273     12282     12280     12273     12282     12284
     12291     12289     12298     12300     12293     12291     12289     12296
     12293     12291     12289     12298     12294     12291     12289     12296
     12294     12291     12289     12298     12295     12291     12289     12296
     12295     12291     12289     12298     12296     12289     12298     12300
     12307     12305     12314     12316     12309     12307     12305     12312
     12309     12307     12305     12314     12310     12307     12305     12312
     12310     12307     12305     12314     12311     12307     12305     12312
     12311     12307     12305     12314     12312     12305     12314     12316
     12323     12321     12330     12332     12325     12323     12321     12328
     12325     12323     12321     12330     12326     12323     12321     12328
     12326     12323     12321     12330     12327     12323     12321     12328
     12327     12323     12321     12330     12328     12321     12330     12332
     12339     12337     12346     12348     12341     12339     12337     12344
     12341     12339     12337     12346     12342     12339     12337     12344
     12342     12339     12337     12346     12343     12339     12337     12344
     12343     12339     12337     12346     12344     12337     12346     12348
     12355     12353     12362     12364     12357     12355     12353     12360
     12357     12355     12353     12362     12358     12355     12353     12360
     12358     12355     12353     12362     12359     12355     12353     12360
     12359     12355     12353     12362     12360     12353     12362     12364
     12371     12369     12378     12380     12373     12371     12369     12376
     12373     12371     12369     12378     12374     12371     12369     12376
     12374     12371     12369     12378     12375     12371     12369     12376
     12375     12371     12369     12378     12376     12369     12378     12380
     12387     12385     12394     12396     12389     12387     12385     12392
     12389     12387     12385     12394     12390     12387     12385     12392
     12390     12387     12385     12394     12391     12387     12385     12392
     12391     12387     12385     12394     12392     12385     12394     12396
     12403     12401     12410     12412     12405     12403     12401     12408
     12405     12403     12401     12410     12406     12403     12401     12408
     12406     12403     12401     12410     12407     12403     12401     12408
     12407     12403     12401     12410     12408     12401     12410     12412
     12419     12417     12426     12428     12421     12419     12417     12424
     12421     12419     12417     12426     12422     12419     12417     12424
     12422     12419     12417     12426     12423     12419     12417     12424
     12423     12419     12417     12426     12424     12417     12426     12428
     12435     12433     12442     12444     12437     12435     12433     12440
     12437     12435     12433     12442     12438     12435     12433     12440
     12438     12435     12433     12442     12439     12435     12433     12440
     12439     12435     12433     12442     12440     12433     12442     12444
     12451     12449     12458     12460     12453     12451     12449     12456
     12453     12451     12449     12458     12454     12451     12449     12456
     12454     12451     12449     12458     12455     12451     12449     12456
     12455     12451     12449     12458     12456     12449     12458     12460
     12467     12465     12474     12476     12469     12467     12465     12472
     12469     12467     12465     12474     12470     12467     12465     12472
     12470     12467     12465     12474     12471     12467     12465     12472
     12471     12467     12465     12474     12472     12465     12474     12476
     12483     12481     12490     12492     12485     12483     12481     12488
     12485     12483     12481     12490     12486     12483     12481     12488
     12486     12483     12481     12490     12487     12483     12481     12488
     12487     12483     12481     12490     12488     12481     12490     12492
     12499     12497     12506     12508     12501     12499     12497     12504
     12501     12499     12497     12506     12502     12499     12497     12504
     12502     12499     12497     12506     12503     12499     12497     12504
     12503     12499     12497     12506     12504     12497     12506     12508
     12515     12513     12522     12524     12517     12515     12513     12520
     12517     12515     12513     12522     12518     12515     12513     12520
     12518     12515     12513     12522     12519     12515     12513     12520
     12519     12515     12513     12522     12520     12513     12522     12524
     12531     12529     12538     12540     12533     12531     12529     12536
     12533     12531     12529     12538     12534     12531     12529     12536
     12534     12531     12529     12538     12535     12531     12529     12536
     12535     12531     12529     12538     12536     12529     12538     12540
     12547     12545     12554     12556     12549     12547     12545     12552
     12549     12547     12545     12554     12550     12547     12545     12552
     12550     12547     12545     12554     12551     12547     12545     12552
     12551     12547     12545     12554     12552     12545     12554     12556
     12563     12561     12570     12572     12565     12563     12561     12568
     12565     12563     12561     12570     12566     12563     12561     12568
     12566     12563     12561     12570     12567     12563     12561     12568
     12567     12563     12561     12570     12568     12561     12570     12572
     12579     12577     12586     12588     12581     12579     12577     12584
     12581     12579     12577     12586     12582     12579     12577     12584
     12582     12579     12577     12586     12583     12579     12577     12584
     12583     12579     12577     12586     12584     12577     12586     12588
     12595     12593     12602     12604     12597     12595     12593     12600
     12597     12595     12593     12602     12598     12595     12593     12600
     12598     12595     12593     12602     12599     12595     12593     12600
     12599     12595     12593     12602     12600     12593     12602     12604
     12611     12609     12618     12620     12613     12611     12609     12616
     12613     12611     12609     12618     12614     12611     12609     12616
     12614     12611     12609     12618     12615     12611     12609     12616
     12615     12611     12609     12618     12616     12609     12618     12620
     12627     12625     12634     12636     12629     12627     12625     12632
     12629     12627     12625     12634     12630     12627     12625     12632
     12630     12627     12625     12634     12631     12627     12625     12632
     12631     12627     12625     12634     12632     12625     12634     12636
     12643     12641     12650     12652     12645     12643     12641     12648
     12645     12643     12641     12650     12646     12643     12641     12648
     12646     12643     12641     12650     12647     12643     12641     12648
     12647     12643     12641     12650     12648     12641     12650     12652
     12659     12657     12666     12668     12661     12659     12657     12664
     12661     12659     12657     12666     12662     12659     12657     12664
     12662     12659     12657     12666     12663     12659     12657     12664
     12663     12659     12657     12666     12664     12657     12666     12668
     12675     12673     12682     12684     12677     12675     12673     12680
     12677     12675     12673     12682     12678     12675     12673     12680
     12678     12675     12673     12682     12679     12675     12673     12680
     12679     12675     12673     12682     12680     12673     12682     12684
     12691     12689     12698     12700     12693     12691     12689     12696
     12693     12691     12689     12698     12694     12691     12689     12696
     12694     12691     12689     12698     12695     12691     12689     12696
     12695     12691     12689     12698     12696     12689     12698     12700
     12707     12705     12714     12716     12709     12707     12705     12712
     12709     12707     12705     12714     12710     12707     12705     12712
     12710     12707     12705     12714     12711     12707     12705     12712
     12711     12707     12705     12714     12712     12705     12714     12716
     12723     12721     12730     12732     12725     12723     12721     12728
     12725     12723     12721     12730     12726     12723     12721     12728
     12726     12723     12721     12730     12727     12723     12721     12728
     12727     12723     12721     12730     12728     12721     12730     12732
     12739     12737     12746     12748     12741     12739     12737     12744
     12741     12739     12737     12746     12742     12739     12737     12744
     12742     12739     12737     12746     12743     12739     12737     12744
     12743     12739     12737     12746     12744     12737     12746     12748
     12755     12753     12762     12764     12757     12755     12753     12760
     12757     12755     12753     12762     12758     12755     12753     12760
     12758     12755     12753     12762     12759     12755     12753     12760
     12759     12755     12753     12762     12760     12753     12762     12764
     12771     12769     12778     12780     12773     12771     12769     12776
     12773     12771     12769     12778     12774     12771     12769     12776
     12774     12771     12769     12778     12775     12771     12769     12776
     12775     12771     12769     12778     12776     12769     12778     12780
     12787     12785     12794     12796     12789     12787     12785     12792
     12789     12787     12785     12794     12790     12787     12785     12792
     12790     12787     12785     12794     12791     12787     12785     12792
     12791     12787     12785     12794     12792     12785     12794     12796
     12803     12801     12810     12812     12805     12803     12801     12808
     12805     12803     12801     12810     12806     12803     12801     12808
     12806     12803     12801     12810     12807     12803     12801     12808
     12807     12803     12801     12810     12808     12801     12810     12812
     12819     12817     12826     12828     12821     12819     12817     12824
     12821     12819     12817     12826     12822     12819     12817     12824
     12822     12819     12817     12826     12823     12819     12817     12824
     12823     12819     12817     12826     12824     12817     12826     12828
     12835     12833     12842     12844     12837     12835     12833     12840
     12837     12835     12833     12842     12838     12835     12833     12840
     12838     12835     12833     12842     12839     12835     12833     12840
     12839     12835     12833     12842     12840     12833     12842     12844
     12851     12849     12858     12860     12853     12851     12849     12856
     12853     12851     12849     12858     12854     12851     12849     12856
     12854     12851     12849     12858     12855     12851     12849     12856
     12855     12851     12849     12858     12856     12849     12858     12860
     12867     12865     12874     12876     12869     12867     12865     12872
     12869     12867     12865     12874     12870     12867     12865     12872
     12870     12867     12865     12874     12871     12867     12865     12872
     12871     12867     12865     12874     12872     12865     12874     12876
     12883     12881     12890     12892     12885     12883     12881     12888
     12885     12883     12881     12890     12886     12883     12881     12888
     12886     12883     12881     12890     12887     12883     12881     12888
     12887     12883     12881     12890     12888     12881     12890     12892
     12899     12897     12906     12908     12901     12899     12897     12904
     12901     12899     12897     12906     12902     12899     12897     12904
     12902     12899     12897     12906     12903     12899     12897     12904
     12903     12899     12897     12906     12904     12897     12906     12908
     12915     12913     12922     12924     12917     12915     12913     12920
     12917     12915     12913     12922     12918     12915     12913     12920
     12918     12915     12913     12922     12919     12915     12913     12920
     12919     12915     12913     12922     12920     12913     12922     12924
     12931     12929     12938     12940     12933     12931     12929     12936
     12933     12931     12929     12938     12934     12931     12929     12936
     12934     12931     12929     12938     12935     12931     12929     12936
     12935     12931     12929     12938     12936     12929     12938     12940
     12947     12945     12954     12956     12949     12947     12945     12952
     12949     12947     12945     12954     12950     12947     12945     12952
     12950     12947     12945     12954     12951     12947     12945     12952
     12951     12947     12945     12954     12952     12945     12954     12956
     12963     12961     12970     12972     12965     12963     12961     12968
     12965     12963     12961     12970     12966     12963     12961     12968
     12966     12963     12961     12970     12967     12963     12961     12968
     12967     12963     12961     12970     12968     12961     12970     12972
     12979     12977     12986     12988     12981     12979     12977     12984
     12981     12979     12977     12986     12982     12979     12977     12984
     12982     12979     12977     12986     12983     12979     12977     12984
     12983     12979     12977     12986     12984     12977     12986     12988
     12995     12993     13002     13004     12997     12995     12993     13000
     12997     12995     12993     13002     12998     12995     12993     13000
     12998     12995     12993     13002     12999     12995     12993     13000
     12999     12995     12993     13002     13000     12993     13002     13004
     13011     13009     13018     13020     13013     13011     13009     13016
     13013     13011     13009     13018     13014     13011     13009     13016
     13014     13011     13009     13018     13015     13011     13009     13016
     13015     13011     13009     13018     13016     13009     13018     13020
     13027     13025     13034     13036     13029     13027     13025     13032
     13029     13027     13025     13034     13030     13027     13025     13032
     13030     13027     13025     13034     13031     13027     13025     13032
     13031     13027     13025     13034     13032     13025     13034     13036
     13043     13041     13050     13052     13045     13043     13041     13048
     13045     13043     13041     13050     13046     13043     13041     13048
     13046     13043     13041     13050     13047     13043     13041     13048
     13047     13043     13041     13050     13048     13041     13050     13052
     13059     13057     13066     13068     13061     13059     13057     13064
     13061     13059     13057     13066     13062     13059     13057     13064
     13062     13059     13057     13066     13063     13059     13057     13064
     13063     13059     13057     13066     13064     13057     13066     13068
     13075     13073     13082     13084     13077     13075     13073     13080
     13077     13075     13073     13082     13078     13075     13073     13080
     13078     13075     13073     13082     13079     13075     13073     13080
     13079     13075     13073     13082     13080     13073     13082     13084
     13091     13089     13098     13100     13093     13091     13089     13096
     13093     13091     13089     13098     13094     13091     13089     13096
     13094     13091     13089     13098     13095     13091     13089     13096
     13095     13091     13089     13098     13096     13089     13098     13100
     13107     13105     13114     13116     13109     13107     13105     13112
     13109     13107     13105     13114     13110     13107     13105     13112
     13110     13107     13105     13114     13111     13107     13105     13112
     13111     13107     13105     13114     13112     13105     13114     13116
     13123     13121     13130     13132     13125     13123     13121     13128
     13125     13123     13121     13130     13126     13123     13121     13128
     13126     13123     13121     13130     13127     13123     13121     13128
     13127     13123     13121     13130     13128     13121     13130     13132
     13139     13137     13146     13148     13141     13139     13137     13144
     13141     13139     13137     13146     13142     13139     13137     13144
     13142     13139     13137     13146     13143     13139     13137     13144
     13143     13139     13137     13146     13144     13137     13146     13148
     13155     13153     13162     13164     13157     13155     13153     13160
     13157     13155     13153     13162     13158     13155     13153     13160
     13158     13155     13153     13162     13159     13155     13153     13160
     13159     13155     13153     13162     13160     13153     13162     13164
     13171     13169     13178     13180     13173     13171     13169     13176
     13173     13171     13169     13178     13174     13171     13169     13176
     13174     13171     13169     13178     13175     13171     13169     13176
     13175     13171     13169     13178     13176     13169     13178     13180
     13187     13185     13194     13196     13189     13187     13185     13192
     13189     13187     13185     13194     13190     13187     13185     13192
     13190     13187     13185     13194     13191     13187     13185     13192
     13191     13187     13185     13194     13192     13185     13194     13196
     13203     13201     13210     13212     13205     13203     13201     13208
     13205     13203     13201     13210     13206     13203     13201     13208
     13206     13203     13201     13210     13207     13203     13201     13208
     13207     13203     13201     13210     13208     13201     13210     13212
     13219     13217     13226     13228     13221     13219     13217     13224
     13221     13219     13217     13226     13222     13219     13217     13224
     13222     13219     13217     13226     13223     13219     13217     13224
     13223     13219     13217     13226     13224     13217     13226     13228
     13235     13233     13242     13244     13237     13235     13233     13240
     13237     13235     13233     13242     13238     13235     13233     13240
     13238     13235     13233     13242     13239     13235     13233     13240
     13239     13235     13233     13242     13240     13233     13242     13244
     13251     13249     13258     13260     13253     13251     13249     13256
     13253     13251     13249     13258     13254     13251     13249     13256
     13254     13251     13249     13258     13255     13251     13249     13256
     13255     13251     13249     13258     13256     13249     13258     13260
     13267     13265     13274     13276     13269     13267     13265     13272
     13269     13267     13265     13274     13270     13267     13265     13272
     13270     13267     13265     13274     13271     13267     13265     13272
     13271     13267     13265     13274     13272     13265     13274     13276
     13283     13281     13290     13292     13285     13283     13281     13288
     13285     13283     13281     13290     13286     13283     13281     13288
     13286     13283     13281     13290     13287     13283     13281     13288
     13287     13283     13281     13290     13288     13281     13290     13292
     13299     13297     13306     13308     13301     13299     13297     13304
     13301     13299     13297     13306     13302     13299     13297     13304
     13302     13299     13297     13306     13303     13299     13297     13304
     13303     13299     13297     13306     13304     13297     13306     13308
     13315     13313     13322     13324     13317     13315     13313     13320
     13317     13315     13313     13322     13318     13315     13313     13320
     13318     13315     13313     13322     13319     13315     13313     13320
     13319     13315     13313     13322     13320     13313     13322     13324
     13331     13329     13338     13340     13333     13331     13329     13336
     13333     13331     13329     13338     13334     13331     13329     13336
     13334     13331     13329     13338     13335     13331     13329     13336
     13335     13331     13329     13338     13336     13329     13338     13340
     13347     13345     13354     13356     13349     13347     13345     13352
     13349     13347     13345     13354     13350     13347     13345     13352
     13350     13347     13345     13354     13351     13347     13345     13352
     13351     13347     13345     13354     13352     13345     13354     13356
     13363     13361     13370     13372     13365     13363     13361     13368
     13365     13363     13361     13370     13366     13363     13361     13368
     13366     13363     13361     13370     13367     13363     13361     13368
     13367     13363     13361     13370     13368     13361     13370     13372
     13379     13377     13386     13388     13381     13379     13377     13384
     13381     13379     13377     13386     13382     13379     13377     13384
     13382     13379     13377     13386     13383     13379     13377     13384
     13383     13379     13377     13386     13384     13377     13386     13388
     13395     13393     13402     13404     13397     13395     13393     13400
     13397     13395     13393     13402     13398     13395     13393     13400
     13398     13395     13393     13402     13399     13395     13393     13400
     13399     13395     13393     13402     13400     13393     13402     13404
     13411     13409     13418     13420     13413     13411     13409     13416
     13413     13411     13409     13418     13414     13411     13409     13416
     13414     13411     13409     13418     13415     13411     13409     13416
     13415     13411     13409     13418     13416     13409     13418     13420
     13427     13425     13434     13436     13429     13427     13425     13432
     13429     13427     13425     13434     13430     13427     13425     13432
     13430     13427     13425     13434     13431     13427     13425     13432
     13431     13427     13425     13434     13432     13425     13434     13436
     13443     13441     13450     13452     13445     13443     13441     13448
     13445     13443     13441     13450     13446     13443     13441     13448
     13446     13443     13441     13450     13447     13443     13441     13448
     13447     13443     13441     13450     13448     13441     13450     13452
     13459     13457     13466     13468     13461     13459     13457     13464
     13461     13459     13457     13466     13462     13459     13457     13464
     13462     13459     13457     13466     13463     13459     13457     13464
     13463     13459     13457     13466     13464     13457     13466     13468
     13475     13473     13482     13484     13477     13475     13473     13480
     13477     13475     13473     13482     13478     13475     13473     13480
     13478     13475     13473     13482     13479     13475     13473     13480
     13479     13475     13473     13482     13480     13473     13482     13484
     13491     13489     13498     13500     13493     13491     13489     13496
     13493     13491     13489     13498     13494     13491     13489     13496
     13494     13491     13489     13498     13495     13491     13489     13496
     13495     13491     13489     13498     13496     13489     13498     13500
     13507     13505     13514     13516     13509     13507     13505     13512
     13509     13507     13505     13514     13510     13507     13505     13512
     13510     13507     13505     13514     13511     13507     13505     13512
     13511     13507     13505     13514     13512     13505     13514     13516
     13523     13521     13530     13532     13525     13523     13521     13528
     13525     13523     13521     13530     13526     13523     13521     13528
     13526     13523     13521     13530     13527     13523     13521     13528
     13527     13523     13521     13530     13528     13521     13530     13532
     13539     13537     13546     13548     13541     13539     13537     13544
     13541     13539     13537     13546     13542     13539     13537     13544
     13542     13539     13537     13546     13543     13539     13537     13544
     13543     13539     13537     13546     13544     13537     13546     13548
     13555     13553     13562     13564     13557     13555     13553     13560
     13557     13555     13553     13562     13558     13555     13553     13560
     13558     13555     13553     13562     13559     13555     13553     13560
     13559     13555     13553     13562     13560     13553     13562     13564
     13571     13569     13578     13580     13573     13571     13569     13576
     13573     13571     13569     13578     13574     13571     13569     13576
     13574     13571     13569     13578     13575     13571     13569     13576
     13575     13571     13569     13578     13576     13569     13578     13580
     13587     13585     13594     13596     13589     13587     13585     13592
     13589     13587     13585     13594     13590     13587     13585     13592
     13590     13587     13585     13594     13591     13587     13585     13592
     13591     13587     13585     13594     13592     13585     13594     13596
     13603     13601     13610     13612     13605     13603     13601     13608
     13605     13603     13601     13610     13606     13603     13601     13608
     13606     13603     13601     13610     13607     13603     13601     13608
     13607     13603     13601     13610     13608     13601     13610     13612
     13619     13617     13626     13628     13621     13619     13617     13624
     13621     13619     13617     13626     13622     13619     13617     13624
     13622     13619     13617     13626     13623     13619     13617     13624
     13623     13619     13617     13626     13624     13617     13626     13628
     13635     13633     13642     13644     13637     13635     13633     13640
     13637     13635     13633     13642     13638     13635     13633     13640
     13638     13635     13633     13642     13639     13635     13633     13640
     13639     13635     13633     13642     13640     13633     13642     13644
     13651     13649     13658     13660     13653     13651     13649     13656
     13653     13651     13649     13658     13654     13651     13649     13656
     13654     13651     13649     13658     13655     13651     13649     13656
     13655     13651     13649     13658     13656     13649     13658     13660
     13667     13665     13674     13676     13669     13667     13665     13672
     13669     13667     13665     13674     13670     13667     13665     13672
     13670     13667     13665     13674     13671     13667     13665     13672
     13671     13667     13665     13674     13672     13665     13674     13676
     13683     13681     13690     13692     13685     13683     13681     13688
     13685     13683     13681     13690     13686     13683     13681     13688
     13686     13683     13681     13690     13687     13683     13681     13688
     13687     13683     13681     13690     13688     13681     13690     13692
     13699     13697     13706     13708     13701     13699     13697     13704
     13701     13699     13697     13706     13702     13699     13697     13704
     13702     13699     13697     13706     13703     13699     13697     13704
     13703     13699     13697     13706     13704     13697     13706     13708
     13715     13713     13722     13724     13717     13715     13713     13720
     13717     13715     13713     13722     13718     13715     13713     13720
     13718     13715     13713     13722     13719     13715     13713     13720
     13719     13715     13713     13722     13720     13713     13722     13724
     13731     13729     13738     13740     13733     13731     13729     13736
     13733     13731     13729     13738     13734     13731     13729     13736
     13734     13731     13729     13738     13735     13731     13729     13736
     13735     13731     13729     13738     13736     13729     13738     13740
     13747     13745     13754     13756     13749     13747     13745     13752
     13749     13747     13745     13754     13750     13747     13745     13752
     13750     13747     13745     13754     13751     13747     13745     13752
     13751     13747     13745     13754     13752     13745     13754     13756
     13763     13761     13770     13772     13765     13763     13761     13768
     13765     13763     13761     13770     13766     13763     13761     13768
     13766     13763     13761     13770     13767     13763     13761     13768
     13767     13763     13761     13770     13768     13761     13770     13772
     13779     13777     13786     13788     13781     13779     13777     13784
     13781     13779     13777     13786     13782     13779     13777     13784
     13782     13779     13777     13786     13783     13779     13777     13784
     13783     13779     13777     13786     13784     13777     13786     13788
     13795     13793     13802     13804     13797     13795     13793     13800
     13797     13795     13793     13802     13798     13795     13793     13800
     13798     13795     13793     13802     13799     13795     13793     13800
     13799     13795     13793     13802     13800     13793     13802     13804
     13811     13809     13818     13820     13813     13811     13809     13816
     13813     13811     13809     13818     13814     13811     13809     13816
     13814     13811     13809     13818     13815     13811     13809     13816
     13815     13811     13809     13818     13816     13809     13818     13820
     13827     13825     13834     13836     13829     13827     13825     13832
     13829     13827     13825     13834     13830     13827     13825     13832
     13830     13827     13825     13834     13831     13827     13825     13832
     13831     13827     13825     13834     13832     13825     13834     13836
     13843     13841     13850     13852     13845     13843     13841     13848
     13845     13843     13841     13850     13846     13843     13841     13848
     13846     13843     13841     13850     13847     13843     13841     13848
     13847     13843     13841     13850     13848     13841     13850     13852
     13859     13857     13866     13868     13861     13859     13857     13864
     13861     13859     13857     13866     13862     13859     13857     13864
     13862     13859     13857     13866     13863     13859     13857     13864
     13863     13859     13857     13866     13864     13857     13866     13868
     13875     13873     13882     13884     13877     13875     13873     13880
     13877     13875     13873     13882     13878     13875     13873     13880
     13878     13875     13873     13882     13879     13875     13873     13880
     13879     13875     13873     13882     13880     13873     13882     13884
     13891     13889     13898     13900     13893     13891     13889     13896
     13893     13891     13889     13898     13894     13891     13889     13896
     13894     13891     13889     13898     13895     13891     13889     13896
     13895     13891     13889     13898     13896     13889     13898     13900
     13907     13905     13914     13916     13909     13907     13905     13912
     13909     13907     13905     13914     13910     13907     13905     13912
     13910     13907     13905     13914     13911     13907     13905     13912
     13911     13907     13905     13914     13912     13905     13914     13916
     13923     13921     13930     13932     13925     13923     13921     13928
     13925     13923     13921     13930     13926     13923     13921     13928
     13926     13923     13921     13930     13927     13923     13921     13928
     13927     13923     13921     13930     13928     13921     13930     13932
     13939     13937     13946     13948     13941     13939     13937     13944
     13941     13939     13937     13946     13942     13939     13937     13944
     13942     13939     13937     13946     13943     13939     13937     13944
     13943     13939     13937     13946     13944     13937     13946     13948
     13955     13953     13962     13964     13957     13955     13953     13960
     13957     13955     13953     13962     13958     13955     13953     13960
     13958     13955     13953     13962     13959     13955     13953     13960
     13959     13955     13953     13962     13960     13953     13962     13964
     13971     13969     13978     13980     13973     13971     13969     13976
     13973     13971     13969     13978     13974     13971     13969     13976
     13974     13971     13969     13978     13975     13971     13969     13976
     13975     13971     13969     13978     13976     13969     13978     13980
     13987     13985     13994     13996     13989     13987     13985     13992
     13989     13987     13985     13994     13990     13987     13985     13992
     13990     13987     13985     13994     13991     13987     13985     13992
     13991     13987     13985     13994     13992     13985     13994     13996
     14003     14001     14010     14012     14005     14003     14001     14008
     14005     14003     14001     14010     14006     14003     14001     14008
     14006     14003     14001     14010     14007     14003     14001     14008
     14007     14003     14001     14010     14008     14001     14010     14012
     14019     14017     14026     14028     14021     14019     14017     14024
     14021     14019     14017     14026     14022     14019     14017     14024
     14022     14019     14017     14026     14023     14019     14017     14024
     14023     14019     14017     14026     14024     14017     14026     14028
     14035     14033     14042     14044     14037     14035     14033     14040
     14037     14035     14033     14042     14038     14035     14033     14040
     14038     14035     14033     14042     14039     14035     14033     14040
     14039     14035     14033     14042     14040     14033     14042     14044
     14051     14049     14058     14060     14053     14051     14049     14056
     14053     14051     14049     14058     14054     14051     14049     14056
     14054     14051     14049     14058     14055     14051     14049     14056
     14055     14051     14049     14058     14056     14049     14058     14060
     14067     14065     14074     14076     14069     14067     14065     14072
     14069     14067     14065     14074     14070     14067     14065     14072
     14070     14067     14065     14074     14071     14067     14065     14072
     14071     14067     14065     14074     14072     14065     14074     14076
     14083     14081     14090     14092     14085     14083     14081     14088
     14085     14083     14081     14090     14086     14083     14081     14088
     14086     14083     14081     14090     14087     14083     14081     14088
     14087     14083     14081     14090     14088     14081     14090     14092
     14099     14097     14106     14108     14101     14099     14097     14104
     14101     14099     14097     14106     14102     14099     14097     14104
     14102     14099     14097     14106     14103     14099     14097     14104
     14103     14099     14097     14106     14104     14097     14106     14108
     14115     14113     14122     14124     14117     14115     14113     14120
     14117     14115     14113     14122     14118     14115     14113     14120
     14118     14115     14113     14122     14119     14115     14113     14120
     14119     14115     14113     14122     14120     14113     14122     14124
     14131     14129     14138     14140     14133     14131     14129     14136
     14133     14131     14129     14138     14134     14131     14129     14136
     14134     14131     14129     14138     14135     14131     14129     14136
     14135     14131     14129     14138     14136     14129     14138     14140
     14147     14145     14154     14156     14149     14147     14145     14152
     14149     14147     14145     14154     14150     14147     14145     14152
     14150     14147     14145     14154     14151     14147     14145     14152
     14151     14147     14145     14154     14152     14145     14154     14156
     14163     14161     14170     14172     14165     14163     14161     14168
     14165     14163     14161     14170     14166     14163     14161     14168
     14166     14163     14161     14170     14167     14163     14161     14168
     14167     14163     14161     14170     14168     14161     14170     14172
     14179     14177     14186     14188     14181     14179     14177     14184
     14181     14179     14177     14186     14182     14179     14177     14184
     14182     14179     14177     14186     14183     14179     14177     14184
     14183     14179     14177     14186     14184     14177     14186     14188
     14195     14193     14202     14204     14197     14195     14193     14200
     14197     14195     14193     14202     14198     14195     14193     14200
     14198     14195     14193     14202     14199     14195     14193     14200
     14199     14195     14193     14202     14200     14193     14202     14204
     14211     14209     14218     14220     14213     14211     14209     14216
     14213     14211     14209     14218     14214     14211     14209     14216
     14214     14211     14209     14218     14215     14211     14209     14216
     14215     14211     14209     14218     14216     14209     14218     14220
     14227     14225     14234     14236     14229     14227     14225     14232
     14229     14227     14225     14234     14230     14227     14225     14232
     14230     14227     14225     14234     14231     14227     14225     14232
     14231     14227     14225     14234     14232     14225     14234     14236
     14243     14241     14250     14252     14245     14243     14241     14248
     14245     14243     14241     14250     14246     14243     14241     14248
     14246     14243     14241     14250     14247     14243     14241     14248
     14247     14243     14241     14250     14248     14241     14250     14252
     14259     14257     14266     14268     14261     14259     14257     14264
     14261     14259     14257     14266     14262     14259     14257     14264
     14262     14259     14257     14266     14263     14259     14257     14264
     14263     14259     14257     14266     14264     14257     14266     14268
     14275     14273     14282     14284     14277     14275     14273     14280
     14277     14275     14273     14282     14278     14275     14273     14280
     14278     14275     14273     14282     14279     14275     14273     14280
     14279     14275     14273     14282     14280     14273     14282     14284
     14291     14289     14298     14300     14293     14291     14289     14296
     14293     14291     14289     14298     14294     14291     14289     14296
     14294     14291     14289     14298     14295     14291     14289     14296
     14295     14291     14289     14298     14296     14289     14298     14300
     14307     14305     14314     14316     14309     14307     14305     14312
     14309     14307     14305     14314     14310     14307     14305     14312
     14310     14307     14305     14314     14311     14307     14305     14312
     14311     14307     14305     14314     14312     14305     14314     14316
     14323     14321     14330     14332     14325     14323     14321     14328
     14325     14323     14321     14330     14326     14323     14321     14328
     14326     14323     14321     14330     14327     14323     14321     14328
     14327     14323     14321     14330     14328     14321     14330     14332
     14339     14337     14346     14348     14341     14339     14337     14344
     14341     14339     14337     14346     14342     14339     14337     14344
     14342     14339     14337     14346     14343     14339     14337     14344
     14343     14339     14337     14346     14344     14337     14346     14348
     14355     14353     14362     14364     14357     14355     14353     14360
     14357     14355     14353     14362     14358     14355     14353     14360
     14358     14355     14353     14362     14359     14355     14353     14360
     14359     14355     14353     14362     14360     14353     14362     14364
     14371     14369     14378     14380     14373     14371     14369     14376
     14373     14371     14369     14378     14374     14371     14369     14376
     14374     14371     14369     14378     14375     14371     14369     14376
     14375     14371     14369     14378     14376     14369     14378     14380
     14387     14385     14394     14396     14389     14387     14385     14392
     14389     14387     14385     14394     14390     14387     14385     14392
     14390     14387     14385     14394     14391     14387     14385     14392
     14391     14387     14385     14394     14392     14385     14394     14396
     14403     14401     14410     14412     14405     14403     14401     14408
     14405     14403     14401     14410     14406     14403     14401     14408
     14406     14403     14401     14410     14407     14403     14401     14408
     14407     14403     14401     14410     14408     14401     14410     14412
     14419     14417     14426     14428     14421     14419     14417     14424
     14421     14419     14417     14426     14422     14419     14417     14424
     14422     14419     14417     14426     14423     14419     14417     14424
     14423     14419     14417     14426     14424     14417     14426     14428
     14435     14433     14442     14444     14437     14435     14433     14440
     14437     14435     14433     14442     14438     14435     14433     14440
     14438     14435     14433     14442     14439     14435     14433     14440
     14439     14435     14433     14442     14440     14433     14442     14444
     14451     14449     14458     14460     14453     14451     14449     14456
     14453     14451     14449     14458     14454     14451     14449     14456
     14454     14451     14449     14458     14455     14451     14449     14456
     14455     14451     14449     14458     14456     14449     14458     14460
     14467     14465     14474     14476     14469     14467     14465     14472
     14469     14467     14465     14474     14470     14467     14465     14472
     14470     14467     14465     14474     14471     14467     14465     14472
     14471     14467     14465     14474     14472     14465     14474     14476
     14483     14481     14490     14492     14485     14483     14481     14488
     14485     14483     14481     14490     14486     14483     14481     14488
     14486     14483     14481     14490     14487     14483     14481     14488
     14487     14483     14481     14490     14488     14481     14490     14492
     14499     14497     14506     14508     14501     14499     14497     14504
     14501     14499     14497     14506     14502     14499     14497     14504
     14502     14499     14497     14506     14503     14499     14497     14504
     14503     14499     14497     14506     14504     14497     14506     14508
     14515     14513     14522     14524     14517     14515     14513     14520
     14517     14515     14513     14522     14518     14515     14513     14520
     14518     14515     14513     14522     14519     14515     14513     14520
     14519     14515     14513     14522     14520     14513     14522     14524
     14531     14529     14538     14540     14533     14531     14529     14536
     14533     14531     14529     14538     14534     14531     14529     14536
     14534     14531     14529     14538     14535     14531     14529     14536
     14535     14531     14529     14538     14536     14529     14538     14540
     14547     14545     14554     14556     14549     14547     14545     14552
     14549     14547     14545     14554     14550     14547     14545     14552
     14550     14547     14545     14554     14551     14547     14545     14552
     14551     14547     14545     14554     14552     14545     14554     14556
     14563     14561     14570     14572     14565     14563     14561     14568
     14565     14563     14561     14570     14566     14563     14561     14568
     14566     14563     14561     14570     14567     14563     14561     14568
     14567     14563     14561     14570     14568     14561     14570     14572
     14579     14577     14586     14588     14581     14579     14577     14584
     14581     14579     14577     14586     14582     14579     14577     14584
     14582     14579     14577     14586     14583     14579     14577     14584
     14583     14579     14577     14586     14584     14577     14586     14588
     14595     14593     14602     14604     14597     14595     14593     14600
     14597     14595     14593     14602     14598     14595     14593     14600
     14598     14595     14593     14602     14599     14595     14593     14600
     14599     14595     14593     14602     14600     14593     14602     14604
     14611     14609     14618     14620     14613     14611     14609     14616
     14613     14611     14609     14618     14614     14611     14609     14616
     14614     14611     14609     14618     14615     14611     14609     14616
     14615     14611     14609     14618     14616     14609     14618     14620
     14627     14625     14634     14636     14629     14627     14625     14632
     14629     14627     14625     14634     14630     14627     14625     14632
     14630     14627     14625     14634     14631     14627     14625     14632
     14631     14627     14625     14634     14632     14625     14634     14636
     14643     14641     14650     14652     14645     14643     14641     14648
     14645     14643     14641     14650     14646     14643     14641     14648
     14646     14643     14641     14650     14647     14643     14641     14648
     14647     14643     14641     14650     14648     14641     14650     14652
     14659     14657     14666     14668     14661     14659     14657     14664
     14661     14659     14657     14666     14662     14659     14657     14664
     14662     14659     14657     14666     14663     14659     14657     14664
     14663     14659     14657     14666     14664     14657     14666     14668
     14675     14673     14682     14684     14677     14675     14673     14680
     14677     14675     14673     14682     14678     14675     14673     14680
     14678     14675     14673     14682     14679     14675     14673     14680
     14679     14675     14673     14682     14680     14673     14682     14684
     14691     14689     14698     14700     14693     14691     14689     14696
     14693     14691     14689     14698     14694     14691     14689     14696
     14694     14691     14689     14698     14695     14691     14689     14696
     14695     14691     14689     14698     14696     14689     14698     14700
     14707     14705     14714     14716     14709     14707     14705     14712
     14709     14707     14705     14714     14710     14707     14705     14712
     14710     14707     14705     14714     14711     14707     14705     14712
     14711     14707     14705     14714     14712     14705     14714     14716
     14723     14721     14730     14732     14725     14723     14721     14728
     14725     14723     14721     14730     14726     14723     14721     14728
     14726     14723     14721     14730     14727     14723     14721     14728
     14727     14723     14721     14730     14728     14721     14730     14732
     14739     14737     14746     14748     14741     14739     14737     14744
     14741     14739     14737     14746     14742     14739     14737     14744
     14742     14739     14737     14746     14743     14739     14737     14744
     14743     14739     14737     14746     14744     14737     14746     14748
     14755     14753     14762     14764     14757     14755     14753     14760
     14757     14755     14753     14762     14758     14755     14753     14760
     14758     14755     14753     14762     14759     14755     14753     14760
     14759     14755     14753     14762     14760     14753     14762     14764
     14771     14769     14778     14780     14773     14771     14769     14776
     14773     14771     14769     14778     14774     14771     14769     14776
     14774     14771     14769     14778     14775     14771     14769     14776
     14775     14771     14769     14778     14776     14769     14778     14780
     14787     14785     14794     14796     14789     14787     14785     14792
     14789     14787     14785     14794     14790     14787     14785     14792
     14790     14787     14785     14794     14791     14787     14785     14792
     14791     14787     14785     14794     14792     14785     14794     14796
     14804     14803     14801     14810     14804     14803     14801     14812
     14806     14803     14801     14810     14806     14803     14801     14812
     14808     14803     14801     14810     14808     14803     14801     14812
     14821     14820     14818     14827     14821     14820     14818     14829
     14823     14820     14818     14827     14823     14820     14818     14829
     14825     14820     14818     14827     14825     14820     14818     14829
     14838     14837     14835     14844     14838     14837     14835     14846
     14840     14837     14835     14844     14840     14837     14835     14846
     14842     14837     14835     14844     14842     14837     14835     14846
     14855     14854     14852     14861     14855     14854     14852     14863
     14857     14854     14852     14861     14857     14854     14852     14863
     14859     14854     14852     14861     14859     14854     14852     14863
     14872     14871     14869     14878     14872     14871     14869     14880
     14874     14871     14869     14878     14874     14871     14869     14880
     14876     14871     14869     14878     14876     14871     14869     14880
     14889     14888     14886     14895     14889     14888     14886     14897
     14891     14888     14886     14895     14891     14888     14886     14897
     14893     14888     14886     14895     14893     14888     14886     14897
     14906     14905     14903     14912     14906     14905     14903     14914
     14908     14905     14903     14912     14908     14905     14903     14914
     14910     14905     14903     14912     14910     14905     14903     14914
     14923     14922     14920     14929     14923     14922     14920     14931
     14925     14922     14920     14929     14925     14922     14920     14931
     14927     14922     14920     14929     14927     14922     14920     14931
     14940     14939     14937     14946     14940     14939     14937     14948
     14942     14939     14937     14946     14942     14939     14937     14948
     14944     14939     14937     14946     14944     14939     14937     14948
     14957     14956     14954     14963     14957     14956     14954     14965
     14959     14956     14954     14963     14959     14956     14954     14965
     14961     14956     14954     14963     14961     14956     14954     14965
     14974     14973     14971     14980     14974     14973     14971     14982
     14976     14973     14971     14980     14976     14973     14971     14982
     14978     14973     14971     14980     14978     14973     14971     14982
     14991     14990     14988     14997     14991     14990     14988     14999
     14993     14990     14988     14997     14993     14990     14988     14999
     14995     14990     14988     14997     14995     14990     14988     14999
     15008     15007     15005     15014     15008     15007     15005     15016
     15010     15007     15005     15014     15010     15007     15005     15016
     15012     15007     15005     15014     15012     15007     15005     15016
     15025     15024     15022     15031     15025     15024     15022     15033
     15027     15024     15022     15031     15027     15024     15022     15033
     15029     15024     15022     15031     15029     15024     15022     15033
     15042     15041     15039     15048     15042     15041     15039     15050
     15044     15041     15039     15048     15044     15041     15039     15050
     15046     15041     15039     15048     15046     15041     15039     15050
     15059     15058     15056     15065     15059     15058     15056     15067
     15061     15058     15056     15065     15061     15058     15056     15067
     15063     15058     15056     15065     15063     15058     15056     15067
     15076     15075     15073     15082     15076     15075     15073     15084
     15078     15075     15073     15082     15078     15075     15073     15084
     15080     15075     15073     15082     15080     15075     15073     15084
     15093     15092     15090     15099     15093     15092     15090     15101
     15095     15092     15090     15099     15095     15092     15090     15101
     15097     15092     15090     15099     15097     15092     15090     15101
     15110     15109     15107     15116     15110     15109     15107     15118
     15112     15109     15107     15116     15112     15109     15107     15118
     15114     15109     15107     15116     15114     15109     15107     15118
     15127     15126     15124     15133     15127     15126     15124     15135
     15129     15126     15124     15133     15129     15126     15124     15135
     15131     15126     15124     15133     15131     15126     15124     15135
     15144     15143     15141     15150     15144     15143     15141     15152
     15146     15143     15141     15150     15146     15143     15141     15152
     15148     15143     15141     15150     15148     15143     15141     15152
     15161     15160     15158     15167     15161     15160     15158     15169
     15163     15160     15158     15167     15163     15160     15158     15169
     15165     15160     15158     15167     15165     15160     15158     15169
     15178     15177     15175     15184     15178     15177     15175     15186
     15180     15177     15175     15184     15180     15177     15175     15186
     15182     15177     15175     15184     15182     15177     15175     15186
     15195     15194     15192     15201     15195     15194     15192     15203
     15197     15194     15192     15201     15197     15194     15192     15203
     15199     15194     15192     15201     15199     15194     15192     15203
     15212     15211     15209     15218     15212     15211     15209     15220
     15214     15211     15209     15218     15214     15211     15209     15220
     15216     15211     15209     15218     15216     15211     15209     15220
     15229     15228     15226     15235     15229     15228     15226     15237
     15231     15228     15226     15235     15231     15228     15226     15237
     15233     15228     15226     15235     15233     15228     15226     15237
     15246     15245     15243     15252     15246     15245     15243     15254
     15248     15245     15243     15252     15248     15245     15243     15254
     15250     15245     15243     15252     15250     15245     15243     15254
     15263     15262     15260     15269     15263     15262     15260     15271
     15265     15262     15260     15269     15265     15262     15260     15271
     15267     15262     15260     15269     15267     15262     15260     15271
     15280     15279     15277     15286     15280     15279     15277     15288
     15282     15279     15277     15286     15282     15279     15277     15288
     15284     15279     15277     15286     15284     15279     15277     15288
     15297     15296     15294     15303     15297     15296     15294     15305
     15299     15296     15294     15303     15299     15296     15294     15305
     15301     15296     15294     15303     15301     15296     15294     15305
     15314     15313     15311     15320     15314     15313     15311     15322
     15316     15313     15311     15320     15316     15313     15311     15322
     15318     15313     15311     15320     15318     15313     15311     15322
     15331     15330     15328     15337     15331     15330     15328     15339
     15333     15330     15328     15337     15333     15330     15328     15339
     15335     15330     15328     15337     15335     15330     15328     15339
     15348     15347     15345     15354     15348     15347     15345     15356
     15350     15347     15345     15354     15350     15347     15345     15356
     15352     15347     15345     15354     15352     15347     15345     15356
     15365     15364     15362     15371     15365     15364     15362     15373
     15367     15364     15362     15371     15367     15364     15362     15373
     15369     15364     15362     15371     15369     15364     15362     15373
     15382     15381     15379     15388     15382     15381     15379     15390
     15384     15381     15379     15388     15384     15381     15379     15390
     15386     15381     15379     15388     15386     15381     15379     15390
     15399     15398     15396     15405     15399     15398     15396     15407
     15401     15398     15396     15405     15401     15398     15396     15407
     15403     15398     15396     15405     15403     15398     15396     15407
     15416     15415     15413     15422     15416     15415     15413     15424
     15418     15415     15413     15422     15418     15415     15413     15424
     15420     15415     15413     15422     15420     15415     15413     15424
     15433     15432     15430     15439     15433     15432     15430     15441
     15435     15432     15430     15439     15435     15432     15430     15441
     15437     15432     15430     15439     15437     15432     15430     15441
     15450     15449     15447     15456     15450     15449     15447     15458
     15452     15449     15447     15456     15452     15449     15447     15458
     15454     15449     15447     15456     15454     15449     15447     15458
     15467     15466     15464     15473     15467     15466     15464     15475
     15469     15466     15464     15473     15469     15466     15464     15475
     15471     15466     15464     15473     15471     15466     15464     15475
     15484     15483     15481     15490     15484     15483     15481     15492
     15486     15483     15481     15490     15486     15483     15481     15492
     15488     15483     15481     15490     15488     15483     15481     15492
     15501     15500     15498     15507     15501     15500     15498     15509
     15503     15500     15498     15507     15503     15500     15498     15509
     15505     15500     15498     15507     15505     15500     15498     15509
     15518     15517     15515     15524     15518     15517     15515     15526
     15520     15517     15515     15524     15520     15517     15515     15526
     15522     15517     15515     15524     15522     15517     15515     15526
     15535     15534     15532     15541     15535     15534     15532     15543
     15537     15534     15532     15541     15537     15534     15532     15543
     15539     15534     15532     15541     15539     15534     15532     15543
     15552     15551     15549     15558     15552     15551     15549     15560
     15554     15551     15549     15558     15554     15551     15549     15560
     15556     15551     15549     15558     15556     15551     15549     15560
     15569     15568     15566     15575     15569     15568     15566     15577
     15571     15568     15566     15575     15571     15568     15566     15577
     15573     15568     15566     15575     15573     15568     15566     15577
     15586     15585     15583     15592     15586     15585     15583     15594
     15588     15585     15583     15592     15588     15585     15583     15594
     15590     15585     15583     15592     15590     15585     15583     15594
     15603     15602     15600     15609     15603     15602     15600     15611
     15605     15602     15600     15609     15605     15602     15600     15611
     15607     15602     15600     15609     15607     15602     15600     15611
     15620     15619     15617     15626     15620     15619     15617     15628
     15622     15619     15617     15626     15622     15619     15617     15628
     15624     15619     15617     15626     15624     15619     15617     15628
     15637     15636     15634     15643     15637     15636     15634     15645
     15639     15636     15634     15643     15639     15636     15634     15645
     15641     15636     15634     15643     15641     15636     15634     15645
     15654     15653     15651     15660     15654     15653     15651     15662
     15656     15653     15651     15660     15656     15653     15651     15662
     15658     15653     15651     15660     15658     15653     15651     15662
     15671     15670     15668     15677     15671     15670     15668     15679
     15673     15670     15668     15677     15673     15670     15668     15679
     15675     15670     15668     15677     15675     15670     15668     15679
     15688     15687     15685     15694     15688     15687     15685     15696
     15690     15687     15685     15694     15690     15687     15685     15696
     15692     15687     15685     15694     15692     15687     15685     15696
     15705     15704     15702     15711     15705     15704     15702     15713
     15707     15704     15702     15711     15707     15704     15702     15713
     15709     15704     15702     15711     15709     15704     15702     15713
     15722     15721     15719     15728     15722     15721     15719     15730
     15724     15721     15719     15728     15724     15721     15719     15730
     15726     15721     15719     15728     15726     15721     15719     15730
     15739     15738     15736     15745     15739     15738     15736     15747
     15741     15738     15736     15745     15741     15738     15736     15747
     15743     15738     15736     15745     15743     15738     15736     15747
     15756     15755     15753     15762     15756     15755     15753     15764
     15758     15755     15753     15762     15758     15755     15753     15764
     15760     15755     15753     15762     15760     15755     15753     15764
     15773     15772     15770     15779     15773     15772     15770     15781
     15775     15772     15770     15779     15775     15772     15770     15781
     15777     15772     15770     15779     15777     15772     15770     15781
     15790     15789     15787     15796     15790     15789     15787     15798
     15792     15789     15787     15796     15792     15789     15787     15798
     15794     15789     15787     15796     15794     15789     15787     15798
     15807     15806     15804     15813     15807     15806     15804     15815
     15809     15806     15804     15813     15809     15806     15804     15815
     15811     15806     15804     15813     15811     15806     15804     15815
     15824     15823     15821     15830     15824     15823     15821     15832
     15826     15823     15821     15830     15826     15823     15821     15832
     15828     15823     15821     15830     15828     15823     15821     15832
     15841     15840     15838     15847     15841     15840     15838     15849
     15843     15840     15838     15847     15843     15840     15838     15849
     15845     15840     15838     15847     15845     15840     15838     15849
     15858     15857     15855     15864     15858     15857     15855     15866
     15860     15857     15855     15864     15860     15857     15855     15866
     15862     15857     15855     15864     15862     15857     15855     15866
     15875     15874     15872     15881     15875     15874     15872     15883
     15877     15874     15872     15881     15877     15874     15872     15883
     15879     15874     15872     15881     15879     15874     15872     15883
     15892     15891     15889     15898     15892     15891     15889     15900
     15894     15891     15889     15898     15894     15891     15889     15900
     15896     15891     15889     15898     15896     15891     15889     15900
     15909     15908     15906     15915     15909     15908     15906     15917
     15911     15908     15906     15915     15911     15908     15906     15917
     15913     15908     15906     15915     15913     15908     15906     15917
     15926     15925     15923     15932     15926     15925     15923     15934
     15928     15925     15923     15932     15928     15925     15923     15934
     15930     15925     15923     15932     15930     15925     15923     15934
     15943     15942     15940     15949     15943     15942     15940     15951
     15945     15942     15940     15949     15945     15942     15940     15951
     15947     15942     15940     15949     15947     15942     15940     15951
     15960     15959     15957     15966     15960     15959     15957     15968
     15962     15959     15957     15966     15962     15959     15957     15968
     15964     15959     15957     15966     15964     15959     15957     15968
     15977     15976     15974     15983     15977     15976     15974     15985
     15979     15976     15974     15983     15979     15976     15974     15985
     15981     15976     15974     15983     15981     15976     15974     15985
     15994     15993     15991     16000     15994     15993     15991     16002
     15996     15993     15991     16000     15996     15993     15991     16002
     15998     15993     15991     16000     15998     15993     15991     16002
     16011     16010     16008     16017     16011     16010     16008     16019
     16013     16010     16008     16017     16013     16010     16008     16019
     16015     16010     16008     16017     16015     16010     16008     16019
     16028     16027     16025     16034     16028     16027     16025     16036
     16030     16027     16025     16034     16030     16027     16025     16036
     16032     16027     16025     16034     16032     16027     16025     16036
     16045     16044     16042     16051     16045     16044     16042     16053
     16047     16044     16042     16051     16047     16044     16042     16053
     16049     16044     16042     16051     16049     16044     16042     16053
     16062     16061     16059     16068     16062     16061     16059     16070
     16064     16061     16059     16068     16064     16061     16059     16070
     16066     16061     16059     16068     16066     16061     16059     16070
     16079     16078     16076     16085     16079     16078     16076     16087
     16081     16078     16076     16085     16081     16078     16076     16087
     16083     16078     16076     16085     16083     16078     16076     16087
     16096     16095     16093     16102     16096     16095     16093     16104
     16098     16095     16093     16102     16098     16095     16093     16104
     16100     16095     16093     16102     16100     16095     16093     16104
     16113     16112     16110     16119     16113     16112     16110     16121
     16115     16112     16110     16119     16115     16112     16110     16121
     16117     16112     16110     16119     16117     16112     16110     16121
     16130     16129     16127     16136     16130     16129     16127     16138
     16132     16129     16127     16136     16132     16129     16127     16138
     16134     16129     16127     16136     16134     16129     16127     16138
     16147     16146     16144     16153     16147     16146     16144     16155
     16149     16146     16144     16153     16149     16146     16144     16155
     16151     16146     16144     16153     16151     16146     16144     16155
     16164     16163     16161     16170     16164     16163     16161     16172
     16166     16163     16161     16170     16166     16163     16161     16172
     16168     16163     16161     16170     16168     16163     16161     16172
     16181     16180     16178     16187     16181     16180     16178     16189
     16183     16180     16178     16187     16183     16180     16178     16189
     16185     16180     16178     16187     16185     16180     16178     16189
     16198     16197     16195     16204     16198     16197     16195     16206
     16200     16197     16195     16204     16200     16197     16195     16206
     16202     16197     16195     16204     16202     16197     16195     16206
     16215     16214     16212     16221     16215     16214     16212     16223
     16217     16214     16212     16221     16217     16214     16212     16223
     16219     16214     16212     16221     16219     16214     16212     16223
     16232     16231     16229     16238     16232     16231     16229     16240
     16234     16231     16229     16238     16234     16231     16229     16240
     16236     16231     16229     16238     16236     16231     16229     16240
     16249     16248     16246     16255     16249     16248     16246     16257
     16251     16248     16246     16255     16251     16248     16246     16257
     16253     16248     16246     16255     16253     16248     16246     16257
     16266     16265     16263     16272     16266     16265     16263     16274
     16268     16265     16263     16272     16268     16265     16263     16274
     16270     16265     16263     16272     16270     16265     16263     16274
     16283     16282     16280     16289     16283     16282     16280     16291
     16285     16282     16280     16289     16285     16282     16280     16291
     16287     16282     16280     16289     16287     16282     16280     16291
     16300     16299     16297     16306     16300     16299     16297     16308
     16302     16299     16297     16306     16302     16299     16297     16308
     16304     16299     16297     16306     16304     16299     16297     16308
     16317     16316     16314     16323     16317     16316     16314     16325
     16319     16316     16314     16323     16319     16316     16314     16325
     16321     16316     16314     16323     16321     16316     16314     16325
     16334     16333     16331     16340     16334     16333     16331     16342
     16336     16333     16331     16340     16336     16333     16331     16342
     16338     16333     16331     16340     16338     16333     16331     16342
     16351     16350     16348     16357     16351     16350     16348     16359
     16353     16350     16348     16357     16353     16350     16348     16359
     16355     16350     16348     16357     16355     16350     16348     16359
     16368     16367     16365     16374     16368     16367     16365     16376
     16370     16367     16365     16374     16370     16367     16365     16376
     16372     16367     16365     16374     16372     16367     16365     16376
     16385     16384     16382     16391     16385     16384     16382     16393
     16387     16384     16382     16391     16387     16384     16382     16393
     16389     16384     16382     16391     16389     16384     16382     16393
     16402     16401     16399     16408     16402     16401     16399     16410
     16404     16401     16399     16408     16404     16401     16399     16410
     16406     16401     16399     16408     16406     16401     16399     16410
     16419     16418     16416     16425     16419     16418     16416     16427
     16421     16418     16416     16425     16421     16418     16416     16427
     16423     16418     16416     16425     16423     16418     16416     16427
     16436     16435     16433     16442     16436     16435     16433     16444
     16438     16435     16433     16442     16438     16435     16433     16444
     16440     16435     16433     16442     16440     16435     16433     16444
     16453     16452     16450     16459     16453     16452     16450     16461
     16455     16452     16450     16459     16455     16452     16450     16461
     16457     16452     16450     16459     16457     16452     16450     16461
     16470     16469     16467     16476     16470     16469     16467     16478
     16472     16469     16467     16476     16472     16469     16467     16478
     16474     16469     16467     16476     16474     16469     16467     16478
     16487     16486     16484     16493     16487     16486     16484     16495
     16489     16486     16484     16493     16489     16486     16484     16495
     16491     16486     16484     16493     16491     16486     16484     16495
     16504     16503     16501     16510     16504     16503     16501     16512
     16506     16503     16501     16510     16506     16503     16501     16512
     16508     16503     16501     16510     16508     16503     16501     16512
     16521     16520     16518     16527     16521     16520     16518     16529
     16523     16520     16518     16527     16523     16520     16518     16529
     16525     16520     16518     16527     16525     16520     16518     16529
     16538     16537     16535     16544     16538     16537     16535     16546
     16540     16537     16535     16544     16540     16537     16535     16546
     16542     16537     16535     16544     16542     16537     16535     16546
     16555     16554     16552     16561     16555     16554     16552     16563
     16557     16554     16552     16561     16557     16554     16552     16563
     16559     16554     16552     16561     16559     16554     16552     16563
     16572     16571     16569     16578     16572     16571     16569     16580
     16574     16571     16569     16578     16574     16571     16569     16580
     16576     16571     16569     16578     16576     16571     16569     16580
     16589     16588     16586     16595     16589     16588     16586     16597
     16591     16588     16586     16595     16591     16588     16586     16597
     16593     16588     16586     16595     16593     16588     16586     16597
     16606     16605     16603     16612     16606     16605     16603     16614
     16608     16605     16603     16612     16608     16605     16603     16614
     16610     16605     16603     16612     16610     16605     16603     16614
     16623     16622     16620     16629     16623     16622     16620     16631
     16625     16622     16620     16629     16625     16622     16620     16631
     16627     16622     16620     16629     16627     16622     16620     16631
     16640     16639     16637     16646     16640     16639     16637     16648
     16642     16639     16637     16646     16642     16639     16637     16648
     16644     16639     16637     16646     16644     16639     16637     16648
     16657     16656     16654     16663     16657     16656     16654     16665
     16659     16656     16654     16663     16659     16656     16654     16665
     16661     16656     16654     16663     16661     16656     16654     16665
     16674     16673     16671     16680     16674     16673     16671     16682
     16676     16673     16671     16680     16676     16673     16671     16682
     16678     16673     16671     16680     16678     16673     16671     16682
     16691     16690     16688     16697     16691     16690     16688     16699
     16693     16690     16688     16697     16693     16690     16688     16699
     16695     16690     16688     16697     16695     16690     16688     16699
     16708     16707     16705     16714     16708     16707     16705     16716
     16710     16707     16705     16714     16710     16707     16705     16716
     16712     16707     16705     16714     16712     16707     16705     16716
     16725     16724     16722     16731     16725     16724     16722     16733
     16727     16724     16722     16731     16727     16724     16722     16733
     16729     16724     16722     16731     16729     16724     16722     16733
     16742     16741     16739     16748     16742     16741     16739     16750
     16744     16741     16739     16748     16744     16741     16739     16750
     16746     16741     16739     16748     16746     16741     16739     16750
     16759     16758     16756     16765     16759     16758     16756     16767
     16761     16758     16756     16765     16761     16758     16756     16767
     16763     16758     16756     16765     16763     16758     16756     16767
     16776     16775     16773     16782     16776     16775     16773     16784
     16778     16775     16773     16782     16778     16775     16773     16784
     16780     16775     16773     16782     16780     16775     16773     16784
     16793     16792     16790     16799     16793     16792     16790     16801
     16795     16792     16790     16799     16795     16792     16790     16801
     16797     16792     16790     16799     16797     16792     16790     16801
     16810     16809     16807     16816     16810     16809     16807     16818
     16812     16809     16807     16816     16812     16809     16807     16818
     16814     16809     16807     16816     16814     16809     16807     16818
     16827     16826     16824     16833     16827     16826     16824     16835
     16829     16826     16824     16833     16829     16826     16824     16835
     16831     16826     16824     16833     16831     16826     16824     16835
     16844     16843     16841     16850     16844     16843     16841     16852
     16846     16843     16841     16850     16846     16843     16841     16852
     16848     16843     16841     16850     16848     16843     16841     16852
     16861     16860     16858     16867     16861     16860     16858     16869
     16863     16860     16858     16867     16863     16860     16858     16869
     16865     16860     16858     16867     16865     16860     16858     16869
     16878     16877     16875     16884     16878     16877     16875     16886
     16880     16877     16875     16884     16880     16877     16875     16886
     16882     16877     16875     16884     16882     16877     16875     16886
     16895     16894     16892     16901     16895     16894     16892     16903
     16897     16894     16892     16901     16897     16894     16892     16903
     16899     16894     16892     16901     16899     16894     16892     16903
     16912     16911     16909     16918     16912     16911     16909     16920
     16914     16911     16909     16918     16914     16911     16909     16920
     16916     16911     16909     16918     16916     16911     16909     16920
     16929     16928     16926     16935     16929     16928     16926     16937
     16931     16928     16926     16935     16931     16928     16926     16937
     16933     16928     16926     16935     16933     16928     16926     16937
     16946     16945     16943     16952     16946     16945     16943     16954
     16948     16945     16943     16952     16948     16945     16943     16954
     16950     16945     16943     16952     16950     16945     16943     16954
     16963     16962     16960     16969     16963     16962     16960     16971
     16965     16962     16960     16969     16965     16962     16960     16971
     16967     16962     16960     16969     16967     16962     16960     16971
     16980     16979     16977     16986     16980     16979     16977     16988
     16982     16979     16977     16986     16982     16979     16977     16988
     16984     16979     16977     16986     16984     16979     16977     16988
     16997     16996     16994     17003     16997     16996     16994     17005
     16999     16996     16994     17003     16999     16996     16994     17005
     17001     16996     16994     17003     17001     16996     16994     17005
     17014     17013     17011     17020     17014     17013     17011     17022
     17016     17013     17011     17020     17016     17013     17011     17022
     17018     17013     17011     17020     17018     17013     17011     17022
     17031     17030     17028     17037     17031     17030     17028     17039
     17033     17030     17028     17037     17033     17030     17028     17039
     17035     17030     17028     17037     17035     17030     17028     17039
     17048     17047     17045     17054     17048     17047     17045     17056
     17050     17047     17045     17054     17050     17047     17045     17056
     17052     17047     17045     17054     17052     17047     17045     17056
     17065     17064     17062     17071     17065     17064     17062     17073
     17067     17064     17062     17071     17067     17064     17062     17073
     17069     17064     17062     17071     17069     17064     17062     17073
     17082     17081     17079     17088     17082     17081     17079     17090
     17084     17081     17079     17088     17084     17081     17079     17090
     17086     17081     17079     17088     17086     17081     17079     17090
     17099     17098     17096     17105     17099     17098     17096     17107
     17101     17098     17096     17105     17101     17098     17096     17107
     17103     17098     17096     17105     17103     17098     17096     17107
     17116     17115     17113     17122     17116     17115     17113     17124
     17118     17115     17113     17122     17118     17115     17113     17124
     17120     17115     17113     17122     17120     17115     17113     17124
     17133     17132     17130     17139     17133     17132     17130     17141
     17135     17132     17130     17139     17135     17132     17130     17141
     17137     17132     17130     17139     17137     17132     17130     17141
     17150     17149     17147     17156     17150     17149     17147     17158
     17152     17149     17147     17156     17152     17149     17147     17158
     17154     17149     17147     17156     17154     17149     17147     17158
     17167     17166     17164     17173     17167     17166     17164     17175
     17169     17166     17164     17173     17169     17166     17164     17175
     17171     17166     17164     17173     17171     17166     17164     17175
     17184     17183     17181     17190     17184     17183     17181     17192
     17186     17183     17181     17190     17186     17183     17181     17192
     17188     17183     17181     17190     17188     17183     17181     17192
     17201     17200     17198     17207     17201     17200     17198     17209
     17203     17200     17198     17207     17203     17200     17198     17209
     17205     17200     17198     17207     17205     17200     17198     17209
     17218     17217     17215     17224     17218     17217     17215     17226
     17220     17217     17215     17224     17220     17217     17215     17226
     17222     17217     17215     17224     17222     17217     17215     17226
     17235     17234     17232     17241     17235     17234     17232     17243
     17237     17234     17232     17241     17237     17234     17232     17243
     17239     17234     17232     17241     17239     17234     17232     17243
     17252     17251     17249     17258     17252     17251     17249     17260
     17254     17251     17249     17258     17254     17251     17249     17260
     17256     17251     17249     17258     17256     17251     17249     17260
     17269     17268     17266     17275     17269     17268     17266     17277
     17271     17268     17266     17275     17271     17268     17266     17277
     17273     17268     17266     17275     17273     17268     17266     17277
     17286     17285     17283     17292     17286     17285     17283     17294
     17288     17285     17283     17292     17288     17285     17283     17294
     17290     17285     17283     17292     17290     17285     17283     17294
     17303     17302     17300     17309     17303     17302     17300     17311
     17305     17302     17300     17309     17305     17302     17300     17311
     17307     17302     17300     17309     17307     17302     17300     17311
     17320     17319     17317     17326     17320     17319     17317     17328
     17322     17319     17317     17326     17322     17319     17317     17328
     17324     17319     17317     17326     17324     17319     17317     17328
     17337     17336     17334     17343     17337     17336     17334     17345
     17339     17336     17334     17343     17339     17336     17334     17345
     17341     17336     17334     17343     17341     17336     17334     17345
     17354     17353     17351     17360     17354     17353     17351     17362
     17356     17353     17351     17360     17356     17353     17351     17362
     17358     17353     17351     17360     17358     17353     17351     17362
     17371     17370     17368     17377     17371     17370     17368     17379
     17373     17370     17368     17377     17373     17370     17368     17379
     17375     17370     17368     17377     17375     17370     17368     17379
     17388     17387     17385     17394     17388     17387     17385     17396
     17390     17387     17385     17394     17390     17387     17385     17396
     17392     17387     17385     17394     17392     17387     17385     17396
     17405     17404     17402     17411     17405     17404     17402     17413
     17407     17404     17402     17411     17407     17404     17402     17413
     17409     17404     17402     17411     17409     17404     17402     17413
     17422     17421     17419     17428     17422     17421     17419     17430
     17424     17421     17419     17428     17424     17421     17419     17430
     17426     17421     17419     17428     17426     17421     17419     17430
     17439     17438     17436     17445     17439     17438     17436     17447
     17441     17438     17436     17445     17441     17438     17436     17447
     17443     17438     17436     17445     17443     17438     17436     17447
     17456     17455     17453     17462     17456     17455     17453     17464
     17458     17455     17453     17462     17458     17455     17453     17464
     17460     17455     17453     17462     17460     17455     17453     17464
     17473     17472     17470     17479     17473     17472     17470     17481
     17475     17472     17470     17479     17475     17472     17470     17481
     17477     17472     17470     17479     17477     17472     17470     17481
     17490     17489     17487     17496     17490     17489     17487     17498
     17492     17489     17487     17496     17492     17489     17487     17498
     17494     17489     17487     17496     17494     17489     17487     17498
     17507     17506     17504     17513     17507     17506     17504     17515
     17509     17506     17504     17513     17509     17506     17504     17515
     17511     17506     17504     17513     17511     17506     17504     17515
     17524     17523     17521     17530     17524     17523     17521     17532
     17526     17523     17521     17530     17526     17523     17521     17532
     17528     17523     17521     17530     17528     17523     17521     17532
     17541     17540     17538     17547     17541     17540     17538     17549
     17543     17540     17538     17547     17543     17540     17538     17549
     17545     17540     17538     17547     17545     17540     17538     17549
     17558     17557     17555     17564     17558     17557     17555     17566
     17560     17557     17555     17564     17560     17557     17555     17566
     17562     17557     17555     17564     17562     17557     17555     17566
     17575     17574     17572     17581     17575     17574     17572     17583
     17577     17574     17572     17581     17577     17574     17572     17583
     17579     17574     17572     17581     17579     17574     17572     17583
     17592     17591     17589     17598     17592     17591     17589     17600
     17594     17591     17589     17598     17594     17591     17589     17600
     17596     17591     17589     17598     17596     17591     17589     17600
     17609     17608     17606     17615     17609     17608     17606     17617
     17611     17608     17606     17615     17611     17608     17606     17617
     17613     17608     17606     17615     17613     17608     17606     17617
     17626     17625     17623     17632     17626     17625     17623     17634
     17628     17625     17623     17632     17628     17625     17623     17634
     17630     17625     17623     17632     17630     17625     17623     17634
     17643     17642     17640     17649     17643     17642     17640     17651
     17645     17642     17640     17649     17645     17642     17640     17651
     17647     17642     17640     17649     17647     17642     17640     17651
     17660     17659     17657     17666     17660     17659     17657     17668
     17662     17659     17657     17666     17662     17659     17657     17668
     17664     17659     17657     17666     17664     17659     17657     17668
     17677     17676     17674     17683     17677     17676     17674     17685
     17679     17676     17674     17683     17679     17676     17674     17685
     17681     17676     17674     17683     17681     17676     17674     17685
     17694     17693     17691     17700     17694     17693     17691     17702
     17696     17693     17691     17700     17696     17693     17691     17702
     17698     17693     17691     17700     17698     17693     17691     17702
     17711     17710     17708     17717     17711     17710     17708     17719
     17713     17710     17708     17717     17713     17710     17708     17719
     17715     17710     17708     17717     17715     17710     17708     17719
     17728     17727     17725     17734     17728     17727     17725     17736
     17730     17727     17725     17734     17730     17727     17725     17736
     17732     17727     17725     17734     17732     17727     17725     17736
     17745     17744     17742     17751     17745     17744     17742     17753
     17747     17744     17742     17751     17747     17744     17742     17753
     17749     17744     17742     17751     17749     17744     17742     17753
     17762     17761     17759     17768     17762     17761     17759     17770
     17764     17761     17759     17768     17764     17761     17759     17770
     17766     17761     17759     17768     17766     17761     17759     17770
     17779     17778     17776     17785     17779     17778     17776     17787
     17781     17778     17776     17785     17781     17778     17776     17787
     17783     17778     17776     17785     17783     17778     17776     17787
     17796     17795     17793     17802     17796     17795     17793     17804
     17798     17795     17793     17802     17798     17795     17793     17804
     17800     17795     17793     17802     17800     17795     17793     17804
     17813     17812     17810     17819     17813     17812     17810     17821
     17815     17812     17810     17819     17815     17812     17810     17821
     17817     17812     17810     17819     17817     17812     17810     17821
     17830     17829     17827     17836     17830     17829     17827     17838
     17832     17829     17827     17836     17832     17829     17827     17838
     17834     17829     17827     17836     17834     17829     17827     17838
     17847     17846     17844     17853     17847     17846     17844     17855
     17849     17846     17844     17853     17849     17846     17844     17855
     17851     17846     17844     17853     17851     17846     17844     17855
     17864     17863     17861     17870     17864     17863     17861     17872
     17866     17863     17861     17870     17866     17863     17861     17872
     17868     17863     17861     17870     17868     17863     17861     17872
     17881     17880     17878     17887     17881     17880     17878     17889
     17883     17880     17878     17887     17883     17880     17878     17889
     17885     17880     17878     17887     17885     17880     17878     17889
     17898     17897     17895     17904     17898     17897     17895     17906
     17900     17897     17895     17904     17900     17897     17895     17906
     17902     17897     17895     17904     17902     17897     17895     17906
     17915     17914     17912     17921     17915     17914     17912     17923
     17917     17914     17912     17921     17917     17914     17912     17923
     17919     17914     17912     17921     17919     17914     17912     17923
     17932     17931     17929     17938     17932     17931     17929     17940
     17934     17931     17929     17938     17934     17931     17929     17940
     17936     17931     17929     17938     17936     17931     17929     17940
     17949     17948     17946     17955     17949     17948     17946     17957
     17951     17948     17946     17955     17951     17948     17946     17957
     17953     17948     17946     17955     17953     17948     17946     17957
     17966     17965     17963     17972     17966     17965     17963     17974
     17968     17965     17963     17972     17968     17965     17963     17974
     17970     17965     17963     17972     17970     17965     17963     17974
     17983     17982     17980     17989     17983     17982     17980     17991
     17985     17982     17980     17989     17985     17982     17980     17991
     17987     17982     17980     17989     17987     17982     17980     17991
     18000     17999     17997     18006     18000     17999     17997     18008
     18002     17999     17997     18006     18002     17999     17997     18008
     18004     17999     17997     18006     18004     17999     17997     18008
     18017     18016     18014     18023     18017     18016     18014     18025
     18019     18016     18014     18023     18019     18016     18014     18025
     18021     18016     18014     18023     18021     18016     18014     18025
     18034     18033     18031     18040     18034     18033     18031     18042
     18036     18033     18031     18040     18036     18033     18031     18042
     18038     18033     18031     18040     18038     18033     18031     18042
     18051     18050     18048     18057     18051     18050     18048     18059
     18053     18050     18048     18057     18053     18050     18048     18059
     18055     18050     18048     18057     18055     18050     18048     18059
     18068     18067     18065     18074     18068     18067     18065     18076
     18070     18067     18065     18074     18070     18067     18065     18076
     18072     18067     18065     18074     18072     18067     18065     18076
     18085     18084     18082     18091     18085     18084     18082     18093
     18087     18084     18082     18091     18087     18084     18082     18093
     18089     18084     18082     18091     18089     18084     18082     18093
     18102     18101     18099     18108     18102     18101     18099     18110
     18104     18101     18099     18108     18104     18101     18099     18110
     18106     18101     18099     18108     18106     18101     18099     18110
     18119     18118     18116     18125     18119     18118     18116     18127
     18121     18118     18116     18125     18121     18118     18116     18127
     18123     18118     18116     18125     18123     18118     18116     18127
     18136     18135     18133     18142     18136     18135     18133     18144
     18138     18135     18133     18142     18138     18135     18133     18144
     18140     18135     18133     18142     18140     18135     18133     18144
     18153     18152     18150     18159     18153     18152     18150     18161
     18155     18152     18150     18159     18155     18152     18150     18161
     18157     18152     18150     18159     18157     18152     18150     18161
     18170     18169     18167     18176     18170     18169     18167     18178
     18172     18169     18167     18176     18172     18169     18167     18178
     18174     18169     18167     18176     18174     18169     18167     18178
     18187     18186     18184     18193     18187     18186     18184     18195
     18189     18186     18184     18193     18189     18186     18184     18195
     18191     18186     18184     18193     18191     18186     18184     18195

      3000 !NIMPHI: impropers
         8        11         6        10        11         8        17        13
        14         6        17        16        17        14        11        19
         6        14         8         1        28        31        26        30
        31        28        37        33        34        26        37        36
        37        34        31        39        26        34        28        21
        48        51        46        50        51        48        57        53
        54        46        57        56        57        54        51        59
        46        54        48        41        68        71        66        70
        71        68        77        73        74        66        77        76
        77        74        71        79        66        74        68        61
        88        91        86        90        91        88        97        93
        94        86        97        96        97        94        91        99
        86        94        88        81       108       111       106       110
       111       108       117       113       114       106       117       116
       117       114       111       119       106       114       108       101
       128       131       126       130       131       128       137       133
       134       126       137       136       137       134       131       139
       126       134       128       121       148       151       146       150
       151       148       157       153       154       146       157       156
       157       154       151       159       146       154       148       141
       168       171       166       170       171       168       177       173
       174       166       177       176       177       174       171       179
       166       174       168       161       188       191       186       190
       191       188       197       193       194       186       197       196
       197       194       191       199       186       194       188       181
       208       211       206       210       211       208       217       213
       214       206       217       216       217       214       211       219
       206       214       208       201       228       231       226       230
       231       228       237       233       234       226       237       236
       237       234       231       239       226       234       228       221
       248       251       246       250       251       248       257       253
       254       246       257       256       257       254       251       259
       246       254       248       241       268       271       266       270
       271       268       277       273       274       266       277       276
       277       274       271       279       266       274       268       261
       288       291       286       290       291       288       297       293
       294       286       297       296       297       294       291       299
       286       294       288       281       308       311       306       310
       311       308       317       313       314       306       317       316
       317       314       311       319       306       314       308       301
       328       331       326       330       331       328       337       333
       334       326       337       336       337       334       331       339
       326       334       328       321       348       351       346       350
       351       348       357       353       354       346       357       356
       357       354       351       359       346       354       348       341
       368       371       366       370       371       368       377       373
       374       366       377       376       377       374       371       379
       366       374       368       361       388       391       386       390
       391       388       397       393       394       386       397       396
       397       394       391       399       386       394       388       381
       408       411       406       410       411       408       417       413
       414       406       417       416       417       414       411       419
       406       414       408       401       428       431       426       430
       431       428       437       433       434       426       437       436
       437       434       431       439       426       434       428       421
       448       451       446       450       451       448       457       453
       454       446       457       456       457       454       451       459
       446       454       448       441       468       471       466       470
       471       468       477       473       474       466       477       476
       477       474       471       479       466       474       468       461
       488       491       486       490       491       488       497       493
       494       486       497       496       497       494       491       499
       486       494       488       481       508       511       506       510
       511       508       517       513       514       506       517       516
       517       514       511       519       506       514       508       501
       528       531       526       530       531       528       537       533
       534       526       537       536       537       534       531       539
       526       534       528       521       548       551       546       550
       551       548       557       553       554       546       557       556
       557       554       551       559       546       554       548       541
       568       571       566       570       571       568       577       573
       574       566       577       576       577       574       571       579
       566       574       568       561       588       591       586       590
       591       588       597       593       594       586       597       596
       597       594       591       599       586       594       588       581
       608       611       606       610       611       608       617       613
       614       606       617       616       617       614       611       619
       606       614       608       601       628       631       626       630
       631       628       637       633       634       626       637       636
       637       634       631       639       626       634       628       621
       648       651       646       650       651       648       657       653
       654       646       657       656       657       654       651       659
       646       654       648       641       668       671       666       670
       671       668       677       673       674       666       677       676
       677       674       671       679       666       674       668       661
       688       691       686       690       691       688       697       693
       694       686       697       696       697       694       691       699
       686       694       688       681       708       711       706       710
       711       708       717       713       714       706       717       716
       717       714       711       719       706       714       708       701
       728       731       726       730       731       728       737       733
       734       726       737       736       737       734       731       739
       726       734       728       721       748       751       746       750
       751       748       757       753       754       746       757       756
       757       754       751       759       746       754       748       741
       768       771       766       770       771       768       777       773
       774       766       777       776       777       774       771       779
       766       774       768       761       788       791       786       790
       791       788       797       793       794       786       797       796
       797       794       791       799       786       794       788       781
       808       811       806       810       811       808       817       813
       814       806       817       816       817       814       811       819
       806       814       808       801       828       831       826       830
       831       828       837       833       834       826       837       836
       837       834       831       839       826       834       828       821
       848       851       846       850       851       848       857       853
       854       846       857       856       857       854       851       859
       846       854       848       841       868       871       866       870
       871       868       877       873       874       866       877       876
       877       874       871       879       866       874       868       861
       888       891       886       890       891       888       897       893
       894       886       897       896       897       894       891       899
       886       894       888       881       908       911       906       910
       911       908       917       913       914       906       917       916
       917       914       911       919       906       914       908       901
       928       931       926       930       931       928       937       933
       934       926       937       936       937       934       931       939
       926       934       928       921       948       951       946       950
       951       948       957       953       954       946       957       956
       957       954       951       959       946       954       948       941
       968       971       966       970       971       968       977       973
       974       966       977       976       977       974       971       979
       966       974       968       961       988       991       986       990
       991       988       997       993       994       986       997       996
       997       994       991       999       986       994       988       981
      1008      1011      1006      1010      1011      1008      1017      1013
      1014      1006      1017      1016      1017      1014      1011      1019
      1006      1014      1008      1001      1028      1031      1026      1030
      1031      1028      1037      1033      1034      1026      1037      1036
      1037      1034      1031      1039      1026      1034      1028      1021
      1048      1051      1046      1050      1051      1048      1057      1053
      1054      1046      1057      1056      1057      1054      1051      1059
      1046      1054      1048      1041      1068      1071      1066      1070
      1071      1068      1077      1073      1074      1066      1077      1076
      1077      1074      1071      1079      1066      1074      1068      1061
      1088      1091      1086      1090      1091      1088      1097      1093
      1094      1086      1097      1096      1097      1094      1091      1099
      1086      1094      1088      1081      1108      1111      1106      1110
      1111      1108      1117      1113      1114      1106      1117      1116
      1117      1114      1111      1119      1106      1114      1108      1101
      1128      1131      1126      1130      1131      1128      1137      1133
      1134      1126      1137      1136      1137      1134      1131      1139
      1126      1134      1128      1121      1148      1151      1146      1150
      1151      1148      1157      1153      1154      1146      1157      1156
      1157      1154      1151      1159      1146      1154      1148      1141
      1168      1171      1166      1170      1171      1168      1177      1173
      1174      1166      1177      1176      1177      1174      1171      1179
      1166      1174      1168      1161      1188      1191      1186      1190
      1191      1188      1197      1193      1194      1186      1197      1196
      1197      1194      1191      1199      1186      1194      1188      1181
      1208      1211      1206      1210      1211      1208      1217      1213
      1214      1206      1217      1216      1217      1214      1211      1219
      1206      1214      1208      1201      1228      1231      1226      1230
      1231      1228      1237      1233      1234      1226      1237      1236
      1237      1234      1231      1239      1226      1234      1228      1221
      1248      1251      1246      1250      1251      1248      1257      1253
      1254      1246      1257      1256      1257      1254      1251      1259
      1246      1254      1248      1241      1268      1271      1266      1270
      1271      1268      1277      1273      1274      1266      1277      1276
      1277      1274      1271      1279      1266      1274      1268      1261
      1288      1291      1286      1290      1291      1288      1297      1293
      1294      1286      1297      1296      1297      1294      1291      1299
      1286      1294      1288      1281      1308      1311      1306      1310
      1311      1308      1317      1313      1314      1306      1317      1316
      1317      1314      1311      1319      1306      1314      1308      1301
      1328      1331      1326      1330      1331      1328      1337      1333
      1334      1326      1337      1336      1337      1334      1331      1339
      1326      1334      1328      1321      1348      1351      1346      1350
      1351      1348      1357      1353      1354      1346      1357      1356
      1357      1354      1351      1359      1346      1354      1348      1341
      1368      1371      1366      1370      1371      1368      1377      1373
      1374      1366      1377      1376      1377      1374      1371      1379
      1366      1374      1368      1361      1388      1391      1386      1390
      1391      1388      1397      1393      1394      1386      1397      1396
      1397      1394      1391      1399      1386      1394      1388      1381
      1408      1411      1406      1410      1411      1408      1417      1413
      1414      1406      1417      1416      1417      1414      1411      1419
      1406      1414      1408      1401      1428      1431      1426      1430
      1431      1428      1437      1433      1434      1426      1437      1436
      1437      1434      1431      1439      1426      1434      1428      1421
      1448      1451      1446      1450      1451      1448      1457      1453
      1454      1446      1457      1456      1457      1454      1451      1459
      1446      1454      1448      1441      1468      1471      1466      1470
      1471      1468      1477      1473      1474      1466      1477      1476
      1477      1474      1471      1479      1466      1474      1468      1461
      1488      1491      1486      1490      1491      1488      1497      1493
      1494      1486      1497      1496      1497      1494      1491      1499
      1486      1494      1488      1481      1508      1511      1506      1510
      1511      1508      1517      1513      1514      1506      1517      1516
      1517      1514      1511      1519      1506      1514      1508      1501
      1528      1531      1526      1530      1531      1528      1537      1533
      1534      1526      1537      1536      1537      1534      1531      1539
      1526      1534      1528      1521      1548      1551      1546      1550
      1551      1548      1557      1553      1554      1546      1557      1556
      1557      1554      1551      1559      1546      1554      1548      1541
      1568      1571      1566      1570      1571      1568      1577      1573
      1574      1566      1577      1576      1577      1574      1571      1579
      1566      1574      1568      1561      1588      1591      1586      1590
      1591      1588      1597      1593      1594      1586      1597      1596
      1597      1594      1591      1599      1586      1594      1588      1581
      1608      1611      1606      1610      1611      1608      1617      1613
      1614      1606      1617      1616      1617      1614      1611      1619
      1606      1614      1608      1601      1628      1631      1626      1630
      1631      1628      1637      1633      1634      1626      1637      1636
      1637      1634      1631      1639      1626      1634      1628      1621
      1648      1651      1646      1650      1651      1648      1657      1653
      1654      1646      1657      1656      1657      1654      1651      1659
      1646      1654      1648      1641      1668      1671      1666      1670
      1671      1668      1677      1673      1674      1666      1677      1676
      1677      1674      1671      1679      1666      1674      1668      1661
      1688      1691      1686      1690      1691      1688      1697      1693
      1694      1686      1697      1696      1697      1694      1691      1699
      1686      1694      1688      1681      1708      1711      1706      1710
      1711      1708      1717      1713      1714      1706      1717      1716
      1717      1714      1711      1719      1706      1714      1708      1701
      1728      1731      1726      1730      1731      1728      1737      1733
      1734      1726      1737      1736      1737      1734      1731      1739
      1726      1734      1728      1721      1748      1751      1746      1750
      1751      1748      1757      1753      1754      1746      1757      1756
      1757      1754      1751      1759      1746      1754      1748      1741
      1768      1771      1766      1770      1771      1768      1777      1773
      1774      1766      1777      1776      1777      1774      1771      1779
      1766      1774      1768      1761      1788      1791      1786      1790
      1791      1788      1797      1793      1794      1786      1797      1796
      1797      1794      1791      1799      1786      1794      1788      1781
      1808      1811      1806      1810      1811      1808      1817      1813
      1814      1806      1817      1816      1817      1814      1811      1819
      1806      1814      1808      1801      1828      1831      1826      1830
      1831      1828      1837      1833      1834      1826      1837      1836
      1837      1834      1831      1839      1826      1834      1828      1821
      1848      1851      1846      1850      1851      1848      1857      1853
      1854      1846      1857      1856      1857      1854      1851      1859
      1846      1854      1848      1841      1868      1871      1866      1870
      1871      1868      1877      1873      1874      1866      1877      1876
      1877      1874      1871      1879      1866      1874      1868      1861
      1888      1891      1886      1890      1891      1888      1897      1893
      1894      1886      1897      1896      1897      1894      1891      1899
      1886      1894      1888      1881      1908      1911      1906      1910
      1911      1908      1917      1913      1914      1906      1917      1916
      1917      1914      1911      1919      1906      1914      1908      1901
      1928      1931      1926      1930      1931      1928      1937      1933
      1934      1926      1937      1936      1937      1934      1931      1939
      1926      1934      1928      1921      1948      1951      1946      1950
      1951      1948      1957      1953      1954      1946      1957      1956
      1957      1954      1951      1959      1946      1954      1948      1941
      1968      1971      1966      1970      1971      1968      1977      1973
      1974      1966      1977      1976      1977      1974      1971      1979
      1966      1974      1968      1961      1988      1991      1986      1990
      1991      1988      1997      1993      1994      1986      1997      1996
      1997      1994      1991      1999      1986      1994      1988      1981
      2008      2011      2006      2010      2011      2008      2017      2013
      2014      2006      2017      2016      2017      2014      2011      2019
      2006      2014      2008      2001      2028      2031      2026      2030
      2031      2028      2037      2033      2034      2026      2037      2036
      2037      2034      2031      2039      2026      2034      2028      2021
      2048      2051      2046      2050      2051      2048      2057      2053
      2054      2046      2057      2056      2057      2054      2051      2059
      2046      2054      2048      2041      2068      2071      2066      2070
      2071      2068      2077      2073      2074      2066      2077      2076
      2077      2074      2071      2079      2066      2074      2068      2061
      2088      2091      2086      2090      2091      2088      2097      2093
      2094      2086      2097      2096      2097      2094      2091      2099
      2086      2094      2088      2081      2108      2111      2106      2110
      2111      2108      2117      2113      2114      2106      2117      2116
      2117      2114      2111      2119      2106      2114      2108      2101
      2128      2131      2126      2130      2131      2128      2137      2133
      2134      2126      2137      2136      2137      2134      2131      2139
      2126      2134      2128      2121      2148      2151      2146      2150
      2151      2148      2157      2153      2154      2146      2157      2156
      2157      2154      2151      2159      2146      2154      2148      2141
      2168      2171      2166      2170      2171      2168      2177      2173
      2174      2166      2177      2176      2177      2174      2171      2179
      2166      2174      2168      2161      2188      2191      2186      2190
      2191      2188      2197      2193      2194      2186      2197      2196
      2197      2194      2191      2199      2186      2194      2188      2181
      2208      2211      2206      2210      2211      2208      2217      2213
      2214      2206      2217      2216      2217      2214      2211      2219
      2206      2214      2208      2201      2228      2231      2226      2230
      2231      2228      2237      2233      2234      2226      2237      2236
      2237      2234      2231      2239      2226      2234      2228      2221
      2248      2251      2246      2250      2251      2248      2257      2253
      2254      2246      2257      2256      2257      2254      2251      2259
      2246      2254      2248      2241      2268      2271      2266      2270
      2271      2268      2277      2273      2274      2266      2277      2276
      2277      2274      2271      2279      2266      2274      2268      2261
      2288      2291      2286      2290      2291      2288      2297      2293
      2294      2286      2297      2296      2297      2294      2291      2299
      2286      2294      2288      2281      2308      2311      2306      2310
      2311      2308      2317      2313      2314      2306      2317      2316
      2317      2314      2311      2319      2306      2314      2308      2301
      2328      2331      2326      2330      2331      2328      2337      2333
      2334      2326      2337      2336      2337      2334      2331      2339
      2326      2334      2328      2321      2348      2351      2346      2350
      2351      2348      2357      2353      2354      2346      2357      2356
      2357      2354      2351      2359      2346      2354      2348      2341
      2368      2371      2366      2370      2371      2368      2377      2373
      2374      2366      2377      2376      2377      2374      2371      2379
      2366      2374      2368      2361      2388      2391      2386      2390
      2391      2388      2397      2393      2394      2386      2397      2396
      2397      2394      2391      2399      2386      2394      2388      2381
      2408      2411      2406      2410      2411      2408      2417      2413
      2414      2406      2417      2416      2417      2414      2411      2419
      2406      2414      2408      2401      2428      2431      2426      2430
      2431      2428      2437      2433      2434      2426      2437      2436
      2437      2434      2431      2439      2426      2434      2428      2421
      2448      2451      2446      2450      2451      2448      2457      2453
      2454      2446      2457      2456      2457      2454      2451      2459
      2446      2454      2448      2441      2468      2471      2466      2470
      2471      2468      2477      2473      2474      2466      2477      2476
      2477      2474      2471      2479      2466      2474      2468      2461
      2488      2491      2486      2490      2491      2488      2497      2493
      2494      2486      2497      2496      2497      2494      2491      2499
      2486      2494      2488      2481      2508      2511      2506      2510
      2511      2508      2517      2513      2514      2506      2517      2516
      2517      2514      2511      2519      2506      2514      2508      2501
      2528      2531      2526      2530      2531      2528      2537      2533
      2534      2526      2537      2536      2537      2534      2531      2539
      2526      2534      2528      2521      2548      2551      2546      2550
      2551      2548      2557      2553      2554      2546      2557      2556
      2557      2554      2551      2559      2546      2554      2548      2541
      2568      2571      2566      2570      2571      2568      2577      2573
      2574      2566      2577      2576      2577      2574      2571      2579
      2566      2574      2568      2561      2588      2591      2586      2590
      2591      2588      2597      2593      2594      2586      2597      2596
      2597      2594      2591      2599      2586      2594      2588      2581
      2608      2611      2606      2610      2611      2608      2617      2613
      2614      2606      2617      2616      2617      2614      2611      2619
      2606      2614      2608      2601      2628      2631      2626      2630
      2631      2628      2637      2633      2634      2626      2637      2636
      2637      2634      2631      2639      2626      2634      2628      2621
      2648      2651      2646      2650      2651      2648      2657      2653
      2654      2646      2657      2656      2657      2654      2651      2659
      2646      2654      2648      2641      2668      2671      2666      2670
      2671      2668      2677      2673      2674      2666      2677      2676
      2677      2674      2671      2679      2666      2674      2668      2661
      2688      2691      2686      2690      2691      2688      2697      2693
      2694      2686      2697      2696      2697      2694      2691      2699
      2686      2694      2688      2681      2708      2711      2706      2710
      2711      2708      2717      2713      2714      2706      2717      2716
      2717      2714      2711      2719      2706      2714      2708      2701
      2728      2731      2726      2730      2731      2728      2737      2733
      2734      2726      2737      2736      2737      2734      2731      2739
      2726      2734      2728      2721      2748      2751      2746      2750
      2751      2748      2757      2753      2754      2746      2757      2756
      2757      2754      2751      2759      2746      2754      2748      2741
      2768      2771      2766      2770      2771      2768      2777      2773
      2774      2766      2777      2776      2777      2774      2771      2779
      2766      2774      2768      2761      2788      2791      2786      2790
      2791      2788      2797      2793      2794      2786      2797      2796
      2797      2794      2791      2799      2786      2794      2788      2781
      2808      2811      2806      2810      2811      2808      2817      2813
      2814      2806      2817      2816      2817      2814      2811      2819
      2806      2814      2808      2801      2828      2831      2826      2830
      2831      2828      2837      2833      2834      2826      2837      2836
      2837      2834      2831      2839      2826      2834      2828      2821
      2848      2851      2846      2850      2851      2848      2857      2853
      2854      2846      2857      2856      2857      2854      2851      2859
      2846      2854      2848      2841      2868      2871      2866      2870
      2871      2868      2877      2873      2874      2866      2877      2876
      2877      2874      2871      2879      2866      2874      2868      2861
      2888      2891      2886      2890      2891      2888      2897      2893
      2894      2886      2897      2896      2897      2894      2891      2899
      2886      2894      2888      2881      2908      2911      2906      2910
      2911      2908      2917      2913      2914      2906      2917      2916
      2917      2914      2911      2919      2906      2914      2908      2901
      2928      2931      2926      2930      2931      2928      2937      2933
      2934      2926      2937      2936      2937      2934      2931      2939
      2926      2934      2928      2921      2948      2951      2946      2950
      2951      2948      2957      2953      2954      2946      2957      2956
      2957      2954      2951      2959      2946      2954      2948      2941
      2968      2971      2966      2970      2971      2968      2977      2973
      2974      2966      2977      2976      2977      2974      2971      2979
      2966      2974      2968      2961      2988      2991      2986      2990
      2991      2988      2997      2993      2994      2986      2997      2996
      2997      2994      2991      2999      2986      2994      2988      2981
      3008      3011      3006      3010      3011      3008      3017      3013
      3014      3006      3017      3016      3017      3014      3011      3019
      3006      3014      3008      3001      3028      3031      3026      3030
      3031      3028      3037      3033      3034      3026      3037      3036
      3037      3034      3031      3039      3026      3034      3028      3021
      3048      3051      3046      3050      3051      3048      3057      3053
      3054      3046      3057      3056      3057      3054      3051      3059
      3046      3054      3048      3041      3068      3071      3066      3070
      3071      3068      3077      3073      3074      3066      3077      3076
      3077      3074      3071      3079      3066      3074      3068      3061
      3088      3091      3086      3090      3091      3088      3097      3093
      3094      3086      3097      3096      3097      3094      3091      3099
      3086      3094      3088      3081      3108      3111      3106      3110
      3111      3108      3117      3113      3114      3106      3117      3116
      3117      3114      3111      3119      3106      3114      3108      3101
      3128      3131      3126      3130      3131      3128      3137      3133
      3134      3126      3137      3136      3137      3134      3131      3139
      3126      3134      3128      3121      3148      3151      3146      3150
      3151      3148      3157      3153      3154      3146      3157      3156
      3157      3154      3151      3159      3146      3154      3148      3141
      3168      3171      3166      3170      3171      3168      3177      3173
      3174      3166      3177      3176      3177      3174      3171      3179
      3166      3174      3168      3161      3188      3191      3186      3190
      3191      3188      3197      3193      3194      3186      3197      3196
      3197      3194      3191      3199      3186      3194      3188      3181
      3208      3211      3206      3210      3211      3208      3217      3213
      3214      3206      3217      3216      3217      3214      3211      3219
      3206      3214      3208      3201      3228      3231      3226      3230
      3231      3228      3237      3233      3234      3226      3237      3236
      3237      3234      3231      3239      3226      3234      3228      3221
      3248      3251      3246      3250      3251      3248      3257      3253
      3254      3246      3257      3256      3257      3254      3251      3259
      3246      3254      3248      3241      3268      3271      3266      3270
      3271      3268      3277      3273      3274      3266      3277      3276
      3277      3274      3271      3279      3266      3274      3268      3261
      3288      3291      3286      3290      3291      3288      3297      3293
      3294      3286      3297      3296      3297      3294      3291      3299
      3286      3294      3288      3281      3308      3311      3306      3310
      3311      3308      3317      3313      3314      3306      3317      3316
      3317      3314      3311      3319      3306      3314      3308      3301
      3328      3331      3326      3330      3331      3328      3337      3333
      3334      3326      3337      3336      3337      3334      3331      3339
      3326      3334      3328      3321      3348      3351      3346      3350
      3351      3348      3357      3353      3354      3346      3357      3356
      3357      3354      3351      3359      3346      3354      3348      3341
      3368      3371      3366      3370      3371      3368      3377      3373
      3374      3366      3377      3376      3377      3374      3371      3379
      3366      3374      3368      3361      3388      3391      3386      3390
      3391      3388      3397      3393      3394      3386      3397      3396
      3397      3394      3391      3399      3386      3394      3388      3381
      3408      3411      3406      3410      3411      3408      3417      3413
      3414      3406      3417      3416      3417      3414      3411      3419
      3406      3414      3408      3401      3428      3431      3426      3430
      3431      3428      3437      3433      3434      3426      3437      3436
      3437      3434      3431      3439      3426      3434      3428      3421
      3448      3451      3446      3450      3451      3448      3457      3453
      3454      3446      3457      3456      3457      3454      3451      3459
      3446      3454      3448      3441      3468      3471      3466      3470
      3471      3468      3477      3473      3474      3466      3477      3476
      3477      3474      3471      3479      3466      3474      3468      3461
      3488      3491      3486      3490      3491      3488      3497      3493
      3494      3486      3497      3496      3497      3494      3491      3499
      3486      3494      3488      3481      3508      3511      3506      3510
      3511      3508      3517      3513      3514      3506      3517      3516
      3517      3514      3511      3519      3506      3514      3508      3501
      3528      3531      3526      3530      3531      3528      3537      3533
      3534      3526      3537      3536      3537      3534      3531      3539
      3526      3534      3528      3521      3548      3551      3546      3550
      3551      3548      3557      3553      3554      3546      3557      3556
      3557      3554      3551      3559      3546      3554      3548      3541
      3568      3571      3566      3570      3571      3568      3577      3573
      3574      3566      3577      3576      3577      3574      3571      3579
      3566      3574      3568      3561      3588      3591      3586      3590
      3591      3588      3597      3593      3594      3586      3597      3596
      3597      3594      3591      3599      3586      3594      3588      3581
      3608      3611      3606      3610      3611      3608      3617      3613
      3614      3606      3617      3616      3617      3614      3611      3619
      3606      3614      3608      3601      3628      3631      3626      3630
      3631      3628      3637      3633      3634      3626      3637      3636
      3637      3634      3631      3639      3626      3634      3628      3621
      3648      3651      3646      3650      3651      3648      3657      3653
      3654      3646      3657      3656      3657      3654      3651      3659
      3646      3654      3648      3641      3668      3671      3666      3670
      3671      3668      3677      3673      3674      3666      3677      3676
      3677      3674      3671      3679      3666      3674      3668      3661
      3688      3691      3686      3690      3691      3688      3697      3693
      3694      3686      3697      3696      3697      3694      3691      3699
      3686      3694      3688      3681      3708      3711      3706      3710
      3711      3708      3717      3713      3714      3706      3717      3716
      3717      3714      3711      3719      3706      3714      3708      3701
      3728      3731      3726      3730      3731      3728      3737      3733
      3734      3726      3737      3736      3737      3734      3731      3739
      3726      3734      3728      3721      3748      3751      3746      3750
      3751      3748      3757      3753      3754      3746      3757      3756
      3757      3754      3751      3759      3746      3754      3748      3741
      3768      3771      3766      3770      3771      3768      3777      3773
      3774      3766      3777      3776      3777      3774      3771      3779
      3766      3774      3768      3761      3788      3791      3786      3790
      3791      3788      3797      3793      3794      3786      3797      3796
      3797      3794      3791      3799      3786      3794      3788      3781
      3808      3811      3806      3810      3811      3808      3817      3813
      3814      3806      3817      3816      3817      3814      3811      3819
      3806      3814      3808      3801      3828      3831      3826      3830
      3831      3828      3837      3833      3834      3826      3837      3836
      3837      3834      3831      3839      3826      3834      3828      3821
      3848      3851      3846      3850      3851      3848      3857      3853
      3854      3846      3857      3856      3857      3854      3851      3859
      3846      3854      3848      3841      3868      3871      3866      3870
      3871      3868      3877      3873      3874      3866      3877      3876
      3877      3874      3871      3879      3866      3874      3868      3861
      3888      3891      3886      3890      3891      3888      3897      3893
      3894      3886      3897      3896      3897      3894      3891      3899
      3886      3894      3888      3881      3908      3911      3906      3910
      3911      3908      3917      3913      3914      3906      3917      3916
      3917      3914      3911      3919      3906      3914      3908      3901
      3928      3931      3926      3930      3931      3928      3937      3933
      3934      3926      3937      3936      3937      3934      3931      3939
      3926      3934      3928      3921      3948      3951      3946      3950
      3951      3948      3957      3953      3954      3946      3957      3956
      3957      3954      3951      3959      3946      3954      3948      3941
      3968      3971      3966      3970      3971      3968      3977      3973
      3974      3966      3977      3976      3977      3974      3971      3979
      3966      3974      3968      3961      3988      3991      3986      3990
      3991      3988      3997      3993      3994      3986      3997      3996
      3997      3994      3991      3999      3986      3994      3988      3981
      4008      4011      4006      4010      4011      4008      4017      4013
      4014      4006      4017      4016      4017      4014      4011      4019
      4006      4014      4008      4001      4028      4031      4026      4030
      4031      4028      4037      4033      4034      4026      4037      4036
      4037      4034      4031      4039      4026      4034      4028      4021
      4048      4051      4046      4050      4051      4048      4057      4053
      4054      4046      4057      4056      4057      4054      4051      4059
      4046      4054      4048      4041      4068      4071      4066      4070
      4071      4068      4077      4073      4074      4066      4077      4076
      4077      4074      4071      4079      4066      4074      4068      4061
      4088      4091      4086      4090      4091      4088      4097      4093
      4094      4086      4097      4096      4097      4094      4091      4099
      4086      4094      4088      4081      4108      4111      4106      4110
      4111      4108      4117      4113      4114      4106      4117      4116
      4117      4114      4111      4119      4106      4114      4108      4101
      4128      4131      4126      4130      4131      4128      4137      4133
      4134      4126      4137      4136      4137      4134      4131      4139
      4126      4134      4128      4121      4148      4151      4146      4150
      4151      4148      4157      4153      4154      4146      4157      4156
      4157      4154      4151      4159      4146      4154      4148      4141
      4168      4171      4166      4170      4171      4168      4177      4173
      4174      4166      4177      4176      4177      4174      4171      4179
      4166      4174      4168      4161      4188      4191      4186      4190
      4191      4188      4197      4193      4194      4186      4197      4196
      4197      4194      4191      4199      4186      4194      4188      4181
      4208      4211      4206      4210      4211      4208      4217      4213
      4214      4206      4217      4216      4217      4214      4211      4219
      4206      4214      4208      4201      4228      4231      4226      4230
      4231      4228      4237      4233      4234      4226      4237      4236
      4237      4234      4231      4239      4226      4234      4228      4221
      4248      4251      4246      4250      4251      4248      4257      4253
      4254      4246      4257      4256      4257      4254      4251      4259
      4246      4254      4248      4241      4268      4271      4266      4270
      4271      4268      4277      4273      4274      4266      4277      4276
      4277      4274      4271      4279      4266      4274      4268      4261
      4288      4291      4286      4290      4291      4288      4297      4293
      4294      4286      4297      4296      4297      4294      4291      4299
      4286      4294      4288      4281      4308      4311      4306      4310
      4311      4308      4317      4313      4314      4306      4317      4316
      4317      4314      4311      4319      4306      4314      4308      4301
      4328      4331      4326      4330      4331      4328      4337      4333
      4334      4326      4337      4336      4337      4334      4331      4339
      4326      4334      4328      4321      4348      4351      4346      4350
      4351      4348      4357      4353      4354      4346      4357      4356
      4357      4354      4351      4359      4346      4354      4348      4341
      4368      4371      4366      4370      4371      4368      4377      4373
      4374      4366      4377      4376      4377      4374      4371      4379
      4366      4374      4368      4361      4388      4391      4386      4390
      4391      4388      4397      4393      4394      4386      4397      4396
      4397      4394      4391      4399      4386      4394      4388      4381
      4408      4411      4406      4410      4411      4408      4417      4413
      4414      4406      4417      4416      4417      4414      4411      4419
      4406      4414      4408      4401      4428      4431      4426      4430
      4431      4428      4437      4433      4434      4426      4437      4436
      4437      4434      4431      4439      4426      4434      4428      4421
      4448      4451      4446      4450      4451      4448      4457      4453
      4454      4446      4457      4456      4457      4454      4451      4459
      4446      4454      4448      4441      4468      4471      4466      4470
      4471      4468      4477      4473      4474      4466      4477      4476
      4477      4474      4471      4479      4466      4474      4468      4461
      4488      4491      4486      4490      4491      4488      4497      4493
      4494      4486      4497      4496      4497      4494      4491      4499
      4486      4494      4488      4481      4508      4511      4506      4510
      4511      4508      4517      4513      4514      4506      4517      4516
      4517      4514      4511      4519      4506      4514      4508      4501
      4528      4531      4526      4530      4531      4528      4537      4533
      4534      4526      4537      4536      4537      4534      4531      4539
      4526      4534      4528      4521      4548      4551      4546      4550
      4551      4548      4557      4553      4554      4546      4557      4556
      4557      4554      4551      4559      4546      4554      4548      4541
      4568      4571      4566      4570      4571      4568      4577      4573
      4574      4566      4577      4576      4577      4574      4571      4579
      4566      4574      4568      4561      4588      4591      4586      4590
      4591      4588      4597      4593      4594      4586      4597      4596
      4597      4594      4591      4599      4586      4594      4588      4581
      4608      4611      4606      4610      4611      4608      4617      4613
      4614      4606      4617      4616      4617      4614      4611      4619
      4606      4614      4608      4601      4628      4631      4626      4630
      4631      4628      4637      4633      4634      4626      4637      4636
      4637      4634      4631      4639      4626      4634      4628      4621
      4648      4651      4646      4650      4651      4648      4657      4653
      4654      4646      4657      4656      4657      4654      4651      4659
      4646      4654      4648      4641      4668      4671      4666      4670
      4671      4668      4677      4673      4674      4666      4677      4676
      4677      4674      4671      4679      4666      4674      4668      4661
      4688      4691      4686      4690      4691      4688      4697      4693
      4694      4686      4697      4696      4697      4694      4691      4699
      4686      4694      4688      4681      4708      4711      4706      4710
      4711      4708      4717      4713      4714      4706      4717      4716
      4717      4714      4711      4719      4706      4714      4708      4701
      4728      4731      4726      4730      4731      4728      4737      4733
      4734      4726      4737      4736      4737      4734      4731      4739
      4726      4734      4728      4721      4748      4751      4746      4750
      4751      4748      4757      4753      4754      4746      4757      4756
      4757      4754      4751      4759      4746      4754      4748      4741
      4768      4771      4766      4770      4771      4768      4777      4773
      4774      4766      4777      4776      4777      4774      4771      4779
      4766      4774      4768      4761      4788      4791      4786      4790
      4791      4788      4797      4793      4794      4786      4797      4796
      4797      4794      4791      4799      4786      4794      4788      4781
      4808      4811      4806      4810      4811      4808      4817      4813
      4814      4806      4817      4816      4817      4814      4811      4819
      4806      4814      4808      4801      4828      4831      4826      4830
      4831      4828      4837      4833      4834      4826      4837      4836
      4837      4834      4831      4839      4826      4834      4828      4821
      4848      4851      4846      4850      4851      4848      4857      4853
      4854      4846      4857      4856      4857      4854      4851      4859
      4846      4854      4848      4841      4868      4871      4866      4870
      4871      4868      4877      4873      4874      4866      4877      4876
      4877      4874      4871      4879      4866      4874      4868      4861
      4888      4891      4886      4890      4891      4888      4897      4893
      4894      4886      4897      4896      4897      4894      4891      4899
      4886      4894      4888      4881      4908      4911      4906      4910
      4911      4908      4917      4913      4914      4906      4917      4916
      4917      4914      4911      4919      4906      4914      4908      4901
      4928      4931      4926      4930      4931      4928      4937      4933
      4934      4926      4937      4936      4937      4934      4931      4939
      4926      4934      4928      4921      4948      4951      4946      4950
      4951      4948      4957      4953      4954      4946      4957      4956
      4957      4954      4951      4959      4946      4954      4948      4941
      4968      4971      4966      4970      4971      4968      4977      4973
      4974      4966      4977      4976      4977      4974      4971      4979
      4966      4974      4968      4961      4988      4991      4986      4990
      4991      4988      4997      4993      4994      4986      4997      4996
      4997      4994      4991      4999      4986      4994      4988      4981
      5008      5011      5006      5010      5011      5008      5017      5013
      5014      5006      5017      5016      5017      5014      5011      5019
      5006      5014      5008      5001      5028      5031      5026      5030
      5031      5028      5037      5033      5034      5026      5037      5036
      5037      5034      5031      5039      5026      5034      5028      5021
      5048      5051      5046      5050      5051      5048      5057      5053
      5054      5046      5057      5056      5057      5054      5051      5059
      5046      5054      5048      5041      5068      5071      5066      5070
      5071      5068      5077      5073      5074      5066      5077      5076
      5077      5074      5071      5079      5066      5074      5068      5061
      5088      5091      5086      5090      5091      5088      5097      5093
      5094      5086      5097      5096      5097      5094      5091      5099
      5086      5094      5088      5081      5108      5111      5106      5110
      5111      5108      5117      5113      5114      5106      5117      5116
      5117      5114      5111      5119      5106      5114      5108      5101
      5128      5131      5126      5130      5131      5128      5137      5133
      5134      5126      5137      5136      5137      5134      5131      5139
      5126      5134      5128      5121      5148      5151      5146      5150
      5151      5148      5157      5153      5154      5146      5157      5156
      5157      5154      5151      5159      5146      5154      5148      5141
      5168      5171      5166      5170      5171      5168      5177      5173
      5174      5166      5177      5176      5177      5174      5171      5179
      5166      5174      5168      5161      5188      5191      5186      5190
      5191      5188      5197      5193      5194      5186      5197      5196
      5197      5194      5191      5199      5186      5194      5188      5181
      5208      5211      5206      5210      5211      5208      5217      5213
      5214      5206      5217      5216      5217      5214      5211      5219
      5206      5214      5208      5201      5228      5231      5226      5230
      5231      5228      5237      5233      5234      5226      5237      5236
      5237      5234      5231      5239      5226      5234      5228      5221
      5248      5251      5246      5250      5251      5248      5257      5253
      5254      5246      5257      5256      5257      5254      5251      5259
      5246      5254      5248      5241      5268      5271      5266      5270
      5271      5268      5277      5273      5274      5266      5277      5276
      5277      5274      5271      5279      5266      5274      5268      5261
      5288      5291      5286      5290      5291      5288      5297      5293
      5294      5286      5297      5296      5297      5294      5291      5299
      5286      5294      5288      5281      5308      5311      5306      5310
      5311      5308      5317      5313      5314      5306      5317      5316
      5317      5314      5311      5319      5306      5314      5308      5301
      5328      5331      5326      5330      5331      5328      5337      5333
      5334      5326      5337      5336      5337      5334      5331      5339
      5326      5334      5328      5321      5348      5351      5346      5350
      5351      5348      5357      5353      5354      5346      5357      5356
      5357      5354      5351      5359      5346      5354      5348      5341
      5368      5371      5366      5370      5371      5368      5377      5373
      5374      5366      5377      5376      5377      5374      5371      5379
      5366      5374      5368      5361      5388      5391      5386      5390
      5391      5388      5397      5393      5394      5386      5397      5396
      5397      5394      5391      5399      5386      5394      5388      5381
      5408      5411      5406      5410      5411      5408      5417      5413
      5414      5406      5417      5416      5417      5414      5411      5419
      5406      5414      5408      5401      5428      5431      5426      5430
      5431      5428      5437      5433      5434      5426      5437      5436
      5437      5434      5431      5439      5426      5434      5428      5421
      5448      5451      5446      5450      5451      5448      5457      5453
      5454      5446      5457      5456      5457      5454      5451      5459
      5446      5454      5448      5441      5468      5471      5466      5470
      5471      5468      5477      5473      5474      5466      5477      5476
      5477      5474      5471      5479      5466      5474      5468      5461
      5488      5491      5486      5490      5491      5488      5497      5493
      5494      5486      5497      5496      5497      5494      5491      5499
      5486      5494      5488      5481      5508      5511      5506      5510
      5511      5508      5517      5513      5514      5506      5517      5516
      5517      5514      5511      5519      5506      5514      5508      5501
      5528      5531      5526      5530      5531      5528      5537      5533
      5534      5526      5537      5536      5537      5534      5531      5539
      5526      5534      5528      5521      5548      5551      5546      5550
      5551      5548      5557      5553      5554      5546      5557      5556
      5557      5554      5551      5559      5546      5554      5548      5541
      5568      5571      5566      5570      5571      5568      5577      5573
      5574      5566      5577      5576      5577      5574      5571      5579
      5566      5574      5568      5561      5588      5591      5586      5590
      5591      5588      5597      5593      5594      5586      5597      5596
      5597      5594      5591      5599      5586      5594      5588      5581
      5608      5611      5606      5610      5611      5608      5617      5613
      5614      5606      5617      5616      5617      5614      5611      5619
      5606      5614      5608      5601      5628      5631      5626      5630
      5631      5628      5637      5633      5634      5626      5637      5636
      5637      5634      5631      5639      5626      5634      5628      5621
      5648      5651      5646      5650      5651      5648      5657      5653
      5654      5646      5657      5656      5657      5654      5651      5659
      5646      5654      5648      5641      5668      5671      5666      5670
      5671      5668      5677      5673      5674      5666      5677      5676
      5677      5674      5671      5679      5666      5674      5668      5661
      5688      5691      5686      5690      5691      5688      5697      5693
      5694      5686      5697      5696      5697      5694      5691      5699
      5686      5694      5688      5681      5708      5711      5706      5710
      5711      5708      5717      5713      5714      5706      5717      5716
      5717      5714      5711      5719      5706      5714      5708      5701
      5728      5731      5726      5730      5731      5728      5737      5733
      5734      5726      5737      5736      5737      5734      5731      5739
      5726      5734      5728      5721      5748      5751      5746      5750
      5751      5748      5757      5753      5754      5746      5757      5756
      5757      5754      5751      5759      5746      5754      5748      5741
      5768      5771      5766      5770      5771      5768      5777      5773
      5774      5766      5777      5776      5777      5774      5771      5779
      5766      5774      5768      5761      5788      5791      5786      5790
      5791      5788      5797      5793      5794      5786      5797      5796
      5797      5794      5791      5799      5786      5794      5788      5781
      5808      5803      5810      5801      5824      5819      5826      5817
      5840      5835      5842      5833      5856      5851      5858      5849
      5872      5867      5874      5865      5888      5883      5890      5881
      5904      5899      5906      5897      5920      5915      5922      5913
      5936      5931      5938      5929      5952      5947      5954      5945
      5968      5963      5970      5961      5984      5979      5986      5977
      6000      5995      6002      5993      6016      6011      6018      6009
      6032      6027      6034      6025      6048      6043      6050      6041
      6064      6059      6066      6057      6080      6075      6082      6073
      6096      6091      6098      6089      6112      6107      6114      6105
      6128      6123      6130      6121      6144      6139      6146      6137
      6160      6155      6162      6153      6176      6171      6178      6169
      6192      6187      6194      6185      6208      6203      6210      6201
      6224      6219      6226      6217      6240      6235      6242      6233
      6256      6251      6258      6249      6272      6267      6274      6265
      6288      6283      6290      6281      6304      6299      6306      6297
      6320      6315      6322      6313      6336      6331      6338      6329
      6352      6347      6354      6345      6368      6363      6370      6361
      6384      6379      6386      6377      6400      6395      6402      6393
      6416      6411      6418      6409      6432      6427      6434      6425
      6448      6443      6450      6441      6464      6459      6466      6457
      6480      6475      6482      6473      6496      6491      6498      6489
      6512      6507      6514      6505      6528      6523      6530      6521
      6544      6539      6546      6537      6560      6555      6562      6553
      6576      6571      6578      6569      6592      6587      6594      6585
      6608      6603      6610      6601      6624      6619      6626      6617
      6640      6635      6642      6633      6656      6651      6658      6649
      6672      6667      6674      6665      6688      6683      6690      6681
      6704      6699      6706      6697      6720      6715      6722      6713
      6736      6731      6738      6729      6752      6747      6754      6745
      6768      6763      6770      6761      6784      6779      6786      6777
      6800      6795      6802      6793      6816      6811      6818      6809
      6832      6827      6834      6825      6848      6843      6850      6841
      6864      6859      6866      6857      6880      6875      6882      6873
      6896      6891      6898      6889      6912      6907      6914      6905
      6928      6923      6930      6921      6944      6939      6946      6937
      6960      6955      6962      6953      6976      6971      6978      6969
      6992      6987      6994      6985      7008      7003      7010      7001
      7024      7019      7026      7017      7040      7035      7042      7033
      7056      7051      7058      7049      7072      7067      7074      7065
      7088      7083      7090      7081      7104      7099      7106      7097
      7120      7115      7122      7113      7136      7131      7138      7129
      7152      7147      7154      7145      7168      7163      7170      7161
      7184      7179      7186      7177      7200      7195      7202      7193
      7216      7211      7218      7209      7232      7227      7234      7225
      7248      7251      7246      7250      7251      7248      7257      7253
      7254      7246      7257      7256      7257      7254      7251      7259
      7246      7254      7248      7241      7268      7271      7266      7270
      7271      7268      7277      7273      7274      7266      7277      7276
      7277      7274      7271      7279      7266      7274      7268      7261
      7288      7291      7286      7290      7291      7288      7297      7293
      7294      7286      7297      7296      7297      7294      7291      7299
      7286      7294      7288      7281      7308      7311      7306      7310
      7311      7308      7317      7313      7314      7306      7317      7316
      7317      7314      7311      7319      7306      7314      7308      7301
      7328      7331      7326      7330      7331      7328      7337      7333
      7334      7326      7337      7336      7337      7334      7331      7339
      7326      7334      7328      7321      7348      7351      7346      7350
      7351      7348      7357      7353      7354      7346      7357      7356
      7357      7354      7351      7359      7346      7354      7348      7341
      7368      7371      7366      7370      7371      7368      7377      7373
      7374      7366      7377      7376      7377      7374      7371      7379
      7366      7374      7368      7361      7388      7391      7386      7390
      7391      7388      7397      7393      7394      7386      7397      7396
      7397      7394      7391      7399      7386      7394      7388      7381
      7408      7411      7406      7410      7411      7408      7417      7413
      7414      7406      7417      7416      7417      7414      7411      7419
      7406      7414      7408      7401      7428      7431      7426      7430
      7431      7428      7437      7433      7434      7426      7437      7436
      7437      7434      7431      7439      7426      7434      7428      7421
      7448      7451      7446      7450      7451      7448      7457      7453
      7454      7446      7457      7456      7457      7454      7451      7459
      7446      7454      7448      7441      7468      7471      7466      7470
      7471      7468      7477      7473      7474      7466      7477      7476
      7477      7474      7471      7479      7466      7474      7468      7461
      7488      7491      7486      7490      7491      7488      7497      7493
      7494      7486      7497      7496      7497      7494      7491      7499
      7486      7494      7488      7481      7508      7511      7506      7510
      7511      7508      7517      7513      7514      7506      7517      7516
      7517      7514      7511      7519      7506      7514      7508      7501
      7528      7531      7526      7530      7531      7528      7537      7533
      7534      7526      7537      7536      7537      7534      7531      7539
      7526      7534      7528      7521      7548      7551      7546      7550
      7551      7548      7557      7553      7554      7546      7557      7556
      7557      7554      7551      7559      7546      7554      7548      7541
      7568      7571      7566      7570      7571      7568      7577      7573
      7574      7566      7577      7576      7577      7574      7571      7579
      7566      7574      7568      7561      7588      7591      7586      7590
      7591      7588      7597      7593      7594      7586      7597      7596
      7597      7594      7591      7599      7586      7594      7588      7581
      7608      7611      7606      7610      7611      7608      7617      7613
      7614      7606      7617      7616      7617      7614      7611      7619
      7606      7614      7608      7601      7628      7631      7626      7630
      7631      7628      7637      7633      7634      7626      7637      7636
      7637      7634      7631      7639      7626      7634      7628      7621
      7648      7651      7646      7650      7651      7648      7657      7653
      7654      7646      7657      7656      7657      7654      7651      7659
      7646      7654      7648      7641      7668      7671      7666      7670
      7671      7668      7677      7673      7674      7666      7677      7676
      7677      7674      7671      7679      7666      7674      7668      7661
      7688      7691      7686      7690      7691      7688      7697      7693
      7694      7686      7697      7696      7697      7694      7691      7699
      7686      7694      7688      7681      7708      7711      7706      7710
      7711      7708      7717      7713      7714      7706      7717      7716
      7717      7714      7711      7719      7706      7714      7708      7701
      7728      7731      7726      7730      7731      7728      7737      7733
      7734      7726      7737      7736      7737      7734      7731      7739
      7726      7734      7728      7721      7748      7751      7746      7750
      7751      7748      7757      7753      7754      7746      7757      7756
      7757      7754      7751      7759      7746      7754      7748      7741
      7768      7771      7766      7770      7771      7768      7777      7773
      7774      7766      7777      7776      7777      7774      7771      7779
      7766      7774      7768      7761      7788      7791      7786      7790
      7791      7788      7797      7793      7794      7786      7797      7796
      7797      7794      7791      7799      7786      7794      7788      7781
      7808      7811      7806      7810      7811      7808      7817      7813
      7814      7806      7817      7816      7817      7814      7811      7819
      7806      7814      7808      7801      7828      7831      7826      7830
      7831      7828      7837      7833      7834      7826      7837      7836
      7837      7834      7831      7839      7826      7834      7828      7821
      7848      7851      7846      7850      7851      7848      7857      7853
      7854      7846      7857      7856      7857      7854      7851      7859
      7846      7854      7848      7841      7868      7871      7866      7870
      7871      7868      7877      7873      7874      7866      7877      7876
      7877      7874      7871      7879      7866      7874      7868      7861
      7888      7891      7886      7890      7891      7888      7897      7893
      7894      7886      7897      7896      7897      7894      7891      7899
      7886      7894      7888      7881      7908      7911      7906      7910
      7911      7908      7917      7913      7914      7906      7917      7916
      7917      7914      7911      7919      7906      7914      7908      7901
      7928      7931      7926      7930      7931      7928      7937      7933
      7934      7926      7937      7936      7937      7934      7931      7939
      7926      7934      7928      7921      7948      7951      7946      7950
      7951      7948      7957      7953      7954      7946      7957      7956
      7957      7954      7951      7959      7946      7954      7948      7941
      7968      7971      7966      7970      7971      7968      7977      7973
      7974      7966      7977      7976      7977      7974      7971      7979
      7966      7974      7968      7961      7988      7991      7986      7990
      7991      7988      7997      7993      7994      7986      7997      7996
      7997      7994      7991      7999      7986      7994      7988      7981
      8008      8011      8006      8010      8011      8008      8017      8013
      8014      8006      8017      8016      8017      8014      8011      8019
      8006      8014      8008      8001      8028      8031      8026      8030
      8031      8028      8037      8033      8034      8026      8037      8036
      8037      8034      8031      8039      8026      8034      8028      8021
      8048      8051      8046      8050      8051      8048      8057      8053
      8054      8046      8057      8056      8057      8054      8051      8059
      8046      8054      8048      8041      8068      8071      8066      8070
      8071      8068      8077      8073      8074      8066      8077      8076
      8077      8074      8071      8079      8066      8074      8068      8061
      8088      8091      8086      8090      8091      8088      8097      8093
      8094      8086      8097      8096      8097      8094      8091      8099
      8086      8094      8088      8081      8108      8111      8106      8110
      8111      8108      8117      8113      8114      8106      8117      8116
      8117      8114      8111      8119      8106      8114      8108      8101
      8128      8131      8126      8130      8131      8128      8137      8133
      8134      8126      8137      8136      8137      8134      8131      8139
      8126      8134      8128      8121      8148      8151      8146      8150
      8151      8148      8157      8153      8154      8146      8157      8156
      8157      8154      8151      8159      8146      8154      8148      8141
      8168      8171      8166      8170      8171      8168      8177      8173
      8174      8166      8177      8176      8177      8174      8171      8179
      8166      8174      8168      8161      8188      8191      8186      8190
      8191      8188      8197      8193      8194      8186      8197      8196
      8197      8194      8191      8199      8186      8194      8188      8181
      8208      8211      8206      8210      8211      8208      8217      8213
      8214      8206      8217      8216      8217      8214      8211      8219
      8206      8214      8208      8201      8228      8231      8226      8230
      8231      8228      8237      8233      8234      8226      8237      8236
      8237      8234      8231      8239      8226      8234      8228      8221
      8248      8251      8246      8250      8251      8248      8257      8253
      8254      8246      8257      8256      8257      8254      8251      8259
      8246      8254      8248      8241      8268      8271      8266      8270
      8271      8268      8277      8273      8274      8266      8277      8276
      8277      8274      8271      8279      8266      8274      8268      8261
      8288      8291      8286      8290      8291      8288      8297      8293
      8294      8286      8297      8296      8297      8294      8291      8299
      8286      8294      8288      8281      8308      8311      8306      8310
      8311      8308      8317      8313      8314      8306      8317      8316
      8317      8314      8311      8319      8306      8314      8308      8301
      8328      8331      8326      8330      8331      8328      8337      8333
      8334      8326      8337      8336      8337      8334      8331      8339
      8326      8334      8328      8321      8348      8351      8346      8350
      8351      8348      8357      8353      8354      8346      8357      8356
      8357      8354      8351      8359      8346      8354      8348      8341
      8368      8371      8366      8370      8371      8368      8377      8373
      8374      8366      8377      8376      8377      8374      8371      8379
      8366      8374      8368      8361      8388      8391      8386      8390
      8391      8388      8397      8393      8394      8386      8397      8396
      8397      8394      8391      8399      8386      8394      8388      8381
      8408      8411      8406      8410      8411      8408      8417      8413
      8414      8406      8417      8416      8417      8414      8411      8419
      8406      8414      8408      8401      8428      8431      8426      8430
      8431      8428      8437      8433      8434      8426      8437      8436
      8437      8434      8431      8439      8426      8434      8428      8421
      8448      8451      8446      8450      8451      8448      8457      8453
      8454      8446      8457      8456      8457      8454      8451      8459
      8446      8454      8448      8441      8468      8471      8466      8470
      8471      8468      8477      8473      8474      8466      8477      8476
      8477      8474      8471      8479      8466      8474      8468      8461
      8488      8491      8486      8490      8491      8488      8497      8493
      8494      8486      8497      8496      8497      8494      8491      8499
      8486      8494      8488      8481      8508      8511      8506      8510
      8511      8508      8517      8513      8514      8506      8517      8516
      8517      8514      8511      8519      8506      8514      8508      8501
      8528      8531      8526      8530      8531      8528      8537      8533
      8534      8526      8537      8536      8537      8534      8531      8539
      8526      8534      8528      8521      8548      8551      8546      8550
      8551      8548      8557      8553      8554      8546      8557      8556
      8557      8554      8551      8559      8546      8554      8548      8541
      8568      8571      8566      8570      8571      8568      8577      8573
      8574      8566      8577      8576      8577      8574      8571      8579
      8566      8574      8568      8561      8588      8591      8586      8590
      8591      8588      8597      8593      8594      8586      8597      8596
      8597      8594      8591      8599      8586      8594      8588      8581
      8608      8611      8606      8610      8611      8608      8617      8613
      8614      8606      8617      8616      8617      8614      8611      8619
      8606      8614      8608      8601      8628      8631      8626      8630
      8631      8628      8637      8633      8634      8626      8637      8636
      8637      8634      8631      8639      8626      8634      8628      8621
      8648      8651      8646      8650      8651      8648      8657      8653
      8654      8646      8657      8656      8657      8654      8651      8659
      8646      8654      8648      8641      8668      8671      8666      8670
      8671      8668      8677      8673      8674      8666      8677      8676
      8677      8674      8671      8679      8666      8674      8668      8661
      8688      8691      8686      8690      8691      8688      8697      8693
      8694      8686      8697      8696      8697      8694      8691      8699
      8686      8694      8688      8681      8708      8711      8706      8710
      8711      8708      8717      8713      8714      8706      8717      8716
      8717      8714      8711      8719      8706      8714      8708      8701
      8728      8731      8726      8730      8731      8728      8737      8733
      8734      8726      8737      8736      8737      8734      8731      8739
      8726      8734      8728      8721      8748      8751      8746      8750
      8751      8748      8757      8753      8754      8746      8757      8756
      8757      8754      8751      8759      8746      8754      8748      8741
      8768      8771      8766      8770      8771      8768      8777      8773
      8774      8766      8777      8776      8777      8774      8771      8779
      8766      8774      8768      8761      8788      8791      8786      8790
      8791      8788      8797      8793      8794      8786      8797      8796
      8797      8794      8791      8799      8786      8794      8788      8781
      8808      8811      8806      8810      8811      8808      8817      8813
      8814      8806      8817      8816      8817      8814      8811      8819
      8806      8814      8808      8801      8828      8831      8826      8830
      8831      8828      8837      8833      8834      8826      8837      8836
      8837      8834      8831      8839      8826      8834      8828      8821
      8848      8851      8846      8850      8851      8848      8857      8853
      8854      8846      8857      8856      8857      8854      8851      8859
      8846      8854      8848      8841      8868      8871      8866      8870
      8871      8868      8877      8873      8874      8866      8877      8876
      8877      8874      8871      8879      8866      8874      8868      8861
      8888      8891      8886      8890      8891      8888      8897      8893
      8894      8886      8897      8896      8897      8894      8891      8899
      8886      8894      8888      8881      8908      8911      8906      8910
      8911      8908      8917      8913      8914      8906      8917      8916
      8917      8914      8911      8919      8906      8914      8908      8901
      8928      8931      8926      8930      8931      8928      8937      8933
      8934      8926      8937      8936      8937      8934      8931      8939
      8926      8934      8928      8921      8948      8951      8946      8950
      8951      8948      8957      8953      8954      8946      8957      8956
      8957      8954      8951      8959      8946      8954      8948      8941
      8968      8971      8966      8970      8971      8968      8977      8973
      8974      8966      8977      8976      8977      8974      8971      8979
      8966      8974      8968      8961      8988      8991      8986      8990
      8991      8988      8997      8993      8994      8986      8997      8996
      8997      8994      8991      8999      8986      8994      8988      8981
      9008      9011      9006      9010      9011      9008      9017      9013
      9014      9006      9017      9016      9017      9014      9011      9019
      9006      9014      9008      9001      9028      9031      9026      9030
      9031      9028      9037      9033      9034      9026      9037      9036
      9037      9034      9031      9039      9026      9034      9028      9021
      9048      9051      9046      9050      9051      9048      9057      9053
      9054      9046      9057      9056      9057      9054      9051      9059
      9046      9054      9048      9041      9068      9071      9066      9070
      9071      9068      9077      9073      9074      9066      9077      9076
      9077      9074      9071      9079      9066      9074      9068      9061
      9088      9091      9086      9090      9091      9088      9097      9093
      9094      9086      9097      9096      9097      9094      9091      9099
      9086      9094      9088      9081      9108      9111      9106      9110
      9111      9108      9117      9113      9114      9106      9117      9116
      9117      9114      9111      9119      9106      9114      9108      9101
      9128      9131      9126      9130      9131      9128      9137      9133
      9134      9126      9137      9136      9137      9134      9131      9139
      9126      9134      9128      9121      9148      9151      9146      9150
      9151      9148      9157      9153      9154      9146      9157      9156
      9157      9154      9151      9159      9146      9154      9148      9141
      9168      9171      9166      9170      9171      9168      9177      9173
      9174      9166      9177      9176      9177      9174      9171      9179
      9166      9174      9168      9161      9188      9191      9186      9190
      9191      9188      9197      9193      9194      9186      9197      9196
      9197      9194      9191      9199      9186      9194      9188      9181
      9208      9211      9206      9210      9211      9208      9217      9213
      9214      9206      9217      9216      9217      9214      9211      9219
      9206      9214      9208      9201      9228      9231      9226      9230
      9231      9228      9237      9233      9234      9226      9237      9236
      9237      9234      9231      9239      9226      9234      9228      9221
      9248      9251      9246      9250      9251      9248      9257      9253
      9254      9246      9257      9256      9257      9254      9251      9259
      9246      9254      9248      9241      9268      9271      9266      9270
      9271      9268      9277      9273      9274      9266      9277      9276
      9277      9274      9271      9279      9266      9274      9268      9261
      9288      9291      9286      9290      9291      9288      9297      9293
      9294      9286      9297      9296      9297      9294      9291      9299
      9286      9294      9288      9281      9308      9311      9306      9310
      9311      9308      9317      9313      9314      9306      9317      9316
      9317      9314      9311      9319      9306      9314      9308      9301
      9328      9331      9326      9330      9331      9328      9337      9333
      9334      9326      9337      9336      9337      9334      9331      9339
      9326      9334      9328      9321      9348      9351      9346      9350
      9351      9348      9357      9353      9354      9346      9357      9356
      9357      9354      9351      9359      9346      9354      9348      9341
      9368      9371      9366      9370      9371      9368      9377      9373
      9374      9366      9377      9376      9377      9374      9371      9379
      9366      9374      9368      9361      9388      9391      9386      9390
      9391      9388      9397      9393      9394      9386      9397      9396
      9397      9394      9391      9399      9386      9394      9388      9381
      9408      9411      9406      9410      9411      9408      9417      9413
      9414      9406      9417      9416      9417      9414      9411      9419
      9406      9414      9408      9401      9428      9431      9426      9430
      9431      9428      9437      9433      9434      9426      9437      9436
      9437      9434      9431      9439      9426      9434      9428      9421
      9448      9451      9446      9450      9451      9448      9457      9453
      9454      9446      9457      9456      9457      9454      9451      9459
      9446      9454      9448      9441      9468      9471      9466      9470
      9471      9468      9477      9473      9474      9466      9477      9476
      9477      9474      9471      9479      9466      9474      9468      9461
      9488      9491      9486      9490      9491      9488      9497      9493
      9494      9486      9497      9496      9497      9494      9491      9499
      9486      9494      9488      9481      9508      9511      9506      9510
      9511      9508      9517      9513      9514      9506      9517      9516
      9517      9514      9511      9519      9506      9514      9508      9501
      9528      9531      9526      9530      9531      9528      9537      9533
      9534      9526      9537      9536      9537      9534      9531      9539
      9526      9534      9528      9521      9548      9551      9546      9550
      9551      9548      9557      9553      9554      9546      9557      9556
      9557      9554      9551      9559      9546      9554      9548      9541
      9568      9571      9566      9570      9571      9568      9577      9573
      9574      9566      9577      9576      9577      9574      9571      9579
      9566      9574      9568      9561      9588      9591      9586      9590
      9591      9588      9597      9593      9594      9586      9597      9596
      9597      9594      9591      9599      9586      9594      9588      9581
      9608      9611      9606      9610      9611      9608      9617      9613
      9614      9606      9617      9616      9617      9614      9611      9619
      9606      9614      9608      9601      9628      9631      9626      9630
      9631      9628      9637      9633      9634      9626      9637      9636
      9637      9634      9631      9639      9626      9634      9628      9621
      9648      9651      9646      9650      9651      9648      9657      9653
      9654      9646      9657      9656      9657      9654      9651      9659
      9646      9654      9648      9641      9668      9671      9666      9670
      9671      9668      9677      9673      9674      9666      9677      9676
      9677      9674      9671      9679      9666      9674      9668      9661
      9688      9691      9686      9690      9691      9688      9697      9693
      9694      9686      9697      9696      9697      9694      9691      9699
      9686      9694      9688      9681      9708      9711      9706      9710
      9711      9708      9717      9713      9714      9706      9717      9716
      9717      9714      9711      9719      9706      9714      9708      9701
      9728      9731      9726      9730      9731      9728      9737      9733
      9734      9726      9737      9736      9737      9734      9731      9739
      9726      9734      9728      9721      9748      9751      9746      9750
      9751      9748      9757      9753      9754      9746      9757      9756
      9757      9754      9751      9759      9746      9754      9748      9741
      9768      9771      9766      9770      9771      9768      9777      9773
      9774      9766      9777      9776      9777      9774      9771      9779
      9766      9774      9768      9761      9788      9791      9786      9790
      9791      9788      9797      9793      9794      9786      9797      9796
      9797      9794      9791      9799      9786      9794      9788      9781
      9808      9811      9806      9810      9811      9808      9817      9813
      9814      9806      9817      9816      9817      9814      9811      9819
      9806      9814      9808      9801      9828      9831      9826      9830
      9831      9828      9837      9833      9834      9826      9837      9836
      9837      9834      9831      9839      9826      9834      9828      9821
      9848      9851      9846      9850      9851      9848      9857      9853
      9854      9846      9857      9856      9857      9854      9851      9859
      9846      9854      9848      9841      9868      9871      9866      9870
      9871      9868      9877      9873      9874      9866      9877      9876
      9877      9874      9871      9879      9866      9874      9868      9861
      9888      9891      9886      9890      9891      9888      9897      9893
      9894      9886      9897      9896      9897      9894      9891      9899
      9886      9894      9888      9881      9908      9911      9906      9910
      9911      9908      9917      9913      9914      9906      9917      9916
      9917      9914      9911      9919      9906      9914      9908      9901
      9928      9931      9926      9930      9931      9928      9937      9933
      9934      9926      9937      9936      9937      9934      9931      9939
      9926      9934      9928      9921      9948      9951      9946      9950
      9951      9948      9957      9953      9954      9946      9957      9956
      9957      9954      9951      9959      9946      9954      9948      9941
      9968      9971      9966      9970      9971      9968      9977      9973
      9974      9966      9977      9976      9977      9974      9971      9979
      9966      9974      9968      9961      9988      9991      9986      9990
      9991      9988      9997      9993      9994      9986      9997      9996
      9997      9994      9991      9999      9986      9994      9988      9981
     10008     10011     10006     10010     10011     10008     10017     10013
     10014     10006     10017     10016     10017     10014     10011     10019
     10006     10014     10008     10001     10028     10031     10026     10030
     10031     10028     10037     10033     10034     10026     10037     10036
     10037     10034     10031     10039     10026     10034     10028     10021
     10048     10051     10046     10050     10051     10048     10057     10053
     10054     10046     10057     10056     10057     10054     10051     10059
     10046     10054     10048     10041     10068     10071     10066     10070
     10071     10068     10077     10073     10074     10066     10077     10076
     10077     10074     10071     10079     10066     10074     10068     10061
     10088     10091     10086     10090     10091     10088     10097     10093
     10094     10086     10097     10096     10097     10094     10091     10099
     10086     10094     10088     10081     10108     10111     10106     10110
     10111     10108     10117     10113     10114     10106     10117     10116
     10117     10114     10111     10119     10106     10114     10108     10101
     10128     10131     10126     10130     10131     10128     10137     10133
     10134     10126     10137     10136     10137     10134     10131     10139
     10126     10134     10128     10121     10148     10151     10146     10150
     10151     10148     10157     10153     10154     10146     10157     10156
     10157     10154     10151     10159     10146     10154     10148     10141
     10168     10171     10166     10170     10171     10168     10177     10173
     10174     10166     10177     10176     10177     10174     10171     10179
     10166     10174     10168     10161     10188     10191     10186     10190
     10191     10188     10197     10193     10194     10186     10197     10196
     10197     10194     10191     10199     10186     10194     10188     10181
     10208     10211     10206     10210     10211     10208     10217     10213
     10214     10206     10217     10216     10217     10214     10211     10219
     10206     10214     10208     10201     10228     10231     10226     10230
     10231     10228     10237     10233     10234     10226     10237     10236
     10237     10234     10231     10239     10226     10234     10228     10221
     10248     10251     10246     10250     10251     10248     10257     10253
     10254     10246     10257     10256     10257     10254     10251     10259
     10246     10254     10248     10241     10268     10271     10266     10270
     10271     10268     10277     10273     10274     10266     10277     10276
     10277     10274     10271     10279     10266     10274     10268     10261
     10288     10291     10286     10290     10291     10288     10297     10293
     10294     10286     10297     10296     10297     10294     10291     10299
     10286     10294     10288     10281     10308     10311     10306     10310
     10311     10308     10317     10313     10314     10306     10317     10316
     10317     10314     10311     10319     10306     10314     10308     10301
     10328     10331     10326     10330     10331     10328     10337     10333
     10334     10326     10337     10336     10337     10334     10331     10339
     10326     10334     10328     10321     10348     10351     10346     10350
     10351     10348     10357     10353     10354     10346     10357     10356
     10357     10354     10351     10359     10346     10354     10348     10341
     10368     10371     10366     10370     10371     10368     10377     10373
     10374     10366     10377     10376     10377     10374     10371     10379
     10366     10374     10368     10361     10388     10391     10386     10390
     10391     10388     10397     10393     10394     10386     10397     10396
     10397     10394     10391     10399     10386     10394     10388     10381
     10408     10411     10406     10410     10411     10408     10417     10413
     10414     10406     10417     10416     10417     10414     10411     10419
     10406     10414     10408     10401     10428     10431     10426     10430
     10431     10428     10437     10433     10434     10426     10437     10436
     10437     10434     10431     10439     10426     10434     10428     10421
     10448     10451     10446     10450     10451     10448     10457     10453
     10454     10446     10457     10456     10457     10454     10451     10459
     10446     10454     10448     10441     10468     10471     10466     10470
     10471     10468     10477     10473     10474     10466     10477     10476
     10477     10474     10471     10479     10466     10474     10468     10461
     10488     10491     10486     10490     10491     10488     10497     10493
     10494     10486     10497     10496     10497     10494     10491     10499
     10486     10494     10488     10481     10508     10511     10506     10510
     10511     10508     10517     10513     10514     10506     10517     10516
     10517     10514     10511     10519     10506     10514     10508     10501
     10528     10531     10526     10530     10531     10528     10537     10533
     10534     10526     10537     10536     10537     10534     10531     10539
     10526     10534     10528     10521     10548     10551     10546     10550
     10551     10548     10557     10553     10554     10546     10557     10556
     10557     10554     10551     10559     10546     10554     10548     10541
     10568     10571     10566     10570     10571     10568     10577     10573
     10574     10566     10577     10576     10577     10574     10571     10579
     10566     10574     10568     10561     10588     10591     10586     10590
     10591     10588     10597     10593     10594     10586     10597     10596
     10597     10594     10591     10599     10586     10594     10588     10581
     10608     10611     10606     10610     10611     10608     10617     10613
     10614     10606     10617     10616     10617     10614     10611     10619
     10606     10614     10608     10601     10628     10631     10626     10630
     10631     10628     10637     10633     10634     10626     10637     10636
     10637     10634     10631     10639     10626     10634     10628     10621
     10648     10651     10646     10650     10651     10648     10657     10653
     10654     10646     10657     10656     10657     10654     10651     10659
     10646     10654     10648     10641     10668     10671     10666     10670
     10671     10668     10677     10673     10674     10666     10677     10676
     10677     10674     10671     10679     10666     10674     10668     10661
     10688     10691     10686     10690     10691     10688     10697     10693
     10694     10686     10697     10696     10697     10694     10691     10699
     10686     10694     10688     10681     10708     10711     10706     10710
     10711     10708     10717     10713     10714     10706     10717     10716
     10717     10714     10711     10719     10706     10714     10708     10701
     10728     10731     10726     10730     10731     10728     10737     10733
     10734     10726     10737     10736     10737     10734     10731     10739
     10726     10734     10728     10721     10748     10751     10746     10750
     10751     10748     10757     10753     10754     10746     10757     10756
     10757     10754     10751     10759     10746     10754     10748     10741
     10768     10771     10766     10770     10771     10768     10777     10773
     10774     10766     10777     10776     10777     10774     10771     10779
     10766     10774     10768     10761     10788     10791     10786     10790
     10791     10788     10797     10793     10794     10786     10797     10796
     10797     10794     10791     10799     10786     10794     10788     10781
     10808     10811     10806     10810     10811     10808     10817     10813
     10814     10806     10817     10816     10817     10814     10811     10819
     10806     10814     10808     10801     10828     10831     10826     10830
     10831     10828     10837     10833     10834     10826     10837     10836
     10837     10834     10831     10839     10826     10834     10828     10821
     10848     10851     10846     10850     10851     10848     10857     10853
     10854     10846     10857     10856     10857     10854     10851     10859
     10846     10854     10848     10841     10868     10871     10866     10870
     10871     10868     10877     10873     10874     10866     10877     10876
     10877     10874     10871     10879     10866     10874     10868     10861
     10888     10891     10886     10890     10891     10888     10897     10893
     10894     10886     10897     10896     10897     10894     10891     10899
     10886     10894     10888     10881     10908     10911     10906     10910
     10911     10908     10917     10913     10914     10906     10917     10916
     10917     10914     10911     10919     10906     10914     10908     10901
     10928     10931     10926     10930     10931     10928     10937     10933
     10934     10926     10937     10936     10937     10934     10931     10939
     10926     10934     10928     10921     10948     10951     10946     10950
     10951     10948     10957     10953     10954     10946     10957     10956
     10957     10954     10951     10959     10946     10954     10948     10941
     10968     10971     10966     10970     10971     10968     10977     10973
     10974     10966     10977     10976     10977     10974     10971     10979
     10966     10974     10968     10961     10988     10991     10986     10990
     10991     10988     10997     10993     10994     10986     10997     10996
     10997     10994     10991     10999     10986     10994     10988     10981
     11008     11011     11006     11010     11011     11008     11017     11013
     11014     11006     11017     11016     11017     11014     11011     11019
     11006     11014     11008     11001     11028     11031     11026     11030
     11031     11028     11037     11033     11034     11026     11037     11036
     11037     11034     11031     11039     11026     11034     11028     11021
     11048     11051     11046     11050     11051     11048     11057     11053
     11054     11046     11057     11056     11057     11054     11051     11059
     11046     11054     11048     11041     11068     11071     11066     11070
     11071     11068     11077     11073     11074     11066     11077     11076
     11077     11074     11071     11079     11066     11074     11068     11061
     11088     11091     11086     11090     11091     11088     11097     11093
     11094     11086     11097     11096     11097     11094     11091     11099
     11086     11094     11088     11081     11108     11111     11106     11110
     11111     11108     11117     11113     11114     11106     11117     11116
     11117     11114     11111     11119     11106     11114     11108     11101
     11128     11131     11126     11130     11131     11128     11137     11133
     11134     11126     11137     11136     11137     11134     11131     11139
     11126     11134     11128     11121     11148     11151     11146     11150
     11151     11148     11157     11153     11154     11146     11157     11156
     11157     11154     11151     11159     11146     11154     11148     11141
     11168     11171     11166     11170     11171     11168     11177     11173
     11174     11166     11177     11176     11177     11174     11171     11179
     11166     11174     11168     11161     11188     11191     11186     11190
     11191     11188     11197     11193     11194     11186     11197     11196
     11197     11194     11191     11199     11186     11194     11188     11181
     11208     11211     11206     11210     11211     11208     11217     11213
     11214     11206     11217     11216     11217     11214     11211     11219
     11206     11214     11208     11201     11228     11231     11226     11230
     11231     11228     11237     11233     11234     11226     11237     11236
     11237     11234     11231     11239     11226     11234     11228     11221
     11248     11251     11246     11250     11251     11248     11257     11253
     11254     11246     11257     11256     11257     11254     11251     11259
     11246     11254     11248     11241     11268     11271     11266     11270
     11271     11268     11277     11273     11274     11266     11277     11276
     11277     11274     11271     11279     11266     11274     11268     11261
     11288     11291     11286     11290     11291     11288     11297     11293
     11294     11286     11297     11296     11297     11294     11291     11299
     11286     11294     11288     11281     11308     11311     11306     11310
     11311     11308     11317     11313     11314     11306     11317     11316
     11317     11314     11311     11319     11306     11314     11308     11301
     11328     11331     11326     11330     11331     11328     11337     11333
     11334     11326     11337     11336     11337     11334     11331     11339
     11326     11334     11328     11321     11348     11351     11346     11350
     11351     11348     11357     11353     11354     11346     11357     11356
     11357     11354     11351     11359     11346     11354     11348     11341
     11368     11371     11366     11370     11371     11368     11377     11373
     11374     11366     11377     11376     11377     11374     11371     11379
     11366     11374     11368     11361     11388     11391     11386     11390
     11391     11388     11397     11393     11394     11386     11397     11396
     11397     11394     11391     11399     11386     11394     11388     11381
     11408     11411     11406     11410     11411     11408     11417     11413
     11414     11406     11417     11416     11417     11414     11411     11419
     11406     11414     11408     11401     11428     11431     11426     11430
     11431     11428     11437     11433     11434     11426     11437     11436
     11437     11434     11431     11439     11426     11434     11428     11421
     11448     11443     11450     11441     11464     11459     11466     11457
     11480     11475     11482     11473     11496     11491     11498     11489
     11512     11507     11514     11505     11528     11523     11530     11521
     11544     11539     11546     11537     11560     11555     11562     11553
     11576     11571     11578     11569     11592     11587     11594     11585
     11608     11603     11610     11601     11624     11619     11626     11617
     11640     11635     11642     11633     11656     11651     11658     11649
     11672     11667     11674     11665     11688     11683     11690     11681
     11704     11699     11706     11697     11720     11715     11722     11713
     11736     11731     11738     11729     11752     11747     11754     11745
     11768     11763     11770     11761     11784     11779     11786     11777
     11800     11795     11802     11793     11816     11811     11818     11809
     11832     11827     11834     11825     11848     11843     11850     11841
     11864     11859     11866     11857     11880     11875     11882     11873
     11896     11891     11898     11889     11912     11907     11914     11905
     11928     11923     11930     11921     11944     11939     11946     11937
     11960     11955     11962     11953     11976     11971     11978     11969
     11992     11987     11994     11985     12008     12003     12010     12001
     12024     12019     12026     12017     12040     12035     12042     12033
     12056     12051     12058     12049     12072     12067     12074     12065
     12088     12083     12090     12081     12104     12099     12106     12097
     12120     12115     12122     12113     12136     12131     12138     12129
     12152     12147     12154     12145     12168     12163     12170     12161
     12184     12179     12186     12177     12200     12195     12202     12193
     12216     12211     12218     12209     12232     12227     12234     12225
     12248     12243     12250     12241     12264     12259     12266     12257
     12280     12275     12282     12273     12296     12291     12298     12289
     12312     12307     12314     12305     12328     12323     12330     12321
     12344     12339     12346     12337     12360     12355     12362     12353
     12376     12371     12378     12369     12392     12387     12394     12385
     12408     12403     12410     12401     12424     12419     12426     12417
     12440     12435     12442     12433     12456     12451     12458     12449
     12472     12467     12474     12465     12488     12483     12490     12481
     12504     12499     12506     12497     12520     12515     12522     12513
     12536     12531     12538     12529     12552     12547     12554     12545
     12568     12563     12570     12561     12584     12579     12586     12577
     12600     12595     12602     12593     12616     12611     12618     12609
     12632     12627     12634     12625     12648     12643     12650     12641
     12664     12659     12666     12657     12680     12675     12682     12673
     12696     12691     12698     12689     12712     12707     12714     12705
     12728     12723     12730     12721     12744     12739     12746     12737
     12760     12755     12762     12753     12776     12771     12778     12769
     12792     12787     12794     12785     12808     12803     12810     12801
     12824     12819     12826     12817     12840     12835     12842     12833
     12856     12851     12858     12849     12872     12867     12874     12865
     12888     12883     12890     12881     12904     12899     12906     12897
     12920     12915     12922     12913     12936     12931     12938     12929
     12952     12947     12954     12945     12968     12963     12970     12961
     12984     12979     12986     12977     13000     12995     13002     12993
     13016     13011     13018     13009     13032     13027     13034     13025
     13048     13043     13050     13041     13064     13059     13066     13057
     13080     13075     13082     13073     13096     13091     13098     13089
     13112     13107     13114     13105     13128     13123     13130     13121
     13144     13139     13146     13137     13160     13155     13162     13153
     13176     13171     13178     13169     13192     13187     13194     13185
     13208     13203     13210     13201     13224     13219     13226     13217
     13240     13235     13242     13233     13256     13251     13258     13249
     13272     13267     13274     13265     13288     13283     13290     13281
     13304     13299     13306     13297     13320     13315     13322     13313
     13336     13331     13338     13329     13352     13347     13354     13345
     13368     13363     13370     13361     13384     13379     13386     13377
     13400     13395     13402     13393     13416     13411     13418     13409
     13432     13427     13434     13425     13448     13443     13450     13441
     13464     13459     13466     13457     13480     13475     13482     13473
     13496     13491     13498     13489     13512     13507     13514     13505
     13528     13523     13530     13521     13544     13539     13546     13537
     13560     13555     13562     13553     13576     13571     13578     13569
     13592     13587     13594     13585     13608     13603     13610     13601
     13624     13619     13626     13617     13640     13635     13642     13633
     13656     13651     13658     13649     13672     13667     13674     13665
     13688     13683     13690     13681     13704     13699     13706     13697
     13720     13715     13722     13713     13736     13731     13738     13729
     13752     13747     13754     13745     13768     13763     13770     13761
     13784     13779     13786     13777     13800     13795     13802     13793
     13816     13811     13818     13809     13832     13827     13834     13825
     13848     13843     13850     13841     13864     13859     13866     13857
     13880     13875     13882     13873     13896     13891     13898     13889
     13912     13907     13914     13905     13928     13923     13930     13921
     13944     13939     13946     13937     13960     13955     13962     13953
     13976     13971     13978     13969     13992     13987     13994     13985
     14008     14003     14010     14001     14024     14019     14026     14017
     14040     14035     14042     14033     14056     14051     14058     14049
     14072     14067     14074     14065     14088     14083     14090     14081
     14104     14099     14106     14097     14120     14115     14122     14113
     14136     14131     14138     14129     14152     14147     14154     14145
     14168     14163     14170     14161     14184     14179     14186     14177
     14200     14195     14202     14193     14216     14211     14218     14209
     14232     14227     14234     14225     14248     14243     14250     14241
     14264     14259     14266     14257     14280     14275     14282     14273
     14296     14291     14298     14289     14312     14307     14314     14305
     14328     14323     14330     14321     14344     14339     14346     14337
     14360     14355     14362     14353     14376     14371     14378     14369
     14392     14387     14394     14385     14408     14403     14410     14401
     14424     14419     14426     14417     14440     14435     14442     14433
     14456     14451     14458     14449     14472     14467     14474     14465
     14488     14483     14490     14481     14504     14499     14506     14497
     14520     14515     14522     14513     14536     14531     14538     14529
     14552     14547     14554     14545     14568     14563     14570     14561
     14584     14579     14586     14577     14600     14595     14602     14593
     14616     14611     14618     14609     14632     14627     14634     14625
     14648     14643     14650     14641     14664     14659     14666     14657
     14680     14675     14682     14673     14696     14691     14698     14689
     14712     14707     14714     14705     14728     14723     14730     14721
     14744     14739     14746     14737     14760     14755     14762     14753
     14776     14771     14778     14769     14792     14787     14794     14785
     14810     14803     14812     14801     14827     14820     14829     14818
     14844     14837     14846     14835     14861     14854     14863     14852
     14878     14871     14880     14869     14895     14888     14897     14886
     14912     14905     14914     14903     14929     14922     14931     14920
     14946     14939     14948     14937     14963     14956     14965     14954
     14980     14973     14982     14971     14997     14990     14999     14988
     15014     15007     15016     15005     15031     15024     15033     15022
     15048     15041     15050     15039     15065     15058     15067     15056
     15082     15075     15084     15073     15099     15092     15101     15090
     15116     15109     15118     15107     15133     15126     15135     15124
     15150     15143     15152     15141     15167     15160     15169     15158
     15184     15177     15186     15175     15201     15194     15203     15192
     15218     15211     15220     15209     15235     15228     15237     15226
     15252     15245     15254     15243     15269     15262     15271     15260
     15286     15279     15288     15277     15303     15296     15305     15294
     15320     15313     15322     15311     15337     15330     15339     15328
     15354     15347     15356     15345     15371     15364     15373     15362
     15388     15381     15390     15379     15405     15398     15407     15396
     15422     15415     15424     15413     15439     15432     15441     15430
     15456     15449     15458     15447     15473     15466     15475     15464
     15490     15483     15492     15481     15507     15500     15509     15498
     15524     15517     15526     15515     15541     15534     15543     15532
     15558     15551     15560     15549     15575     15568     15577     15566
     15592     15585     15594     15583     15609     15602     15611     15600
     15626     15619     15628     15617     15643     15636     15645     15634
     15660     15653     15662     15651     15677     15670     15679     15668
     15694     15687     15696     15685     15711     15704     15713     15702
     15728     15721     15730     15719     15745     15738     15747     15736
     15762     15755     15764     15753     15779     15772     15781     15770
     15796     15789     15798     15787     15813     15806     15815     15804
     15830     15823     15832     15821     15847     15840     15849     15838
     15864     15857     15866     15855     15881     15874     15883     15872
     15898     15891     15900     15889     15915     15908     15917     15906
     15932     15925     15934     15923     15949     15942     15951     15940
     15966     15959     15968     15957     15983     15976     15985     15974
     16000     15993     16002     15991     16017     16010     16019     16008
     16034     16027     16036     16025     16051     16044     16053     16042
     16068     16061     16070     16059     16085     16078     16087     16076
     16102     16095     16104     16093     16119     16112     16121     16110
     16136     16129     16138     16127     16153     16146     16155     16144
     16170     16163     16172     16161     16187     16180     16189     16178
     16204     16197     16206     16195     16221     16214     16223     16212
     16238     16231     16240     16229     16255     16248     16257     16246
     16272     16265     16274     16263     16289     16282     16291     16280
     16306     16299     16308     16297     16323     16316     16325     16314
     16340     16333     16342     16331     16357     16350     16359     16348
     16374     16367     16376     16365     16391     16384     16393     16382
     16408     16401     16410     16399     16425     16418     16427     16416
     16442     16435     16444     16433     16459     16452     16461     16450
     16476     16469     16478     16467     16493     16486     16495     16484
     16510     16503     16512     16501     16527     16520     16529     16518
     16544     16537     16546     16535     16561     16554     16563     16552
     16578     16571     16580     16569     16595     16588     16597     16586
     16612     16605     16614     16603     16629     16622     16631     16620
     16646     16639     16648     16637     16663     16656     16665     16654
     16680     16673     16682     16671     16697     16690     16699     16688
     16714     16707     16716     16705     16731     16724     16733     16722
     16748     16741     16750     16739     16765     16758     16767     16756
     16782     16775     16784     16773     16799     16792     16801     16790
     16816     16809     16818     16807     16833     16826     16835     16824
     16850     16843     16852     16841     16867     16860     16869     16858
     16884     16877     16886     16875     16901     16894     16903     16892
     16918     16911     16920     16909     16935     16928     16937     16926
     16952     16945     16954     16943     16969     16962     16971     16960
     16986     16979     16988     16977     17003     16996     17005     16994
     17020     17013     17022     17011     17037     17030     17039     17028
     17054     17047     17056     17045     17071     17064     17073     17062
     17088     17081     17090     17079     17105     17098     17107     17096
     17122     17115     17124     17113     17139     17132     17141     17130
     17156     17149     17158     17147     17173     17166     17175     17164
     17190     17183     17192     17181     17207     17200     17209     17198
     17224     17217     17226     17215     17241     17234     17243     17232
     17258     17251     17260     17249     17275     17268     17277     17266
     17292     17285     17294     17283     17309     17302     17311     17300
     17326     17319     17328     17317     17343     17336     17345     17334
     17360     17353     17362     17351     17377     17370     17379     17368
     17394     17387     17396     17385     17411     17404     17413     17402
     17428     17421     17430     17419     17445     17438     17447     17436
     17462     17455     17464     17453     17479     17472     17481     17470
     17496     17489     17498     17487     17513     17506     17515     17504
     17530     17523     17532     17521     17547     17540     17549     17538
     17564     17557     17566     17555     17581     17574     17583     17572
     17598     17591     17600     17589     17615     17608     17617     17606
     17632     17625     17634     17623     17649     17642     17651     17640
     17666     17659     17668     17657     17683     17676     17685     17674
     17700     17693     17702     17691     17717     17710     17719     17708
     17734     17727     17736     17725     17751     17744     17753     17742
     17768     17761     17770     17759     17785     17778     17787     17776
     17802     17795     17804     17793     17819     17812     17821     17810
     17836     17829     17838     17827     17853     17846     17855     17844
     17870     17863     17872     17861     17887     17880     17889     17878
     17904     17897     17906     17895     17921     17914     17923     17912
     17938     17931     17940     17929     17955     17948     17957     17946
     17972     17965     17974     17963     17989     17982     17991     17980
     18006     17999     18008     17997     18023     18016     18025     18014
     18040     18033     18042     18031     18057     18050     18059     18048
     18074     18067     18076     18065     18091     18084     18093     18082
     18108     18101     18110     18099     18125     18118     18127     18116
     18142     18135     18144     18133     18159     18152     18161     18150
     18176     18169     18178     18167     18193     18186     18195     18184

         0 !NDON: donors


         0 !NACC: acceptors


         0 !NNB

         0         0         0         0         0         0         0         0
         0         0         0         0         0         0         0         0
         0         0         0         0         0         0         0         0
         0         0         0         0         0         0         0         0
         0         0         0         0         0         0         0         0
         0         0         0         0         0         0         0         0
         0         0         0         0         0         0         0         0
         0         0         0         0         0         0         0         0
         0         0         0         0         0         0         0         0
         0         0         0         0         0         0         0         0
         0         0         0         0         0         0         0         0
         0         0         0         0         0         0         0         0
         0         0         0         0         0         0         0         0
         0         0         0         0         0         0         0         0
         0         0         0         0         0         0         0         0
         0         0         0         0         0         0         0         0
         0         0         0         0         0         0         0         0
         0         0         0         0         0         0         0         0
         0         0         0         0         0         0         0         0
         0         0         0         0         0         0         0         0
         0         0         0         0         0         0         0         0
         0         0         0         0         0         0         0         0
         0         0         0         0         0         0         0         0
         0         0         0         0         0         0         0         0
         0         0         0         0         0         0         0         0
         0         0         0         0         0         0         0         0
         0         0         0         0         0         0         0         0
         0         0         0         0         0         0         0         0
         0         0         0         0         0         0         0         0
         0         0         0         0         0         0         0         0
         0         0         0         0         0         0         0         0
         0         0         0         0         0         0         0         0
         0         0         0         0         0         0         0         0
         0         0         0         0         0         0         0         0
         0         0         0         0         0         0         0         0
         0         0         0         0         0         0         0         0
         0         0         0         0         0         0         0         0
         0         0         0         0         0         0         0         0
         0         0         0         0         0         0         0         0
         0         0         0         0         0         0         0         0
         0         0         0         0         0         0         0         0
         0         0         0         0         0         0         0         0
         0         0         0         0         0         0         0         0
         0         0         0         0         0         0         0         0
         0         0         0         0         0         0         0         0
         0         0         0         0         0         0         0         0
         0         0         0         0         0         0         0         0
         0         0         0         0         0         0         0         0
         0         0         0         0         0         0         0         0
         0         0         0         0         0         0         0         0
         0         0         0         0         0         0         0         0
         0         0         0         0         0         0         0         0
         0         0         0         0         0         0         0         0
         0         0         0         0         0         0         0         0
         0         0         0         0         0         0         0         0
         0         0         0         0         0         0         0         0
         0         0         0         0         0         0         0         0
         0         0         0         0         0         0         0         0
         0         0         0         0         0         0         0         0
         0         0         0         0         0         0         0         0
         0         0         0         0         0         0         0         0
         0         0         0         0         0         0         0         0
         0         0         0         0         0         0         0         0
         0         0         0         0         0         0         0         0
         0         0         0         0         0         0         0         0
         0         0         0         0         0         0         0         0
         0         0         0         0         0         0         0         0
         0         0         0         0         0         0         0         0
         0         0         0         0         0         0         0         0
         0         0         0         0         0         0         0         0
         0         0         0         0         0         0         0         0
         0         0         0         0         0         0         0         0
         0         0         0         0         0         0         0         0
         0         0         0         0         0         0         0         0
         0         0         0         0         0         0         0         0
         0         0         0         0         0         0         0         0
         0         0         0         0         0         0         0         0
         0         0         0         0         0         0         0         0
         0         0         0         0         0         0         0         0
         0         0         0         0         0         0         0         0
         0         0         0         0         0         0         0         0
         0         0         0         0         0         0         0         0
         0         0         0         0         0         0         0         0
         0         0         0         0         0         0         0         0
         0         0         0         0         0         0         0         0
         0         0         0         0         0         0         0         0
         0         0         0         0         0         0         0         0
         0         0         0         0         0         0         0         0
         0         0         0         0         0         0         0         0
         0         0         0         0         0         0         0         0
         0         0         0         0         0         0         0         0
         0         0         0         0         0         0         0         0
         0         0         0         0         0         0         0         0
         0         0         0         0         0         0         0         0
         0         0         0         0         0         0         0         0
         0         0         0         0         0         0         0         0
         0         0         0         0         0         0         0         0
         0         0         0         0         0         0         0         0
         0         0         0         0         0         0         0         0
         0         0         0         0         0         0         0         0
         0         0         0         0         0         0         0         0
         0         0         0         0         0         0         0         0
         0         0         0         0         0         0         0         0
         0         0         0         0         0         0         0         0
         0         0         0         0         0         0         0         0
         0         0         0         0         0         0         0         0
         0         0         0         0         0         0         0         0
         0         0         0         0         0         0         0         0
         0         0         0         0         0         0         0         0
         0         0         0         0         0         0         0         0
         0         0         0         0         0         0         0         0
         0         0         0         0         0         0         0         0
         0         0         0         0         0         0         0         0
         0         0         0         0         0         0         0         0
         0         0         0         0         0         0         0         0
         0         0         0         0         0         0         0         0
         0         0         0         0         0         0         0         0
         0         0         0         0         0         0         0         0
         0         0         0         0         0         0         0         0
         0         0         0         0         0         0         0         0
         0         0         0         0         0         0         0         0
         0         0         0         0         0         0         0         0
         0         0         0         0         0         0         0         0
         0         0         0         0         0         0         0         0
         0         0         0         0         0         0         0         0
         0         0         0         0         0         0         0         0
         0         0         0         0         0         0         0         0
         0         0         0         0         0         0         0         0
         0         0         0         0         0         0         0         0
         0         0         0         0         0         0         0         0
         0         0         0         0         0         0         0         0
         0         0         0         0         0         0         0         0
         0         0         0         0         0         0         0         0
         0         0         0         0         0         0         0         0
         0         0         0         0         0         0         0         0
         0         0         0         0         0         0         0         0
         0         0         0         0         0         0         0         0
         0         0         0         0         0         0         0         0
         0         0         0         0         0         0         0         0
         0         0         0         0         0         0         0         0
         0         0         0         0         0         0         0         0
         0         0         0         0         0         0         0         0
         0         0         0         0         0         0         0         0
         0         0         0         0         0         0         0         0
         0         0         0         0         0         0         0         0
         0         0         0         0         0         0         0         0
         0         0         0         0         0         0         0         0
         0         0         0         0         0         0         0         0
         0         0         0         0         0         0         0         0
         0         0         0         0         0         0         0         0
         0         0         0         0         0         0         0         0
         0         0         0         0         0         0         0         0
         0         0         0         0         0         0         0         0
         0         0         0         0         0         0         0         0
         0         0         0         0         0         0         0         0
         0         0         0         0         0         0         0         0
         0         0         0         0         0         0         0         0
         0         0         0         0         0         0         0         0
         0         0         0         0         0         0         0         0
         0         0         0         0         0         0         0         0
         0         0         0         0         0         0         0         0
         0         0         0         0         0         0         0         0
         0         0         0         0         0         0         0         0
         0         0         0         0         0         0         0         0
         0         0         0         0         0         0         0         0
         0         0         0         0         0         0         0         0
         0         0         0         0         0         0         0         0
         0         0         0         0         0         0         0         0
         0         0         0         0         0         0         0         0
         0         0         0         0         0         0         0         0
         0         0         0         0         0         0         0         0
         0         0         0         0         0         0         0         0
         0         0         0         0         0         0         0         0
         0         0         0         0         0         0         0         0
         0         0         0         0         0         0         0         0
         0         0         0         0         0         0         0         0
         0         0         0         0         0         0         0         0
         0         0         0         0         0         0         0         0
         0         0         0         0         0         0         0         0
         0         0         0         0         0         0         0         0
         0         0         0         0         0         0         0         0
         0         0         0         0         0         0         0         0
         0         0         0         0         0         0         0         0
         0         0         0         0         0         0         0         0
         0         0         0         0         0         0         0         0
         0         0         0         0         0         0         0         0
         0         0         0         0         0         0         0         0
         0         0         0         0         0         0         0         0
         0         0         0         0         0         0         0         0
         0         0         0         0         0         0         0         0
         0         0         0         0         0         0         0         0
         0         0         0         0         0         0         0         0
         0         0         0         0         0         0         0         0
         0         0         0         0         0         0         0         0
         0         0         0         0         0         0         0         0
         0         0         0         0         0         0         0         0
         0         0         0         0         0         0         0         0
         0         0         0         0         0         0         0         0
         0         0         0         0         0         0         0         0
         0         0         0         0         0         0         0         0
         0         0         0         0         0         0         0         0
         0         0         0         0         0         0         0         0
         0         0         0         0         0         0         0         0
         0         0         0         0         0         0         0         0
         0         0         0         0         0         0         0         0
         0         0         0         0         0         0         0         0
         0         0         0         0         0         0         0         0
         0         0         0         0         0         0         0         0
         0         0         0         0         0         0         0         0
         0         0         0         0         0         0         0         0
         0         0         0         0         0         0         0         0
         0         0         0         0         0         0         0         0
         0         0         0         0         0         0         0         0
         0         0         0         0         0         0         0         0
         0         0         0         0         0         0         0         0
         0         0         0         0         0         0         0         0
         0         0         0         0         0         0         0         0
         0         0         0         0         0         0         0         0
         0         0         0         0         0         0         0         0
         0         0         0         0         0         0         0         0
         0         0         0         0         0         0         0         0
         0         0         0         0         0         0         0         0
         0         0         0         0         0         0         0         0
         0         0         0         0         0         0         0         0
         0         0         0         0         0         0         0         0
         0         0         0         0         0         0         0         0
         0         0         0         0         0         0         0         0
         0         0         0         0         0         0         0         0
         0         0         0         0         0         0         0         0
         0         0         0         0         0         0         0         0
         0         0         0         0         0         0         0         0
         0         0         0         0         0         0         0         0
         0         0         0         0         0         0         0         0
         0         0         0         0         0         0         0         0
         0         0         0         0         0         0         0         0
         0         0         0         0         0         0         0         0
         0         0         0         0         0         0         0         0
         0         0         0         0         0         0         0         0
         0         0         0         0         0         0         0         0
         0         0         0         0         0         0         0         0
         0         0         0         0         0         0         0         0
         0         0         0         0         0         0         0         0
         0         0         0         0         0         0         0         0
         0         0         0         0         0         0         0         0
         0         0         0         0         0         0         0         0
         0         0         0         0         0         0         0         0
         0         0         0         0         0         0         0         0
         0         0         0         0         0         0         0         0
         0         0         0         0         0         0         0         0
         0         0         0         0         0         0         0         0
         0         0         0         0         0         0         0         0
         0         0         0         0         0         0         0         0
         0         0         0         0         0         0         0         0
         0         0         0         0         0         0         0         0
         0         0         0         0         0         0         0         0
         0         0         0         0         0         0         0         0
         0         0         0         0         0         0         0         0
         0         0         0         0         0         0         0         0
         0         0         0         0         0         0         0         0
         0         0         0         0         0         0         0         0
         0         0         0         0         0         0         0         0
         0         0         0         0         0         0         0         0
         0         0         0         0         0         0         0         0
         0         0         0         0         0         0         0         0
         0         0         0         0         0         0         0         0
         0         0         0         0         0         0         0         0
         0         0         0         0         0         0         0         0
         0         0         0         0         0         0         0         0
         0         0         0         0         0         0         0         0
         0         0         0         0         0         0         0         0
         0         0         0         0         0         0         0         0
         0         0         0         0         0         0         0         0
         0         0         0         0         0         0         0         0
         0         0         0         0         0         0         0         0
         0         0         0         0         0         0         0         0
         0         0         0         0         0         0         0         0
         0         0         0         0         0         0         0         0
         0         0         0         0         0         0         0         0
         0         0         0         0         0         0         0         0
         0         0         0         0         0         0         0         0
         0         0         0         0         0         0         0         0
         0         0         0         0         0         0         0         0
         0         0         0         0         0         0         0         0
         0         0         0         0         0         0         0         0
         0         0         0         0         0         0         0         0
         0         0         0         0         0         0         0         0
         0         0         0         0         0         0         0         0
         0         0         0         0         0         0         0         0
         0         0         0         0         0         0         0         0
         0         0         0         0         0         0         0         0
         0         0         0         0         0         0         0         0
         0         0         0         0         0         0         0         0
         0         0         0         0         0         0         0         0
         0         0         0         0         0         0         0         0
         0         0         0         0         0         0         0         0
         0         0         0         0         0         0         0         0
         0         0         0         0         0         0         0         0
         0         0         0         0         0         0         0         0
         0         0         0         0         0         0         0         0
         0         0         0         0         0         0         0         0
         0         0         0         0         0         0         0         0
         0         0         0         0         0         0         0         0
         0         0         0         0         0         0         0         0
         0         0         0         0         0         0         0         0
         0         0         0         0         0         0         0         0
         0         0         0         0         0         0         0         0
         0         0         0         0         0         0         0         0
         0         0         0         0         0         0         0         0
         0         0         0         0         0         0         0         0
         0         0         0         0         0         0         0         0
         0         0         0         0         0         0         0         0
         0         0         0         0         0         0         0         0
         0         0         0         0         0         0         0         0
         0         0         0         0         0         0         0         0
         0         0         0         0         0         0         0         0
         0         0         0         0         0         0         0         0
         0         0         0         0         0         0         0         0
         0         0         0         0         0         0         0         0
         0         0         0         0         0         0         0         0
         0         0         0         0         0         0         0         0
         0         0         0         0         0         0         0         0
         0         0         0         0         0         0         0         0
         0         0         0         0         0         0         0         0
         0         0         0         0         0         0         0         0
         0         0         0         0         0         0         0         0
         0         0         0         0         0         0         0         0
         0         0         0         0         0         0         0         0
         0         0         0         0         0         0         0         0
         0         0         0         0         0         0         0         0
         0         0         0         0         0         0         0         0
         0         0         0         0         0         0         0         0
         0         0         0         0         0         0         0         0
         0         0         0         0         0         0         0         0
         0         0         0         0         0         0         0         0
         0         0         0         0         0         0         0         0
         0         0         0         0         0         0         0         0
         0         0         0         0         0         0         0         0
         0         0         0         0         0         0         0         0
         0         0         0         0         0         0         0         0
         0         0         0         0         0         0         0         0
         0         0         0         0         0         0         0         0
         0         0         0         0         0         0         0         0
         0         0         0         0         0         0         0         0
         0         0         0         0         0         0         0         0
         0         0         0         0         0         0         0         0
         0         0         0         0         0         0         0         0
         0         0         0         0         0         0         0         0
         0         0         0         0         0         0         0         0
         0         0         0         0         0         0         0         0
         0         0         0         0         0         0         0         0
         0         0         0         0         0         0         0         0
         0         0         0         0         0         0         0         0
         0         0         0         0         0         0         0         0
         0         0         0         0         0         0         0         0
         0         0         0         0         0         0         0         0
         0         0         0         0         0         0         0         0
         0         0         0         0         0         0         0         0
         0         0         0         0         0         0         0         0
         0         0         0         0         0         0         0         0
         0         0         0         0         0         0         0         0
         0         0         0         0         0         0         0         0
         0         0         0         0         0         0         0         0
         0         0         0         0         0         0         0         0
         0         0         0         0         0         0         0         0
         0         0         0         0         0         0         0         0
         0         0         0         0         0         0         0         0
         0         0         0         0         0         0         0         0
         0         0         0         0         0         0         0         0
         0         0         0         0         0         0         0         0
         0         0         0         0         0         0         0         0
         0         0         0         0         0         0         0         0
         0         0         0         0         0         0         0         0
         0         0         0         0         0         0         0         0
         0         0         0         0         0         0         0         0
         0         0         0         0         0         0         0         0
         0         0         0         0         0         0         0         0
         0         0         0         0         0         0         0         0
         0         0         0         0         0         0         0         0
         0         0         0         0         0         0         0         0
         0         0         0         0         0         0         0         0
         0         0         0         0         0         0         0         0
         0         0         0         0         0         0         0         0
         0         0         0         0         0         0         0         0
         0         0         0         0         0         0         0         0
         0         0         0         0         0         0         0         0
         0         0         0         0         0         0         0         0
         0         0         0         0         0         0         0         0
         0         0         0         0         0         0         0         0
         0         0         0         0         0         0         0         0
         0         0         0         0         0         0         0         0
         0         0         0         0         0         0         0         0
         0         0         0         0         0         0         0         0
         0         0         0         0         0         0         0         0
         0         0         0         0         0         0         0         0
         0         0         0         0         0         0         0         0
         0         0         0         0         0         0         0         0
         0         0         0         0         0         0         0         0
         0         0         0         0         0         0         0         0
         0         0         0         0         0         0         0         0
         0         0         0         0         0         0         0         0
         0         0         0         0         0         0         0         0
         0         0         0         0         0         0         0         0
         0         0         0         0         0         0         0         0
         0         0         0         0         0         0         0         0
         0         0         0         0         0         0         0         0
         0         0         0         0         0         0         0         0
         0         0         0         0         0         0         0         0
         0         0         0         0         0         0         0         0
         0         0         0         0         0         0         0         0
         0         0         0         0         0         0         0         0
         0         0         0         0         0         0         0         0
         0         0         0         0         0         0         0         0
         0         0         0         0         0         0         0         0
         0         0         0         0         0         0         0         0
         0         0         0         0         0         0         0         0
         0         0         0         0         0         0         0         0
         0         0         0         0         0         0         0         0
         0         0         0         0         0         0         0         0
         0         0         0         0         0         0         0         0
         0         0         0         0         0         0         0         0
         0         0         0         0         0         0         0         0
         0         0         0         0         0         0         0         0
         0         0         0         0         0         0         0         0
         0         0         0         0         0         0         0         0
         0         0         0         0         0         0         0         0
         0         0         0         0         0         0         0         0
         0         0         0         0         0         0         0         0
         0         0         0         0         0         0         0         0
         0         0         0         0         0         0         0         0
         0         0         0         0         0         0         0         0
         0         0         0         0         0         0         0         0
         0         0         0         0         0         0         0         0
         0         0         0         0         0         0         0         0
         0         0         0         0         0         0         0         0
         0         0         0         0         0         0         0         0
         0         0         0         0         0         0         0         0
         0         0         0         0         0         0         0         0
         0         0         0         0         0         0         0         0
         0         0         0         0         0         0         0         0
         0         0         0         0         0         0         0         0
         0         0         0         0         0         0         0         0
         0         0         0         0         0         0         0         0
         0         0         0         0         0         0         0         0
         0         0         0         0         0         0         0         0
         0         0         0         0         0         0         0         0
         0         0         0         0         0         0         0         0
         0         0         0         0         0         0         0         0
         0         0         0         0         0         0         0         0
         0         0         0         0         0         0         0         0
         0         0         0         0         0         0         0         0
         0         0         0         0         0         0         0         0
         0         0         0         0         0         0         0         0
         0         0         0         0         0         0         0         0
         0         0         0         0         0         0         0         0
         0         0         0         0         0         0         0         0
         0         0         0         0         0         0         0         0
         0         0         0         0         0         0         0         0
         0         0         0         0         0         0         0         0
         0         0         0         0         0         0         0         0
         0         0         0         0         0         0         0         0
         0         0         0         0         0         0         0         0
         0         0         0         0         0         0         0         0
         0         0         0         0         0         0         0         0
         0         0         0         0         0         0         0         0
         0         0         0         0         0         0         0         0
         0         0         0         0         0         0         0         0
         0         0         0         0         0         0         0         0
         0         0         0         0         0         0         0         0
         0         0         0         0         0         0         0         0
         0         0         0         0         0         0         0         0
         0         0         0         0         0         0         0         0
         0         0         0         0         0         0         0         0
         0         0         0         0         0         0         0         0
         0         0         0         0         0         0         0         0
         0         0         0         0         0         0         0         0
         0         0         0         0         0         0         0         0
         0         0         0         0         0         0         0         0
         0         0         0         0         0         0         0         0
         0         0         0         0         0         0         0         0
         0         0         0         0         0         0         0         0
         0         0         0         0         0         0         0         0
         0         0         0         0         0         0         0         0
         0         0         0         0         0         0         0         0
         0         0         0         0         0         0         0         0
         0         0         0         0         0         0         0         0
         0         0         0         0         0         0         0         0
         0         0         0         0         0         0         0         0
         0         0         0         0         0         0         0         0
         0         0         0         0         0         0         0         0
         0         0         0         0         0         0         0         0
         0         0         0         0         0         0         0         0
         0         0         0         0         0         0         0         0
         0         0         0         0         0         0         0         0
         0         0         0         0         0         0         0         0
         0         0         0         0         0         0         0         0
         0         0         0         0         0         0         0         0
         0         0         0         0         0         0         0         0
         0         0         0         0         0         0         0         0
         0         0         0         0         0         0         0         0
         0         0         0         0         0         0         0         0
         0         0         0         0         0         0         0         0
         0         0         0         0         0         0         0         0
         0         0         0         0         0         0         0         0
         0         0         0         0         0         0         0         0
         0         0         0         0         0         0         0         0
         0         0         0         0         0         0         0         0
         0         0         0         0         0         0         0         0
         0         0         0         0         0         0         0         0
         0         0         0         0         0         0         0         0
         0         0         0         0         0         0         0         0
         0         0         0         0         0         0         0         0
         0         0         0         0         0         0         0         0
         0         0         0         0         0         0         0         0
         0         0         0         0         0         0         0         0
         0         0         0         0         0         0         0         0
         0         0         0         0         0         0         0         0
         0         0         0         0         0         0         0         0
         0         0         0         0         0         0         0         0
         0         0         0         0         0         0         0         0
         0         0         0         0         0         0         0         0
         0         0         0         0         0         0         0         0
         0         0         0         0         0         0         0         0
         0         0         0         0         0         0         0         0
         0         0         0         0         0         0         0         0
         0         0         0         0         0         0         0         0
         0         0         0         0         0         0         0         0
         0         0         0         0         0         0         0         0
         0         0         0         0         0         0         0         0
         0         0         0         0         0         0         0         0
         0         0         0         0         0         0         0         0
         0         0         0         0         0         0         0         0
         0         0         0         0         0         0         0         0
         0         0         0         0         0         0         0         0
         0         0         0         0         0         0         0         0
         0         0         0         0         0         0         0         0
         0         0         0         0         0         0         0         0
         0         0         0         0         0         0         0         0
         0         0         0         0         0         0         0         0
         0         0         0         0         0         0         0         0
         0         0         0         0         0         0         0         0
         0         0         0         0         0         0         0         0
         0         0         0         0         0         0         0         0
         0         0         0         0         0         0         0         0
         0         0         0         0         0         0         0         0
         0         0         0         0         0         0         0         0
         0         0         0         0         0         0         0         0
         0         0         0         0         0         0         0         0
         0         0         0         0         0         0         0         0
         0         0         0         0         0         0         0         0
         0         0         0         0         0         0         0         0
         0         0         0         0         0         0         0         0
         0         0         0         0         0         0         0         0
         0         0         0         0         0         0         0         0
         0         0         0         0         0         0         0         0
         0         0         0         0         0         0         0         0
         0         0         0         0         0         0         0         0
         0         0         0         0         0         0         0         0
         0         0         0         0         0         0         0         0
         0         0         0         0         0         0         0         0
         0         0         0         0         0         0         0         0
         0         0         0         0         0         0         0         0
         0         0         0         0         0         0         0         0
         0         0         0         0         0         0         0         0
         0         0         0         0         0         0         0         0
         0         0         0         0         0         0         0         0
         0         0         0         0         0         0         0         0
         0         0         0         0         0         0         0         0
         0         0         0         0         0         0         0         0
         0         0         0         0         0         0         0         0
         0         0         0         0         0         0         0         0
         0         0         0         0         0         0         0         0
         0         0         0         0         0         0         0         0
         0         0         0         0         0         0         0         0
         0         0         0         0         0         0         0         0
         0         0         0         0         0         0         0         0
         0         0         0         0         0         0         0         0
         0         0         0         0         0         0         0         0
         0         0         0         0         0         0         0         0
         0         0         0         0         0         0         0         0
         0         0         0         0         0         0         0         0
         0         0         0         0         0         0         0         0
         0         0         0         0         0         0         0         0
         0         0         0         0         0         0         0         0
         0         0         0         0         0         0         0         0
         0         0         0         0         0         0         0         0
         0         0         0         0         0         0         0         0
         0         0         0         0         0         0         0         0
         0         0         0         0         0         0         0         0
         0         0         0         0         0         0         0         0
         0         0         0         0         0         0         0         0
         0         0         0         0         0         0         0         0
         0         0         0         0         0         0         0         0
         0         0         0         0         0         0         0         0
         0         0         0         0         0         0         0         0
         0         0         0         0         0         0         0         0
         0         0         0         0         0         0         0         0
         0         0         0         0         0         0         0         0
         0         0         0         0         0         0         0         0
         0         0         0         0         0         0         0         0
         0         0         0         0         0         0         0         0
         0         0         0         0         0         0         0         0
         0         0         0         0         0         0         0         0
         0         0         0         0         0         0         0         0
         0         0         0         0         0         0         0         0
         0         0         0         0         0         0         0         0
         0         0         0         0         0         0         0         0
         0         0         0         0         0         0         0         0
         0         0         0         0         0         0         0         0
         0         0         0         0         0         0         0         0
         0         0         0         0         0         0         0         0
         0         0         0         0         0         0         0         0
         0         0         0         0         0         0         0         0
         0         0         0         0         0         0         0         0
         0         0         0         0         0         0         0         0
         0         0         0         0         0         0         0         0
         0         0         0         0         0         0         0         0
         0         0         0         0         0         0         0         0
         0         0         0         0         0         0         0         0
         0         0         0         0         0         0         0         0
         0         0         0         0         0         0         0         0
         0         0         0         0         0         0         0         0
         0         0         0         0         0         0         0         0
         0         0         0         0         0         0         0         0
         0         0         0         0         0         0         0         0
         0         0         0         0         0         0         0         0
         0         0         0         0         0         0         0         0
         0         0         0         0         0         0         0         0
         0         0         0         0         0         0         0         0
         0         0         0         0         0         0         0         0
         0         0         0         0         0         0         0         0
         0         0         0         0         0         0         0         0
         0         0         0         0         0         0         0         0
         0         0         0         0         0         0         0         0
         0         0         0         0         0         0         0         0
         0         0         0         0         0         0         0         0
         0         0         0         0         0         0         0         0
         0         0         0         0         0         0         0         0
         0         0         0         0         0         0         0         0
         0         0         0         0         0         0         0         0
         0         0         0         0         0         0         0         0
         0         0         0         0         0         0         0         0
         0         0         0         0         0         0         0         0
         0         0         0         0         0         0         0         0
         0         0         0         0         0         0         0         0
         0         0         0         0         0         0         0         0
         0         0         0         0         0         0         0         0
         0         0         0         0         0         0         0         0
         0         0         0         0         0         0         0         0
         0         0         0         0         0         0         0         0
         0         0         0         0         0         0         0         0
         0         0         0         0         0         0         0         0
         0         0         0         0         0         0         0         0
         0         0         0         0         0         0         0         0
         0         0         0         0         0         0         0         0
         0         0         0         0         0         0         0         0
         0         0         0         0         0         0         0         0
         0         0         0         0         0         0         0         0
         0         0         0         0         0         0         0         0
         0         0         0         0         0         0         0         0
         0         0         0         0         0         0         0         0
         0         0         0         0         0         0         0         0
         0         0         0         0         0         0         0         0
         0         0         0         0         0         0         0         0
         0         0         0         0         0         0         0         0
         0         0         0         0         0         0         0         0
         0         0         0         0         0         0         0         0
         0         0         0         0         0         0         0         0
         0         0         0         0         0         0         0         0
         0         0         0         0         0         0         0         0
         0         0         0         0         0         0         0         0
         0         0         0         0         0         0         0         0
         0         0         0         0         0         0         0         0
         0         0         0         0         0         0         0         0
         0         0         0         0         0         0         0         0
         0         0         0         0         0         0         0         0
         0         0         0         0         0         0         0         0
         0         0         0         0         0         0         0         0
         0         0         0         0         0         0         0         0
         0         0         0         0         0         0         0         0
         0         0         0         0         0         0         0         0
         0         0         0         0         0         0         0         0
         0         0         0         0         0         0         0         0
         0         0         0         0         0         0         0         0
         0         0         0         0         0         0         0         0
         0         0         0         0         0         0         0         0
         0         0         0         0         0         0         0         0
         0         0         0         0         0         0         0         0
         0         0         0         0         0         0         0         0
         0         0         0         0         0         0         0         0
         0         0         0         0         0         0         0         0
         0         0         0         0         0         0         0         0
         0         0         0         0         0         0         0         0
         0         0         0         0         0         0         0         0
         0         0         0         0         0         0         0         0
         0         0         0         0         0         0         0         0
         0         0         0         0         0         0         0         0
         0         0         0         0         0         0         0         0
         0         0         0         0         0         0         0         0
         0         0         0         0         0         0         0         0
         0         0         0         0         0         0         0         0
         0         0         0         0         0         0         0         0
         0         0         0         0         0         0         0         0
         0         0         0         0         0         0         0         0
         0         0         0         0         0         0         0         0
         0         0         0         0         0         0         0         0
         0         0         0         0         0         0         0         0
         0         0         0         0         0         0         0         0
         0         0         0         0         0         0         0         0
         0         0         0         0         0         0         0         0
         0         0         0         0         0         0         0         0
         0         0         0         0         0         0         0         0
         0         0         0         0         0         0         0         0
         0         0         0         0         0         0         0         0
         0         0         0         0         0         0         0         0
         0         0         0         0         0         0         0         0
         0         0         0         0         0         0         0         0
         0         0         0         0         0         0         0         0
         0         0         0         0         0         0         0         0
         0         0         0         0         0         0         0         0
         0         0         0         0         0         0         0         0
         0         0         0         0         0         0         0         0
         0         0         0         0         0         0         0         0
         0         0         0         0         0         0         0         0
         0         0         0         0         0         0         0         0
         0         0         0         0         0         0         0         0
         0         0         0         0         0         0         0         0
         0         0         0         0         0         0         0         0
         0         0         0         0         0         0         0         0
         0         0         0         0         0         0         0         0
         0         0         0         0         0         0         0         0
         0         0         0         0         0         0         0         0
         0         0         0         0         0         0         0         0
         0         0         0         0         0         0         0         0
         0         0         0         0         0         0         0         0
         0         0         0         0         0         0         0         0
         0         0         0         0         0         0         0         0
         0         0         0         0         0         0         0         0
         0         0         0         0         0         0         0         0
         0         0         0         0         0         0         0         0
         0         0         0         0         0         0         0         0
         0         0         0         0         0         0         0         0
         0         0         0         0         0         0         0         0
         0         0         0         0         0         0         0         0
         0         0         0         0         0         0         0         0
         0         0         0         0         0         0         0         0
         0         0         0         0         0         0         0         0
         0         0         0         0         0         0         0         0
         0         0         0         0         0         0         0         0
         0         0         0         0         0         0         0         0
         0         0         0         0         0         0         0         0
         0         0         0         0         0         0         0         0
         0         0         0         0         0         0         0         0
         0         0         0         0         0         0         0         0
         0         0         0         0         0         0         0         0
         0         0         0         0         0         0         0         0
         0         0         0         0         0         0         0         0
         0         0         0         0         0         0         0         0
         0         0         0         0         0         0         0         0
         0         0         0         0         0         0         0         0
         0         0         0         0         0         0         0         0
         0         0         0         0         0         0         0         0
         0         0         0         0         0         0         0         0
         0         0         0         0         0         0         0         0
         0         0         0         0         0         0         0         0
         0         0         0         0         0         0         0         0
         0         0         0         0         0         0         0         0
         0         0         0         0         0         0         0         0
         0         0         0         0         0         0         0         0
         0         0         0         0         0         0         0         0
         0         0         0         0         0         0         0         0
         0         0         0         0         0         0         0         0
         0         0         0         0         0         0         0         0
         0         0         0         0         0         0         0         0
         0         0         0         0         0         0         0         0
         0         0         0         0         0         0         0         0
         0         0         0         0         0         0         0         0
         0         0         0         0         0         0         0         0
         0         0         0         0         0         0         0         0
         0         0         0         0         0         0         0         0
         0         0         0         0         0         0         0         0
         0         0         0         0         0         0         0         0
         0         0         0         0         0         0         0         0
         0         0         0         0         0         0         0         0
         0         0         0         0         0         0         0         0
         0         0         0         0         0         0         0         0
         0         0         0         0         0         0         0         0
         0         0         0         0         0         0         0         0
         0         0         0         0         0         0         0         0
         0         0         0         0         0         0         0         0
         0         0         0         0         0         0         0         0
         0         0         0         0         0         0         0         0
         0         0         0         0         0         0         0         0
         0         0         0         0         0         0         0         0
         0         0         0         0         0         0         0         0
         0         0         0         0         0         0         0         0
         0         0         0         0         0         0         0         0
         0         0         0         0         0         0         0         0
         0         0         0         0         0         0         0         0
         0         0         0         0         0         0         0         0
         0         0         0         0         0         0         0         0
         0         0         0         0         0         0         0         0
         0         0         0         0         0         0         0         0
         0         0         0         0         0         0         0         0
         0         0         0         0         0         0         0         0
         0         0         0         0         0         0         0         0
         0         0         0         0         0         0         0         0
         0         0         0         0         0         0         0         0
         0         0         0         0         0         0         0         0
         0         0         0         0         0         0         0         0
         0         0         0         0         0         0         0         0
         0         0         0         0         0         0         0         0
         0         0         0         0         0         0         0         0
         0         0         0         0         0         0         0         0
         0         0         0         0         0         0         0         0
         0         0         0         0         0         0         0         0
         0         0         0         0         0         0         0         0
         0         0         0         0         0         0         0         0
         0         0         0         0         0         0         0         0
         0         0         0         0         0         0         0         0
         0         0         0         0         0         0         0         0
         0         0         0         0         0         0         0         0
         0         0         0         0         0         0         0         0
         0         0         0         0         0         0         0         0
         0         0         0         0         0         0         0         0
         0         0         0         0         0         0         0         0
         0         0         0         0         0         0         0         0
         0         0         0         0         0         0         0         0
         0         0         0         0         0         0         0         0
         0         0         0         0         0         0         0         0
         0         0         0         0         0         0         0         0
         0         0         0         0         0         0         0         0
         0         0         0         0         0         0         0         0
         0         0         0         0         0         0         0         0
         0         0         0         0         0         0         0         0
         0         0         0         0         0         0         0         0
         0         0         0         0         0         0         0         0
         0         0         0         0         0         0         0         0
         0         0         0         0         0         0         0         0
         0         0         0         0         0         0         0         0
         0         0         0         0         0         0         0         0
         0         0         0         0         0         0         0         0
         0         0         0         0         0         0         0         0
         0         0         0         0         0         0         0         0
         0         0         0         0         0         0         0         0
         0         0         0         0         0         0         0         0
         0         0         0         0         0         0         0         0
         0         0         0         0         0         0         0         0
         0         0         0         0         0         0         0         0
         0         0         0         0         0         0         0         0
         0         0         0         0         0         0         0         0
         0         0         0         0         0         0         0         0
         0         0         0         0         0         0         0         0
         0         0         0         0         0         0         0         0
         0         0         0         0         0         0         0         0
         0         0         0         0         0         0         0         0
         0         0         0         0         0         0         0         0
         0         0         0         0         0         0         0         0
         0         0         0         0         0         0         0         0
         0         0         0         0         0         0         0         0
         0         0         0         0         0         0         0         0
         0         0         0         0         0         0         0         0
         0         0         0         0         0         0         0         0
         0         0         0         0         0         0         0         0
         0         0         0         0         0         0         0         0
         0         0         0         0         0         0         0         0
         0         0         0         0         0         0         0         0
         0         0         0         0         0         0         0         0
         0         0         0         0         0         0         0         0
         0         0         0         0         0         0         0         0
         0         0         0         0         0         0         0         0
         0         0         0         0         0         0         0         0
         0         0         0         0         0         0         0         0
         0         0         0         0         0         0         0         0
         0         0         0         0         0         0         0         0
         0         0         0         0         0         0         0         0
         0         0         0         0         0         0         0         0
         0         0         0         0         0         0         0         0
         0         0         0         0         0         0         0         0
         0         0         0         0         0         0         0         0
         0         0         0         0         0         0         0         0
         0         0         0         0         0         0         0         0
         0         0         0         0         0         0         0         0
         0         0         0         0         0         0         0         0
         0         0         0         0         0         0         0         0
         0         0         0         0         0         0         0         0
         0         0         0         0         0         0         0         0
         0         0         0         0         0         0         0         0
         0         0         0         0         0         0         0         0
         0         0         0         0         0         0         0         0
         0         0         0         0         0         0         0         0
         0         0         0         0         0         0         0         0
         0         0         0         0         0         0         0         0
         0         0         0         0         0         0         0         0
         0         0         0         0         0         0         0         0
         0         0         0         0         0         0         0         0
         0         0         0         0         0         0         0         0
         0         0         0         0         0         0         0         0
         0         0         0         0         0         0         0         0
         0         0         0         0         0         0         0         0
         0         0         0         0         0         0         0         0
         0         0         0         0         0         0         0         0
         0         0         0         0         0         0         0         0
         0         0         0         0         0         0         0         0
         0         0         0         0         0         0         0         0
         0         0         0         0         0         0         0         0
         0         0         0         0         0         0         0         0
         0         0         0         0         0         0         0         0
         0         0         0         0         0         0         0         0
         0         0         0         0         0         0         0         0
         0         0         0         0         0         0         0         0
         0         0         0         0         0         0         0         0
         0         0         0         0         0         0         0         0
         0         0         0         0         0         0         0         0
         0         0         0         0         0         0         0         0
         0         0         0         0         0         0         0         0
         0         0         0         0         0         0         0         0
         0         0         0         0         0         0         0         0
         0         0         0         0         0         0         0         0
         0         0         0         0         0         0         0         0
         0         0         0         0         0         0         0         0
         0         0         0         0         0         0         0         0
         0         0         0         0         0         0         0         0
         0         0         0         0         0         0         0         0
         0         0         0         0         0         0         0         0
         0         0         0         0         0         0         0         0
         0         0         0         0         0         0         0         0
         0         0         0         0         0         0         0         0
         0         0         0         0         0         0         0         0
         0         0         0         0         0         0         0         0
         0         0         0         0         0         0         0         0
         0         0         0         0         0         0         0         0
         0         0         0         0         0         0         0         0
         0         0         0         0         0         0         0         0
         0         0         0         0         0         0         0         0
         0         0         0         0         0         0         0         0
         0         0         0         0         0         0         0         0
         0         0         0         0         0         0         0         0
         0         0         0         0         0         0         0         0
         0         0         0         0         0         0         0         0
         0         0         0         0         0         0         0         0
         0         0         0         0         0         0         0         0
         0         0         0         0         0         0         0         0
         0         0         0         0         0         0         0         0
         0         0         0         0         0         0         0         0
         0         0         0         0         0         0         0         0
         0         0         0         0         0         0         0         0
         0         0         0         0         0         0         0         0
         0         0         0         0         0         0         0         0
         0         0         0         0         0         0         0         0
         0         0         0         0         0         0         0         0
         0         0         0         0         0         0         0         0
         0         0         0         0         0         0         0         0
         0         0         0         0         0         0         0         0
         0         0         0         0         0         0         0         0
         0         0         0         0         0         0         0         0
         0         0         0         0         0         0         0         0
         0         0         0         0         0         0         0         0
         0         0         0         0         0         0         0         0
         0         0         0         0         0         0         0         0
         0         0         0         0         0         0         0         0
         0         0         0         0         0         0         0         0
         0         0         0         0         0         0         0         0
         0         0         0         0         0         0         0         0
         0         0         0         0         0         0         0         0
         0         0         0         0         0         0         0         0
         0         0         0         0         0         0         0         0
         0         0         0         0         0         0         0         0
         0         0         0         0         0         0         0         0
         0         0         0         0         0         0         0         0
         0         0         0         0         0         0         0         0
         0         0         0         0         0         0         0         0
         0         0         0         0         0         0         0         0
         0         0         0         0         0         0         0         0
         0         0         0         0         0         0         0         0
         0         0         0         0         0         0         0         0
         0         0         0         0         0         0         0         0
         0         0         0         0         0         0         0         0
         0         0         0         0         0         0         0         0
         0         0         0         0         0         0         0         0
         0         0         0         0         0         0         0         0
         0         0         0         0         0         0         0         0
         0         0         0         0         0         0         0         0
         0         0         0         0         0         0         0         0
         0         0         0         0         0         0         0         0
         0         0         0         0         0         0         0         0
         0         0         0         0         0         0         0         0
         0         0         0         0         0         0         0         0
         0         0         0         0         0         0         0         0
         0         0         0         0         0         0         0         0
         0         0         0         0         0         0         0         0
         0         0         0         0         0         0         0         0
         0         0         0         0         0         0         0         0
         0         0         0         0         0         0         0         0
         0         0         0         0         0         0         0         0
         0         0         0         0         0         0         0         0
         0         0         0         0         0         0         0         0
         0         0         0         0         0         0         0         0
         0         0         0         0         0         0         0         0
         0         0         0         0         0         0         0         0
         0         0         0         0         0         0         0         0
         0         0         0         0         0         0         0         0
         0         0         0         0         0         0         0         0
         0         0         0         0         0         0         0         0
         0         0         0         0         0         0         0         0
         0         0         0         0         0         0         0         0
         0         0         0         0         0         0         0         0
         0         0         0         0         0         0         0         0
         0         0         0         0         0         0         0         0
         0         0         0         0         0         0         0         0
         0         0         0         0         0         0         0         0
         0         0         0         0         0         0         0         0
         0         0         0         0         0         0         0         0
         0         0         0         0         0         0         0         0
         0         0         0         0         0         0         0         0
         0         0         0         0         0         0         0         0
         0         0         0         0         0         0         0         0
         0         0         0         0         0         0         0         0
         0         0         0         0         0         0         0         0
         0         0         0         0         0         0         0         0
         0         0         0         0         0         0         0         0
         0         0         0         0         0         0         0         0
         0         0         0         0         0         0         0         0
         0         0         0         0         0         0         0         0
         0         0         0         0         0         0         0         0
         0         0         0         0         0         0         0         0
         0         0         0         0         0         0         0         0
         0         0         0         0         0         0         0         0
         0         0         0         0         0         0         0         0
         0         0         0         0         0         0         0         0
         0         0         0         0         0         0         0         0
         0         0         0         0         0         0         0         0
         0         0         0         0         0         0         0         0
         0         0         0         0         0         0         0         0
         0         0         0         0         0         0         0         0
         0         0         0         0         0         0         0         0
         0         0         0         0         0         0         0         0
         0         0         0         0         0         0         0         0
         0         0         0         0         0         0         0         0
         0         0         0         0         0         0         0         0
         0         0         0         0         0         0         0         0
         0         0         0         0         0         0         0         0
         0         0         0         0         0         0         0         0
         0         0         0         0         0         0         0         0
         0         0         0         0         0         0         0         0
         0         0         0         0         0         0         0         0
         0         0         0         0         0         0         0         0
         0         0         0         0         0         0         0         0
         0         0         0         0         0         0         0         0
         0         0         0         0         0         0         0         0
         0         0         0         0         0         0         0         0
         0         0         0         0         0         0         0         0
         0         0         0         0         0         0         0         0
         0         0         0         0         0         0         0         0
         0         0         0         0         0         0         0         0
         0         0         0         0         0         0         0         0
         0         0         0         0         0         0         0         0
         0         0         0         0         0         0         0         0
         0         0         0         0         0         0         0         0
         0         0         0         0         0         0         0         0
         0         0         0         0         0         0         0         0
         0         0         0         0         0         0         0         0
         0         0         0         0         0         0         0         0
         0         0         0         0         0         0         0         0
         0         0         0         0         0         0         0         0
         0         0         0         0         0         0         0         0
         0         0         0         0         0         0         0         0
         0         0         0         0         0         0         0         0
         0         0         0         0         0         0         0         0
         0         0         0         0         0         0         0         0
         0         0         0         0         0         0         0         0
         0         0         0         0         0         0         0         0
         0         0         0         0         0         0         0         0
         0         0         0         0         0         0         0         0
         0         0         0         0         0         0         0         0
         0         0         0         0         0         0         0         0
         0         0         0         0         0         0         0         0
         0         0         0         0         0         0         0         0
         0         0         0         0         0         0         0         0
         0         0         0         0         0         0         0         0
         0         0         0         0         0         0         0         0
         0         0         0         0         0         0         0         0
         0         0         0         0         0         0         0         0
         0         0         0         0         0         0         0         0
         0         0         0         0         0         0         0         0
         0         0         0         0         0         0         0         0
         0         0         0         0         0         0         0         0
         0         0         0         0         0         0         0         0
         0         0         0         0         0         0         0         0
         0         0         0         0         0         0         0         0
         0         0         0         0         0         0         0         0
         0         0         0         0         0         0         0         0
         0         0         0         0         0         0         0         0
         0         0         0         0         0         0         0         0
         0         0         0         0         0         0         0         0
         0         0         0         0         0         0         0         0
         0         0         0         0         0         0         0         0
         0         0         0         0         0         0         0         0
         0         0         0         0         0         0         0         0
         0         0         0         0         0         0         0         0
         0         0         0         0         0         0         0         0
         0         0         0         0         0         0         0         0
         0         0         0         0         0         0         0         0
         0         0         0         0         0         0         0         0
         0         0         0         0         0         0         0         0
         0         0         0         0         0         0         0         0
         0         0         0         0         0         0         0         0
         0         0         0         0         0         0         0         0
         0         0         0         0         0         0         0         0
         0         0         0         0         0         0         0         0
         0         0         0         0         0         0         0         0
         0         0         0         0         0         0         0         0
         0         0         0         0         0         0         0         0
         0         0         0         0         0         0         0         0
         0         0         0         0         0         0         0         0
         0         0         0         0         0         0         0         0
         0         0         0         0         0         0         0         0
         0         0         0         0         0         0         0         0
         0         0         0         0         0         0         0         0
         0         0         0         0         0         0         0         0
         0         0         0         0         0         0         0         0
         0         0         0         0         0         0         0         0
         0         0         0         0         0         0         0         0
         0         0         0         0         0         0         0         0
         0         0         0         0         0         0         0         0
         0         0         0         0         0         0         0         0
         0         0         0         0         0         0         0         0
         0         0         0         0         0         0         0         0
         0         0         0         0         0         0         0         0
         0         0         0         0         0         0         0         0
         0         0         0         0         0         0         0         0
         0         0         0         0         0         0         0         0
         0         0         0         0         0         0         0         0
         0         0         0         0         0         0         0         0
         0         0         0         0         0         0         0         0
         0         0         0         0         0         0         0         0
         0         0         0         0         0         0         0         0
         0         0         0         0         0         0         0         0
         0         0         0         0         0         0         0         0
         0         0         0         0         0         0         0         0
         0         0         0         0         0         0         0         0
         0         0         0         0         0         0         0         0
         0         0         0         0         0         0         0         0
         0         0         0         0         0         0         0         0
         0         0         0         0         0         0         0         0
         0         0         0         0         0         0         0         0
         0         0         0         0         0         0         0         0
         0         0         0         0         0         0         0         0
         0         0         0         0         0         0         0         0
         0         0         0         0         0         0         0         0
         0         0         0         0         0         0         0         0
         0         0         0         0         0         0         0         0
         0         0         0         0         0         0         0         0
         0         0         0         0         0         0         0         0
         0         0         0         0         0         0         0         0
         0         0         0         0         0         0         0         0
         0         0         0         0         0         0         0         0
         0         0         0         0         0         0         0         0
         0         0         0         0         0         0         0         0
         0         0         0         0         0         0         0         0
         0         0         0         0         0         0         0         0
         0         0         0         0         0         0         0         0
         0         0         0         0         0         0         0         0
         0         0         0         0         0         0         0         0
         0         0         0         0         0         0         0         0
         0         0         0         0         0         0         0         0
         0         0         0         0         0         0         0         0
         0         0         0         0         0         0         0         0
         0         0         0         0         0         0         0         0
         0         0         0         0         0         0         0         0
         0         0         0         0         0         0         0         0
         0         0         0         0         0         0         0         0
         0         0         0         0         0         0         0         0
         0         0         0         0         0         0         0         0
         0         0         0         0         0         0         0         0
         0         0         0         0         0         0         0         0
         0         0         0         0         0         0         0         0
         0         0         0         0         0         0         0         0
         0         0         0         0         0         0         0         0
         0         0         0         0         0         0         0         0
         0         0         0         0         0         0         0         0
         0         0         0         0         0         0         0         0
         0         0         0         0         0         0         0         0
         0         0         0         0         0         0         0         0
         0         0         0         0         0         0         0         0
         0         0         0         0         0         0         0         0
         0         0         0         0         0         0         0         0
         0         0         0         0         0         0         0         0
         0         0         0         0         0         0         0         0
         0         0         0         0         0         0         0         0
         0         0         0         0         0         0         0         0
         0         0         0         0         0         0         0         0
         0         0         0         0         0         0         0         0
         0         0         0         0         0         0         0         0
         0         0         0         0         0         0         0         0
         0         0         0         0         0         0         0         0
         0         0         0         0         0         0         0         0
         0         0         0         0         0         0         0         0
         0         0         0         0         0         0         0         0
         0         0         0         0         0         0         0         0
         0         0         0         0         0         0         0         0
         0         0         0         0         0         0         0         0
         0         0         0         0         0         0         0         0
         0         0         0         0         0         0         0         0
         0         0         0         0         0         0         0         0
         0         0         0         0         0         0         0         0
         0         0         0         0         0         0         0         0
         0         0         0         0         0         0         0         0
         0         0         0         0         0         0         0         0
         0         0         0         0         0         0         0         0
         0         0         0         0         0         0         0         0
         0         0         0         0         0         0         0         0
         0         0         0         0         0         0         0         0
         0         0         0         0         0         0         0         0
         0         0         0         0         0         0         0         0
         0         0         0         0         0         0         0         0
         0         0         0         0         0         0         0         0
         0         0         0         0         0         0         0         0
         0         0         0         0         0         0         0         0
         0         0         0         0         0         0         0         0
         0         0         0         0         0         0         0         0
         0         0         0         0         0         0         0         0
         0         0         0         0         0         0         0         0
         0         0         0         0         0         0         0         0
         0         0         0         0         0         0         0         0
         0         0         0         0         0         0         0         0
         0         0         0         0         0         0         0         0
         0         0         0         0         0         0         0         0
         0         0         0         0         0         0         0         0
         0         0         0         0         0         0         0         0
         0         0         0         0         0         0         0         0
         0         0         0         0         0         0         0         0
         0         0         0         0         0         0         0         0
         0         0         0         0         0         0         0         0
         0         0         0         0         0         0         0         0
         0         0         0         0         0         0         0         0
         0         0         0         0         0         0         0         0
         0         0         0         0         0         0         0         0
         0         0         0         0         0         0         0         0
         0         0         0         0         0         0         0         0
         0         0         0         0         0         0         0         0
         0         0         0         0         0         0         0         0
         0         0         0         0         0         0         0         0
         0         0         0         0         0         0         0         0
         0         0         0         0         0         0         0         0
         0         0         0         0         0         0         0         0
         0         0         0         0         0         0         0         0
         0         0         0         0         0         0         0         0
         0         0         0         0         0         0         0         0
         0         0         0         0         0         0         0         0
         0         0         0         0         0         0         0         0
         0         0         0         0         0         0         0         0
         0         0         0         0         0         0         0         0
         0         0         0         0         0         0         0         0
         0         0         0         0         0         0         0         0
         0         0         0         0         0         0         0         0
         0         0         0         0         0         0         0         0
         0         0         0         0         0         0         0         0
         0         0         0         0         0         0         0         0
         0         0         0         0         0         0         0         0
         0         0         0         0         0         0         0         0
         0         0         0         0         0         0         0         0
         0         0         0         0         0         0         0         0
         0         0         0         0         0         0         0         0
         0         0         0         0         0         0         0         0
         0         0         0         0         0         0         0         0
         0         0         0         0         0         0         0         0
         0         0         0         0         0         0         0         0
         0         0         0         0         0         0         0         0
         0         0         0         0         0         0         0         0
         0         0         0         0         0         0         0         0
         0         0         0         0         0         0         0         0
         0         0         0         0         0         0         0         0
         0         0         0         0         0         0         0         0
         0         0         0         0         0         0         0         0
         0         0         0         0         0         0         0         0
         0         0         0         0         0         0         0         0
         0         0         0         0         0         0         0         0
         0         0         0         0         0         0         0         0
         0         0         0         0         0         0         0         0
         0         0         0         0         0         0         0         0
         0         0         0         0         0         0         0         0
         0         0         0         0         0         0         0         0
         0         0         0         0         0         0         0         0
         0         0         0         0         0         0         0         0
         0         0         0         0         0         0         0         0
         0         0         0         0         0         0         0         0
         0         0         0         0         0         0         0         0
         0         0         0         0         0         0         0         0
         0         0         0         0         0         0         0         0
         0         0         0         0         0         0         0         0
         0         0         0         0         0         0         0         0
         0         0         0         0         0         0         0         0
         0         0         0         0         0         0         0         0
         0         0         0         0         0         0         0         0
         0         0         0         0         0         0         0         0
         0         0         0         0         0         0         0         0
         0         0         0         0         0         0         0         0
         0         0         0         0         0         0         0         0
         0         0         0         0         0         0         0         0
         0         0         0         0         0         0         0         0
         0         0         0         0         0         0         0         0
         0         0         0         0         0         0         0         0
         0         0         0         0         0         0         0         0
         0         0         0         0         0         0         0         0
         0         0         0         0         0         0         0         0
         0         0         0         0         0         0         0         0
         0         0         0         0         0         0         0         0
         0         0         0         0         0         0         0         0
         0         0         0         0         0         0         0         0
         0         0         0         0         0         0         0         0
         0         0         0         0         0         0         0         0
         0         0         0         0         0         0         0         0
         0         0         0         0         0         0         0         0
         0         0         0         0         0         0         0         0
         0         0         0         0         0         0         0         0
         0         0         0         0         0         0         0         0
         0         0         0         0         0         0         0         0
         0         0         0         0         0         0         0         0
         0         0         0         0         0         0         0         0
         0         0         0         0         0         0         0         0
         0         0         0         0         0         0         0         0
         0         0         0         0         0         0         0         0
         0         0         0         0         0         0         0         0
         0         0         0         0         0         0         0         0
         0         0         0         0         0         0         0         0
         0         0         0         0         0         0         0         0
         0         0         0         0         0         0         0         0
         0         0         0         0         0         0         0         0
         0         0         0         0         0         0         0         0
         0         0         0         0         0         0         0         0
         0         0         0         0         0         0         0         0
         0         0         0         0         0         0         0         0
         0         0         0         0         0         0         0         0
         0         0         0         0         0         0         0         0
         0         0         0         0         0         0         0         0
         0         0         0         0         0         0         0         0
         0         0         0         0         0         0         0         0
         0         0         0         0         0         0         0         0
         0         0         0         0         0         0         0         0
         0         0         0         0         0         0         0         0
         0         0         0         0         0         0         0         0
         0         0         0         0         0         0         0         0
         0         0         0         0         0         0         0         0
         0         0         0         0         0         0         0         0
         0         0         0         0         0         0         0         0
         0         0         0         0         0         0         0         0
         0         0         0         0         0         0         0         0
         0         0         0         0         0         0         0         0
         0         0         0         0         0         0         0         0
         0         0         0         0         0         0         0         0
         0         0         0         0         0         0         0         0
         0         0         0         0         0         0         0         0
         0         0         0         0         0         0         0         0
         0         0         0         0         0         0         0         0
         0         0         0         0         0         0         0         0
         0         0         0         0         0         0         0         0
         0         0         0         0         0         0         0         0
         0         0         0         0         0         0         0         0
         0         0         0         0         0         0         0         0
         0         0         0         0         0         0         0         0
         0         0         0         0         0         0         0         0
         0         0         0         0         0         0         0         0
         0         0         0         0         0         0         0         0
         0         0         0         0         0         0         0         0
         0         0         0         0         0         0         0         0
         0         0         0         0         0         0         0         0
         0         0         0         0         0         0         0         0
         0         0         0         0         0         0         0         0
         0         0         0         0         0         0         0         0
         0         0         0         0         0         0         0         0
         0         0         0         0         0         0         0         0
         0         0         0         0         0         0         0         0
         0         0         0         0         0         0         0         0
         0         0         0         0         0         0         0         0
         0         0         0         0         0         0         0         0
         0         0         0         0         0         0         0         0
         0         0         0         0         0         0         0         0
         0         0         0         0         0         0         0         0
         0         0         0         0         0         0         0         0
         0         0         0         0         0         0         0         0
         0         0         0         0         0         0         0         0
         0         0         0         0         0         0         0         0
         0         0         0         0         0         0         0         0
         0         0         0         0         0         0         0         0
         0         0         0         0         0         0         0         0
         0         0         0         0         0         0         0         0
         0         0         0         0         0         0         0         0
         0         0         0         0         0         0         0         0
         0         0         0         0         0         0         0         0
         0         0         0         0         0         0         0         0
         0         0         0         0         0         0         0         0
         0         0         0         0         0         0         0         0
         0         0         0         0         0         0         0         0
         0         0         0         0         0         0         0         0
         0         0         0         0         0         0         0         0
         0         0         0         0         0         0         0         0
         0         0         0         0         0         0         0         0
         0         0         0         0         0         0         0         0
         0         0         0         0         0         0         0         0
         0         0         0         0         0         0         0         0
         0         0         0         0         0         0         0         0
         0         0         0         0         0         0         0         0
         0         0         0         0         0         0         0         0
         0         0         0         0         0         0         0         0
         0         0         0         0         0         0         0         0
         0         0         0         0         0         0         0         0
         0         0         0         0         0         0         0         0
         0         0         0         0         0         0         0         0
         0         0         0         0         0         0         0         0
         0         0         0         0         0         0         0         0
         0         0         0         0         0         0         0         0
         0         0         0         0         0         0         0         0
         0         0         0         0         0         0         0         0
         0         0         0         0         0         0         0         0
         0         0         0         0         0         0         0         0
         0         0         0         0         0         0         0         0
         0         0         0         0         0         0         0         0
         0         0         0         0         0         0         0         0
         0         0         0         0         0         0         0         0
         0         0         0         0         0         0         0         0
         0         0         0         0         0         0         0         0
         0         0         0         0         0         0         0         0
         0         0         0         0         0         0         0         0
         0         0         0         0         0         0         0         0
         0         0         0         0         0         0         0         0
         0         0         0         0         0         0         0         0
         0         0         0         0         0         0         0         0
         0         0         0         0         0         0         0         0
         0         0         0         0         0         0         0         0
         0         0         0         0         0         0         0         0
         0         0         0         0         0         0         0         0
         0         0         0         0         0         0         0         0
         0         0         0         0         0         0         0         0
         0         0         0         0         0         0         0         0
         0         0         0         0         0         0         0         0
         0         0         0         0         0         0         0         0
         0         0         0         0         0         0         0         0
         0         0         0         0         0         0         0         0
         0         0         0         0         0         0         0         0
         0         0         0         0         0         0         0         0
         0         0         0         0         0         0         0         0
         0         0         0         0         0         0         0         0
         0         0         0         0         0         0         0         0
         0         0         0         0         0         0         0         0
         0         0         0         0         0         0         0         0
         0         0         0         0         0         0         0         0
         0         0         0         0         0         0         0         0
         0         0         0         0         0         0         0         0
         0         0         0         0         0         0         0         0
         0         0         0         0         0         0         0         0
         0         0         0         0         0         0         0         0
         0         0         0         0         0         0         0         0
         0         0         0         0         0         0         0         0
         0         0         0         0         0         0         0         0
         0         0         0         0         0         0         0         0
         0         0         0         0         0         0         0         0
         0         0         0         0         0         0         0         0
         0         0         0         0         0         0         0         0
         0         0         0         0         0         0         0         0
         0         0         0         0         0         0         0         0
         0         0         0         0         0         0         0         0
         0         0         0         0         0         0         0         0
         0         0         0         0         0         0         0         0
         0         0         0         0         0         0         0         0
         0         0         0         0         0         0         0         0
         0         0         0         0         0         0         0         0
         0         0         0         0         0         0         0         0
         0         0         0         0         0         0         0         0
         0         0         0         0         0         0         0         0
         0         0         0         0         0         0         0         0
         0         0         0         0         0         0         0         0
         0         0         0         0         0         0         0         0
         0         0         0         0         0         0         0         0
         0         0         0         0         0         0         0         0
         0         0         0         0         0         0         0         0
         0         0         0         0         0         0         0         0
         0         0         0         0         0         0         0         0
         0         0         0         0         0         0         0         0
         0         0         0         0         0         0         0         0
         0         0         0         0         0         0         0         0
         0         0         0         0         0         0         0         0
         0         0         0         0         0         0         0         0
         0         0         0         0         0         0         0         0
         0         0         0         0         0         0         0         0
         0         0         0         0         0         0         0         0
         0         0         0         0         0         0         0         0
         0         0         0         0         0         0         0         0
         0         0         0         0         0         0         0         0
         0         0         0         0         0         0         0         0
         0         0         0         0         0         0         0         0
         0         0         0         0         0         0         0         0
         0         0         0         0         0         0         0         0
         0         0         0         0         0         0         0         0
         0         0         0         0         0         0         0         0
         0         0         0         0         0         0         0         0
         0         0         0         0         0         0         0         0
         0         0         0         0         0         0         0         0
         0         0         0         0         0         0         0         0
         0         0         0         0         0         0         0         0
         0         0         0         0         0         0         0         0
         0         0         0         0         0         0         0         0
         0         0         0         0         0         0         0         0
         0         0         0         0         0         0         0         0
         0         0         0         0         0         0         0         0
         0         0         0         0         0         0         0         0
         0         0         0         0         0         0         0         0
         0         0         0         0         0         0         0         0
         0         0         0         0         0         0         0         0
         0         0         0         0         0         0         0         0
         0         0         0         0         0         0         0         0
         0         0         0         0         0         0         0         0
         0         0         0         0         0         0         0         0
         0         0         0         0         0         0         0         0
         0         0         0         0         0         0         0         0
         0         0         0         0         0         0         0         0
         0         0         0         0         0         0         0         0
         0         0         0         0         0         0         0         0
         0         0         0         0         0         0         0         0
         0         0         0         0         0         0         0         0
         0         0         0         0         0         0         0         0
         0         0         0         0         0         0         0         0
         0         0         0         0         0         0         0         0
         0         0         0         0         0         0         0         0
         0         0         0         0         0         0         0         0
         0         0         0         0         0         0         0         0
         0         0         0         0         0         0         0         0
         0         0         0         0         0         0         0         0
         0         0         0         0         0         0         0         0
         0         0         0         0         0         0         0         0
         0         0         0         0         0         0         0         0
         0         0         0         0         0         0         0         0
         0         0         0         0         0         0         0         0
         0         0         0         0         0         0         0         0
         0         0         0         0         0         0         0         0
         0         0         0         0         0         0         0         0
         0         0         0         0         0         0         0         0
         0         0         0         0         0         0         0         0
         0         0         0         0         0         0         0         0
         0         0         0         0         0         0         0         0
         0         0         0         0         0         0         0         0
         0         0         0         0         0         0         0         0
         0         0         0         0         0         0         0         0
         0         0         0         0         0         0         0         0
         0         0         0         0         0         0         0         0
         0         0         0         0         0         0         0         0
         0         0         0         0         0         0         0         0
         0         0         0         0         0         0         0         0
         0         0         0         0         0         0         0         0
         0         0         0         0         0         0         0         0
         0         0         0         0         0         0         0         0
         0         0         0         0         0         0         0         0
         0         0         0         0         0         0         0         0
         0         0         0         0         0         0         0         0
         0         0         0         0         0         0         0         0
         0         0         0         0         0         0         0         0
         0         0         0         0         0         0         0         0
         0         0         0         0         0         0         0         0
         0         0         0         0         0         0         0         0
         0         0         0         0         0         0         0         0
         0         0         0         0         0         0         0         0
         0         0         0         0         0         0         0         0
         0         0         0         0         0         0         0         0
         0         0         0         0         0         0         0         0
         0         0         0         0         0         0         0         0
         0         0         0         0         0         0         0         0
         0         0         0         0         0         0         0         0
         0         0         0         0         0         0         0         0
         0         0         0         0         0         0         0         0
         0         0         0         0         0         0         0         0
         0         0         0         0         0         0         0         0
         0         0         0         0         0         0         0         0
         0         0         0         0         0         0         0         0
         0         0         0         0         0         0         0         0
         0         0         0         0         0         0         0         0
         0         0         0         0         0         0         0         0
         0         0         0         0         0         0         0         0
         0         0         0         0         0         0         0         0
         0         0         0         0         0         0         0         0
         0         0         0         0         0         0         0         0
         0         0         0         0         0         0         0         0
         0         0         0         0         0         0         0         0
         0         0         0         0         0         0         0         0
         0         0         0         0         0         0         0         0
         0         0         0         0         0         0         0         0
         0         0         0         0         0         0         0         0
         0         0         0         0         0         0         0         0
         0         0         0         0         0         0         0         0
         0         0         0         0         0         0         0         0
         0         0         0         0         0         0         0         0
         0         0         0         0         0         0         0         0
         0         0         0         0         0         0         0         0
         0         0         0         0         0         0         0         0
         0         0         0         0         0         0         0         0
         0         0         0         0         0         0         0         0
         0         0         0         0         0         0         0         0
         0         0         0         0         0         0         0         0
         0         0         0         0         0         0         0         0
         0         0         0         0         0         0         0         0
         0         0         0         0         0         0         0         0
         0         0         0         0         0         0         0         0
         0         0         0         0         0         0         0         0
         0         0         0         0         0         0         0         0
         0         0         0         0         0         0         0         0
         0         0         0         0         0         0         0         0
         0         0         0         0         0         0         0         0
         0         0         0         0         0         0         0         0
         0         0         0         0         0         0         0         0
         0         0         0         0         0         0         0         0
         0         0         0         0         0         0         0         0
         0         0         0         0         0         0         0         0
         0         0         0         0         0         0         0         0
         0         0         0         0         0         0         0         0
         0         0         0         0         0         0         0         0
         0         0         0         0         0         0         0         0
         0         0         0         0         0         0         0         0
         0         0         0         0         0         0         0         0
         0         0         0         0         0         0         0         0
         0         0         0         0         0         0         0         0
         0         0         0         0         0         0         0         0
         0         0         0         0         0         0         0         0
         0         0         0         0         0         0         0         0
         0         0         0         0         0         0         0         0
         0         0         0         0         0         0         0         0
         0         0         0         0         0         0         0         0
         0         0         0         0         0         0         0         0
         0         0         0         0         0         0         0         0
         0         0         0         0         0         0         0         0
         0         0         0         0         0         0         0         0
         0         0         0         0         0         0         0         0
         0         0         0         0         0         0         0         0
         0         0         0         0         0         0         0         0
         0         0         0         0         0         0         0         0
         0         0         0         0         0         0         0         0
         0         0         0         0         0         0         0         0
         0         0         0         0         0         0         0         0
         0         0         0         0         0         0         0         0
         0         0         0         0         0         0         0         0
         0         0         0         0         0         0         0         0
         0         0         0         0         0         0         0         0
         0         0         0         0         0         0         0         0
         0         0         0         0         0         0         0         0
         0         0         0         0         0         0         0         0
         0         0         0         0         0         0         0         0
         0         0         0         0         0         0         0         0
         0         0         0         0         0         0         0         0
         0         0         0         0         0         0         0         0
         0         0         0         0         0         0         0         0
         0         0         0         0         0         0         0         0
         0         0         0         0         0         0         0         0
         0         0         0         0         0         0         0         0
         0         0         0         0         0         0         0         0
         0         0         0         0         0         0         0         0
         0         0         0         0         0         0         0         0
         0         0         0         0         0         0         0         0
         0         0         0         0         0         0         0         0
         0         0         0         0         0         0         0         0
         0         0         0         0         0         0         0         0
         0         0         0         0         0         0         0         0
         0         0         0         0         0         0         0         0
         0         0         0         0         0         0         0         0
         0         0         0         0         0         0         0         0
         0         0         0         0         0         0         0         0
         0         0         0         0         0         0         0         0
         0         0         0         0         0         0         0         0
         0         0         0         0         0         0         0         0
         0         0         0         0         0         0         0         0
         0         0         0         0         0         0         0         0
         0         0         0         0         0         0         0         0
         0         0         0         0         0         0         0         0
         0         0         0         0         0         0         0         0
         0         0         0         0         0         0         0         0
         0         0         0         0         0         0         0         0
         0         0         0         0         0         0         0         0
         0         0         0         0         0         0         0         0
         0         0         0         0         0         0         0         0
         0         0         0         0         0         0         0         0
         0         0         0         0         0         0         0         0
         0         0         0         0         0         0         0         0
         0         0         0         0         0         0         0         0
         0         0         0         0         0         0         0         0
         0         0         0         0         0         0         0         0
         0         0         0         0         0         0         0         0
         0         0         0         0         0         0         0         0
         0         0         0         0         0         0         0         0
         0         0         0         0         0         0         0         0
         0         0         0         0         0         0         0         0
         0         0         0         0         0         0         0         0
         0         0         0         0         0         0         0         0
         0         0         0         0         0         0         0         0
         0         0         0         0         0         0         0         0
         0         0         0         0         0         0         0         0
         0         0         0         0         0         0         0         0
         0         0         0         0         0         0         0         0
         0         0         0         0         0         0         0         0
         0         0         0         0         0         0         0         0
         0         0         0         0         0         0         0         0
         0         0         0         0         0         0         0         0
         0         0         0         0         0         0         0         0
         0         0         0         0         0         0         0         0
         0         0         0         0         0         0         0         0
         0         0         0         0         0         0         0         0
         0         0         0         0         0         0         0         0
         0         0         0         0         0         0         0         0
         0         0         0         0         0         0         0         0
         0         0         0         0         0         0         0         0
         0         0         0         0         0         0         0         0
         0         0         0         0         0         0         0         0
         0         0         0         0         0         0         0         0
         0         0         0         0         0         0         0         0
         0         0         0         0         0         0         0         0
         0         0         0         0         0         0         0         0
         0         0         0         0         0         0         0         0
         0         0         0         0         0         0         0         0
         0         0         0         0         0         0         0         0
         0         0         0         0         0         0         0         0
         0         0         0         0         0         0         0         0
         0         0         0         0         0         0         0         0
         0         0         0         0         0         0         0         0
         0         0         0         0         0         0         0         0
         0         0         0         0         0         0         0         0
         0         0         0         0         0         0         0         0
         0         0         0         0         0         0         0         0
         0         0         0         0         0         0         0         0
         0         0         0         0         0         0         0         0
         0         0         0         0         0         0         0         0
         0         0         0         0         0         0         0         0
         0         0         0         0         0         0         0         0
         0         0         0         0         0         0         0         0
         0         0         0         0         0         0         0         0
         0         0         0         0         0         0         0         0
         0         0         0         0         0         0         0         0
         0         0         0         0         0         0         0         0
         0         0         0         0         0         0         0         0
         0         0         0         0         0         0         0         0
         0         0         0         0         0         0         0         0
         0         0         0         0         0         0         0         0
         0         0         0         0         0         0         0         0
         0         0         0         0         0         0         0         0
         0         0         0         0         0         0         0         0
         0         0         0         0         0         0         0         0
         0         0         0         0         0         0         0         0
         0         0         0         0         0         0         0         0
         0         0         0         0         0         0         0         0
         0         0         0         0         0         0         0         0
         0         0         0         0         0         0         0         0
         0         0         0         0         0         0         0         0
         0         0         0         0         0         0         0         0
         0         0         0         0         0         0         0         0
         0         0         0         0         0         0         0         0
         0         0         0         0         0         0         0         0
         0         0         0         0         0         0         0         0
         0         0         0         0         0         0         0         0
         0         0         0         0         0         0         0         0
         0         0         0         0         0         0         0         0
         0         0         0         0         0         0         0         0
         0         0         0         0         0         0         0         0
         0         0         0         0         0         0         0         0
         0         0         0         0         0         0         0         0
         0         0         0         0         0         0         0         0
         0         0         0         0         0         0         0         0
         0         0         0         0         0         0         0         0
         0         0         0         0         0         0         0         0
         0         0         0         0         0         0         0         0
         0         0         0         0         0         0         0         0
         0         0         0         0         0         0         0         0
         0         0         0         0         0         0         0         0
         0         0         0         0         0         0         0         0
         0         0         0         0         0         0         0         0
         0         0         0         0         0         0         0         0
         0         0         0         0         0         0         0         0
         0         0         0         0         0         0         0         0
         0         0         0         0         0         0         0         0
         0         0         0         0         0         0         0         0
         0         0         0         0         0         0         0         0
         0         0         0         0         0         0         0         0
         0         0         0         0         0         0         0         0
         0         0         0         0         0         0         0         0
         0         0         0         0         0         0         0         0
         0         0         0         0         0         0         0         0
         0         0         0         0         0         0         0         0
         0         0         0         0         0         0         0         0
         0         0         0         0         0         0         0         0
         0         0         0         0         0         0         0         0
         0         0         0         0         0         0         0         0
         0         0         0         0         0         0         0         0
         0         0         0         0         0         0         0         0
         0         0         0         0         0         0         0         0
         0         0         0         0         0         0         0         0
         0         0         0         0         0         0         0         0
         0         0         0         0         0         0         0         0
         0         0         0         0         0         0         0         0
         0         0         0         0         0         0         0         0
         0         0         0         0         0         0         0         0
         0         0         0         0         0         0         0         0
         0         0         0         0         0         0         0         0
         0         0         0         0         0         0         0         0
         0         0         0         0         0         0         0         0
         0         0         0         0         0         0         0         0
         0         0         0         0         0         0         0         0
         0         0         0         0         0         0         0         0
         0         0         0         0         0         0         0         0
         0         0         0         0         0         0         0         0
         0         0         0         0         0         0         0         0
         0         0         0         0         0         0         0         0
         0         0         0         0         0         0         0         0
         0         0         0         0         0         0         0         0
         0         0         0         0         0         0         0         0
         0         0         0         0         0         0         0         0
         0         0         0         0         0         0         0         0
         0         0         0         0         0         0         0         0
         0         0         0         0         0         0         0         0
         0         0         0         0         0         0         0         0
         0         0         0         0         0         0         0         0
         0         0         0         0         0         0         0         0
         0         0         0         0         0         0         0         0
         0         0         0         0         0         0         0         0
         0         0         0         0         0         0         0         0
         0         0         0         0         0         0         0         0
         0         0         0         0         0         0         0         0
         0         0         0         0         0         0         0         0
         0         0         0         0         0         0         0         0
         0         0         0         0         0         0         0         0
         0         0         0         0         0         0         0         0
         0         0         0         0         0         0         0         0
         0         0         0         0         0         0         0         0
         0         0         0         0         0         0         0         0
         0         0         0         0         0         0         0         0
         0         0         0         0         0         0         0         0
         0         0         0         0         0         0         0         0
         0         0         0         0         0         0         0         0
         0         0         0         0         0         0         0         0
         0         0         0         0         0         0         0         0
         0         0         0         0         0         0         0         0
         0         0         0         0         0         0         0         0
         0         0         0         0         0         0         0         0
         0         0         0         0         0         0         0         0
         0         0         0         0         0         0         0         0
         0         0         0         0         0         0         0         0
         0         0         0         0         0         0         0         0
         0         0         0         0         0         0         0         0
         0         0         0         0         0         0         0         0
         0         0         0         0         0         0         0         0
         0         0         0         0         0         0         0         0
         0         0         0         0         0         0         0         0
         0         0         0         0         0         0         0         0
         0         0         0         0         0         0         0         0
         0         0         0         0         0         0         0         0
         0         0         0         0         0         0         0         0
         0         0         0         0         0         0         0         0
         0         0         0         0         0         0         0         0
         0         0         0         0         0         0         0         0
         0         0         0         0         0         0         0         0
         0         0         0         0         0         0         0         0
         0         0         0         0         0         0         0         0
         0         0         0         0         0         0         0         0
         0         0         0         0         0         0         0         0
         0         0         0         0         0         0         0         0
         0         0         0         0         0         0         0         0
         0         0         0         0         0         0         0         0
         0         0         0         0         0         0         0         0
         0         0         0         0         0         0         0         0
         0         0         0         0         0         0         0         0
         0         0         0         0         0         0         0         0
         0         0         0         0         0         0         0         0
         0         0         0         0         0         0         0         0
         0         0         0         0         0         0         0         0
         0         0         0         0         0         0         0         0
         0         0         0         0         0         0         0         0
         0         0         0         0         0         0         0         0
         0         0         0         0         0         0         0         0
         0         0         0         0         0         0         0         0
         0         0         0         0         0         0         0         0
         0         0         0         0         0         0         0         0
         0         0         0         0         0         0         0         0
         0         0         0         0         0         0         0         0
         0         0         0         0         0         0         0         0
         0         0         0         0         0         0         0         0
         0         0         0         0         0         0         0         0
         0         0         0         0         0         0         0         0
         0         0         0         0         0         0         0         0
         0         0         0         0         0         0         0         0
         0         0         0         0         0         0         0         0
         0         0         0         0         0         0         0         0
         0         0         0         0         0         0         0         0
         0         0         0         0         0         0         0         0
         0         0         0         0         0         0         0         0
         0         0         0         0         0         0         0         0
         0         0         0         0         0         0         0         0
         0         0         0         0         0         0         0         0
         0         0         0         0         0         0         0         0
         0         0         0         0         0         0         0         0
         0         0         0         0         0         0         0         0
         0         0         0         0         0         0         0         0
         0         0         0         0         0         0         0         0
         0         0         0         0         0         0         0         0
         0         0         0         0         0         0         0         0
         0         0         0         0         0         0         0         0
         0         0         0         0         0         0         0         0
         0         0         0         0         0         0         0         0
         0         0         0         0         0         0         0         0
         0         0         0         0         0         0         0         0
         0         0         0         0         0         0         0         0
         0         0         0         0         0         0         0         0
         0         0         0         0         0         0         0         0
         0         0         0         0         0         0         0         0
         0         0         0         0         0         0         0         0
         0         0         0         0         0         0         0         0
         0         0         0         0         0         0         0         0
         0         0         0         0         0         0         0         0
         0         0         0         0         0         0         0         0
         0         0         0         0         0         0         0         0
         0         0         0         0         0         0         0         0
         0         0         0         0         0         0         0         0
         0         0         0         0         0         0         0         0
         0         0         0         0         0         0         0         0
         0         0         0         0         0         0         0         0
         0         0         0         0         0         0         0         0
         0         0         0         0         0         0         0         0
         0         0         0         0         0         0         0         0
         0         0         0         0         0         0         0         0
         0         0         0         0         0         0         0         0
         0         0         0         0         0         0         0         0
         0         0         0         0         0         0         0         0
         0         0         0         0         0         0         0         0
         0         0         0         0         0         0         0         0
         0         0         0         0         0         0         0         0
         0         0         0         0         0         0         0         0
         0         0         0         0         0         0         0         0
         0         0         0         0         0         0         0         0
         0         0         0         0         0         0         0         0
         0         0         0         0         0         0         0         0
         0         0         0         0         0         0         0         0
         0         0         0         0         0         0         0         0
         0         0         0         0         0         0         0         0
         0         0         0         0         0         0         0         0
         0         0         0         0         0         0         0         0
         0         0         0         0         0         0         0         0
         0         0         0         0         0         0         0         0
         0         0         0         0         0         0         0         0
         0         0         0         0         0         0         0         0
         0         0         0         0         0         0         0         0
         0         0         0         0         0         0         0         0
         0         0         0         0         0         0         0         0
         0         0         0         0         0         0         0         0
         0         0         0         0         0         0         0         0
         0         0         0         0         0         0         0         0
         0         0         0         0         0         0         0         0
         0         0         0         0         0         0         0         0
         0         0         0         0         0         0         0         0
         0         0         0         0         0         0         0         0
         0         0         0         0         0         0         0         0
         0         0         0         0         0         0         0         0
         0         0         0         0         0         0         0         0
         0         0         0         0         0         0         0         0
         0         0         0         0         0         0         0         0
         0         0         0         0         0         0         0         0
         0         0         0         0         0         0         0         0
         0         0         0         0         0         0         0         0
         0         0         0         0         0         0         0         0
         0         0         0         0         0         0         0         0
         0         0         0         0         0         0         0         0
         0         0         0         0         0         0         0         0
         0         0         0         0         0         0         0         0
         0         0         0         0         0         0         0         0
         0         0         0         0         0         0         0         0
         0         0         0         0         0         0         0         0
         0         0         0         0         0         0         0         0
         0         0         0         0         0         0         0         0
         0         0         0         0         0         0         0         0
         0         0         0         0         0         0         0         0
         0         0         0         0         0         0         0         0
         0         0         0         0         0         0         0         0
         0         0         0         0         0         0         0         0
         0         0         0         0         0         0         0         0
         0         0         0         0         0         0         0         0
         0         0         0         0         0         0         0         0
         0         0         0         0         0         0         0         0
         0         0         0         0         0         0         0         0
         0         0         0         0         0         0         0         0
         0         0         0         0         0         0         0         0
         0         0         0         0         0         0         0         0
         0         0         0         0         0         0         0         0
         0         0         0         0         0         0         0         0
         0         0         0         0         0         0         0         0
         0         0         0         0         0         0         0         0
         0         0         0         0         0         0         0         0
         0         0         0         0         0         0         0         0
         0         0         0         0         0         0         0         0
         0         0         0         0         0         0         0         0
         0         0         0         0         0         0         0         0
         0         0         0         0         0         0         0         0
         0         0         0         0         0         0         0         0
         0         0         0         0         0         0         0         0
         0         0         0         0         0         0         0         0
         0         0         0         0         0         0         0         0
         0         0         0         0         0         0         0         0
         0         0         0         0         0         0         0         0
         0         0         0         0         0         0         0         0
         0         0         0         0         0         0         0         0
         0         0         0         0         0         0         0         0
         0         0         0         0         0         0         0         0
         0         0         0         0         0         0         0         0
         0         0         0         0         0         0         0         0
         0         0         0         0         0         0         0         0
         0         0         0         0         0         0         0         0
         0         0         0         0         0         0         0         0
         0         0         0         0         0         0         0         0
         0         0         0         0         0         0         0         0
         0         0         0         0         0         0         0         0
         0         0         0         0         0         0         0         0
         0         0         0         0         0         0         0         0
         0         0         0         0         0         0         0         0
         0         0         0         0         0         0         0         0
         0         0         0         0         0         0         0         0
         0         0         0         0         0         0         0         0
         0         0         0         0         0         0         0         0
         0         0         0         0         0         0         0         0
         0         0         0         0         0         0         0         0
         0         0         0         0         0         0         0         0
         0         0         0         0         0         0         0         0
         0         0         0         0         0         0         0         0
         0         0         0         0         0         0         0         0
         0         0         0         0         0         0         0         0
         0         0         0         0         0         0         0         0
         0         0         0         0         0         0         0         0
         0         0         0         0         0         0         0         0
         0         0         0         0         0         0         0         0
         0         0         0         0         0         0         0         0
         0         0         0         0         0         0         0         0
         0         0         0         0         0         0         0         0
         0         0         0         0         0         0         0         0
         0         0         0         0         0         0         0         0
         0         0         0         0         0         0         0         0
         0         0         0         0         0         0         0         0
         0         0         0         0         0         0         0         0
         0         0         0         0         0         0         0         0
         0         0         0         0         0         0         0         0
         0         0         0         0         0         0         0         0
         0         0         0         0         0         0         0         0
         0         0         0         0         0         0         0         0
         0         0         0         0         0         0         0         0
         0         0         0         0         0         0         0         0
         0         0         0         0         0         0         0         0
         0         0         0         0         0         0         0         0
         0         0         0         0         0         0         0         0
         0         0         0         0         0         0         0         0
         0         0         0         0         0         0         0         0
         0         0         0         0         0         0         0         0
         0         0         0         0         0         0         0         0
         0         0         0         0         0         0         0         0
         0         0         0         0         0         0         0         0
         0         0         0         0         0         0         0         0
         0         0         0         0         0         0         0         0
         0         0         0         0         0         0         0         0
         0         0         0         0         0         0         0         0
         0         0         0         0         0         0         0         0
         0         0         0         0         0         0         0         0
         0         0         0         0         0         0         0         0
         0         0         0         0         0         0         0         0
         0         0         0         0         0         0         0         0
         0         0         0         0         0         0         0         0
         0         0         0         0         0         0         0         0
         0         0         0         0         0         0         0         0
         0         0         0         0         0         0         0         0
         0         0         0         0         0         0         0         0
         0         0         0         0         0         0         0         0
         0         0         0         0         0         0         0         0
         0         0         0         0         0         0         0         0
         0         0         0         0         0         0         0         0
         0         0         0         0         0         0         0         0
         0         0         0         0         0         0         0         0
         0         0         0         0         0         0         0         0
         0         0         0         0         0         0         0         0
         0         0         0         0         0         0         0         0
         0         0         0         0         0         0         0         0
         0         0         0         0         0         0         0         0
         0         0         0         0         0         0         0         0
         0         0         0         0         0         0         0         0
         0         0         0         0         0         0         0         0
         0         0         0         0         0         0         0         0
         0         0         0         0         0         0         0         0
         0         0         0         0         0         0         0         0
         0         0         0         0         0         0         0         0
         0         0         0         0         0         0         0         0
         0         0         0         0         0         0         0         0
         0         0         0         0         0         0         0         0
         0         0         0         0         0         0         0         0
         0         0         0         0         0         0         0         0
         0         0         0         0         0         0         0         0
         0         0         0         0         0         0         0         0
         0         0         0         0         0         0         0         0
         0         0         0         0         0         0         0         0
         0         0         0         0         0         0         0         0
         0         0         0         0         0         0         0         0
         0         0         0         0         0         0         0         0
         0         0         0         0         0         0         0         0
         0         0         0         0         0         0         0         0
         0         0         0         0         0         0         0         0
         0         0         0         0         0         0         0         0
         0         0         0         0         0         0         0         0
         0         0         0         0         0         0         0         0
         0         0         0         0         0         0         0         0
         0         0         0         0         0         0         0         0
         0         0         0         0         0         0         0         0
         0         0         0         0         0         0         0         0
         0         0         0         0         0         0         0         0
         0         0         0         0         0         0         0         0
         0         0         0         0         0         0         0         0
         0         0         0         0         0         0         0         0
         0         0         0         0         0         0         0         0
         0         0         0         0         0         0         0         0
         0         0         0         0         0         0         0         0
         0         0         0         0         0         0         0         0
         0         0         0         0         0         0         0         0
         0         0         0         0         0         0         0         0
         0         0         0         0         0         0         0         0
         0         0         0         0         0         0         0         0
         0         0         0         0         0         0         0         0
         0         0         0         0         0         0         0         0
         0         0         0         0         0         0         0         0
         0         0         0         0         0         0         0         0
         0         0         0         0         0         0         0         0
         0         0         0         0         0         0         0         0
         0         0         0         0         0         0         0         0
         0         0         0         0         0         0         0         0
         0         0         0         0         0         0         0         0
         0         0         0         0         0         0         0         0
         0         0         0         0         0         0         0         0
         0         0         0         0         0         0         0         0
         0         0         0         0         0         0         0         0
         0         0         0         0         0         0         0         0
         0         0         0         0         0         0         0         0
         0         0         0         0         0         0         0         0
         0         0         0         0         0         0         0         0
         0         0         0         0         0         0         0         0
         0         0         0         0         0         0         0         0
         0         0         0         0         0         0         0         0
         0         0         0         0         0         0         0         0
         0         0         0         0         0         0         0         0
         0         0         0         0         0         0         0         0
         0         0         0         0         0         0         0         0
         0         0         0         0         0         0         0         0
         0         0         0         0         0         0         0         0
         0         0         0         0         0         0         0         0
         0         0         0         0         0         0         0         0
         0         0         0         0         0         0         0         0
         0         0         0         0         0         0         0         0
         0         0         0         0         0         0         0         0
         0         0         0         0         0         0         0         0
         0         0         0         0         0         0         0         0
         0         0         0         0         0         0         0         0
         0         0         0         0         0         0         0         0
         0         0         0         0         0         0         0         0
         0         0         0         0         0         0         0         0
         0         0         0         0         0         0         0         0
         0         0         0         0         0         0         0         0
         0         0         0         0         0         0         0         0
         0         0         0         0         0         0         0         0
         0         0         0         0         0         0         0         0
         0         0         0         0         0         0         0         0
         0         0         0         0         0         0         0         0
         0         0         0         0         0         0         0         0
         0         0         0         0         0         0         0         0
         0         0         0         0         0         0         0         0
         0         0         0         0         0         0         0         0
         0         0         0         0         0         0         0         0
         0         0         0         0         0         0         0         0
         0         0         0         0         0         0         0         0
         0         0         0         0         0         0         0         0
         0         0         0         0         0         0         0         0
         0         0         0         0         0         0         0         0
         0         0         0         0         0         0         0         0
         0         0         0         0         0         0         0         0
         0         0         0         0         0         0         0         0
         0         0         0         0         0         0         0         0
         0         0         0         0         0         0         0         0
         0         0         0         0         0         0         0         0
         0         0         0         0         0         0         0         0
         0         0         0         0         0         0         0         0
         0         0         0         0         0         0         0         0
         0         0         0         0         0         0         0         0
         0         0         0         0         0         0         0         0
         0         0         0         0         0         0         0         0
         0         0         0         0         0         0         0         0
         0         0         0         0         0         0         0         0
         0         0         0         0         0         0         0         0
         0         0         0         0         0         0         0         0
         0         0         0         0         0         0         0         0
         0         0         0         0         0         0         0         0
         0         0         0         0         0         0         0         0
         0         0         0         0         0         0         0         0
         0         0         0         0         0         0         0         0
         0         0         0         0         0         0         0         0
         0         0         0         0         0         0         0         0
         0         0         0         0         0         0         0         0
         0         0         0         0         0         0         0         0
         0         0         0         0         0         0         0         0
         0         0         0         0         0         0         0         0
         0         0         0         0         0         0         0         0
         0         0         0         0         0         0         0         0
         0         0         0         0         0         0         0         0
         0         0         0         0         0         0         0         0
         0         0         0         0         0         0         0         0
         0         0         0         0         0         0         0         0
         0         0         0         0         0         0         0         0
         0         0         0         0         0         0         0         0
         0         0         0         0         0         0         0         0
         0         0         0         0         0         0         0         0
         0         0         0         0         0         0         0         0
         0         0         0         0         0         0         0         0
         0         0         0         0         0         0         0         0
         0         0         0         0         0         0         0         0
         0         0         0         0         0         0         0         0
         0         0         0         0         0         0         0         0
         0         0         0         0         0         0         0         0
         0         0         0         0         0         0         0         0
         0         0         0         0         0         0         0         0
         0         0         0         0         0         0         0         0
         0         0         0         0         0         0         0         0
         0         0         0         0         0         0         0         0
         0         0         0         0         0         0         0         0
         0         0         0         0         0         0         0         0
         0         0         0         0         0         0         0         0
         0         0         0         0         0         0         0         0
         0         0         0         0         0         0         0         0
         0         0         0         0         0         0         0         0
         0         0         0         0         0         0         0         0
         0         0         0         0         0         0         0         0
         0         0         0         0         0         0         0         0
         0         0         0         0         0         0         0         0
         0         0         0         0         0         0         0         0
         0         0         0         0         0         0         0         0
         0         0         0         0         0         0         0         0
         0         0         0         0         0         0         0         0
         0         0         0         0         0         0         0         0
         0         0         0         0         0         0         0         0
         0         0         0         0         0         0         0         0
         0         0         0         0         0         0         0         0
         0         0         0         0         0         0         0         0
         0         0         0         0         0         0         0         0
         0         0         0         0         0         0         0         0
         0         0         0         0         0         0         0         0
         0         0         0         0         0         0         0         0
         0         0         0         0         0         0         0         0
         0         0         0         0         0         0         0         0
         0         0         0         0         0         0         0         0
         0         0         0         0         0         0         0         0
         0         0         0         0         0         0         0         0
         0         0         0         0         0         0         0         0
         0         0         0         0         0         0         0         0
         0         0         0         0         0         0         0         0
         0         0         0         0         0         0         0         0
         0         0         0         0         0         0         0         0
         0         0         0         0         0         0         0         0
         0         0         0         0         0         0         0         0
         0         0         0         0         0         0         0         0
         0         0         0         0         0         0         0         0
         0         0         0         0         0         0         0         0
         0         0         0         0         0         0         0         0
         0         0         0         0         0         0         0         0
         0         0         0         0         0         0         0         0
         0         0         0         0         0         0         0         0
         0         0         0         0         0         0         0         0
         0         0         0         0         0         0         0         0
         0         0         0         0         0         0         0         0
         0         0         0         0         0         0         0         0
         0         0         0         0         0         0         0         0
         0         0         0         0         0         0         0         0
         0         0         0         0         0         0         0         0
         0         0         0         0         0         0         0         0
         0         0         0         0         0         0         0         0
         0         0         0         0         0         0         0         0
         0         0         0         0         0         0         0         0
         0         0         0         0         0         0         0         0
         0         0         0         0         0         0         0         0

      1000         0 !NGRP NST2
         0         2         0        20         2         0        40         2         0
        60         2         0        80         2         0       100         2         0
       120         2         0       140         2         0       160         2         0
       180         2         0       200         2         0       220         2         0
       240         2         0       260         2         0       280         2         0
       300         2         0       320         2         0       340         2         0
       360         2         0       380         2         0       400         2         0
       420         2         0       440         2         0       460         2         0
       480         2         0       500         2         0       520         2         0
       540         2         0       560         2         0       580         2         0
       600         2         0       620         2         0       640         2         0
       660         2         0       680         2         0       700         2         0
       720         2         0       740         2         0       760         2         0
       780         2         0       800         2         0       820         2         0
       840         2         0       860         2         0       880         2         0
       900         2         0       920         2         0       940         2         0
       960         2         0       980         2         0      1000         2         0
      1020         2         0      1040         2         0      1060         2         0
      1080         2         0      1100         2         0      1120         2         0
      1140         2         0      1160         2         0      1180         2         0
      1200         2         0      1220         2         0      1240         2         0
      1260         2         0      1280         2         0      1300         2         0
      1320         2         0      1340         2         0      1360         2         0
      1380         2         0      1400         2         0      1420         2         0
      1440         2         0      1460         2         0      1480         2         0
      1500         2         0      1520         2         0      1540         2         0
      1560         2         0      1580         2         0      1600         2         0
      1620         2         0      1640         2         0      1660         2         0
      1680         2         0      1700         2         0      1720         2         0
      1740         2         0      1760         2         0      1780         2         0
      1800         2         0      1820         2         0      1840         2         0
      1860         2         0      1880         2         0      1900         2         0
      1920         2         0      1940         2         0      1960         2         0
      1980         2         0      2000         2         0      2020         2         0
      2040         2         0      2060         2         0      2080         2         0
      2100         2         0      2120         2         0      2140         2         0
      2160         2         0      2180         2         0      2200         2         0
      2220         2         0      2240         2         0      2260         2         0
      2280         2         0      2300         2         0      2320         2         0
      2340         2         0      2360         2         0      2380         2         0
      2400         2         0      2420         2         0      2440         2         0
      2460         2         0      2480         2         0      2500         2         0
      2520         2         0      2540         2         0      2560         2         0
      2580         2         0      2600         2         0      2620         2         0
      2640         2         0      2660         2         0      2680         2         0
      2700         2         0      2720         2         0      2740         2         0
      2760         2         0      2780         2         0      2800         2         0
      2820         2         0      2840         2         0      2860         2         0
      2880         2         0      2900         2         0      2920         2         0
      2940         2         0      2960         2         0      2980         2         0
      3000         2         0      3020         2         0      3040         2         0
      3060         2         0      3080         2         0      3100         2         0
      3120         2         0      3140         2         0      3160         2         0
      3180         2         0      3200         2         0      3220         2         0
      3240         2         0      3260         2         0      3280         2         0
      3300         2         0      3320         2         0      3340         2         0
      3360         2         0      3380         2         0      3400         2         0
      3420         2         0      3440         2         0      3460         2         0
      3480         2         0      3500         2         0      3520         2         0
      3540         2         0      3560         2         0      3580         2         0
      3600         2         0      3620         2         0      3640         2         0
      3660         2         0      3680         2         0      3700         2         0
      3720         2         0      3740         2         0      3760         2         0
      3780         2         0      3800         2         0      3820         2         0
      3840         2         0      3860         2         0      3880         2         0
      3900         2         0      3920         2         0      3940         2         0
      3960         2         0      3980         2         0      4000         2         0
      4020         2         0      4040         2         0      4060         2         0
      4080         2         0      4100         2         0      4120         2         0
      4140         2         0      4160         2         0      4180         2         0
      4200         2         0      4220         2         0      4240         2         0
      4260         2         0      4280         2         0      4300         2         0
      4320         2         0      4340         2         0      4360         2         0
      4380         2         0      4400         2         0      4420         2         0
      4440         2         0      4460         2         0      4480         2         0
      4500         2         0      4520         2         0      4540         2         0
      4560         2         0      4580         2         0      4600         2         0
      4620         2         0      4640         2         0      4660         2         0
      4680         2         0      4700         2         0      4720         2         0
      4740         2         0      4760         2         0      4780         2         0
      4800         2         0      4820         2         0      4840         2         0
      4860         2         0      4880         2         0      4900         2         0
      4920         2         0      4940         2         0      4960         2         0
      4980         2         0      5000         2         0      5020         2         0
      5040         2         0      5060         2         0      5080         2         0
      5100         2         0      5120         2         0      5140         2         0
      5160         2         0      5180         2         0      5200         2         0
      5220         2         0      5240         2         0      5260         2         0
      5280         2         0      5300         2         0      5320         2         0
      5340         2         0      5360         2         0      5380         2         0
      5400         2         0      5420         2         0      5440         2         0
      5460         2         0      5480         2         0      5500         2         0
      5520         2         0      5540         2         0      5560         2         0
      5580         2         0      5600         2         0      5620         2         0
      5640         2         0      5660         2         0      5680         2         0
      5700         2         0      5720         2         0      5740         2         0
      5760         2         0      5780         2         0      5800         2         0
      5816         2         0      5832         2         0      5848         2         0
      5864         2         0      5880         2         0      5896         2         0
      5912         2         0      5928         2         0      5944         2         0
      5960         2         0      5976         2         0      5992         2         0
      6008         2         0      6024         2         0      6040         2         0
      6056         2         0      6072         2         0      6088         2         0
      6104         2         0      6120         2         0      6136         2         0
      6152         2         0      6168         2         0      6184         2         0
      6200         2         0      6216         2         0      6232         2         0
      6248         2         0      6264         2         0      6280         2         0
      6296         2         0      6312         2         0      6328         2         0
      6344         2         0      6360         2         0      6376         2         0
      6392         2         0      6408         2         0      6424         2         0
      6440         2         0      6456         2         0      6472         2         0
      6488         2         0      6504         2         0      6520         2         0
      6536         2         0      6552         2         0      6568         2         0
      6584         2         0      6600         2         0      6616         2         0
      6632         2         0      6648         2         0      6664         2         0
      6680         2         0      6696         2         0      6712         2         0
      6728         2         0      6744         2         0      6760         2         0
      6776         2         0      6792         2         0      6808         2         0
      6824         2         0      6840         2         0      6856         2         0
      6872         2         0      6888         2         0      6904         2         0
      6920         2         0      6936         2         0      6952         2         0
      6968         2         0      6984         2         0      7000         2         0
      7016         2         0      7032         2         0      7048         2         0
      7064         2         0      7080         2         0      7096         2         0
      7112         2         0      7128         2         0      7144         2         0
      7160         2         0      7176         2         0      7192         2         0
      7208         2         0      7224         2         0      7240         1         0
      7260         1         0      7280         1         0      7300         1         0
      7320         1         0      7340         1         0      7360         1         0
      7380         1         0      7400         1         0      7420         1         0
      7440         1         0      7460         1         0      7480         1         0
      7500         1         0      7520         1         0      7540         1         0
      7560         1         0      7580         1         0      7600         1         0
      7620         1         0      7640         1         0      7660         1         0
      7680         1         0      7700         1         0      7720         1         0
      7740         1         0      7760         1         0      7780         1         0
      7800         1         0      7820         1         0      7840         1         0
      7860         1         0      7880         1         0      7900         1         0
      7920         1         0      7940         1         0      7960         1         0
      7980         1         0      8000         1         0      8020         1         0
      8040         1         0      8060         1         0      8080         1         0
      8100         1         0      8120         1         0      8140         1         0
      8160         1         0      8180         1         0      8200         1         0
      8220         1         0      8240         1         0      8260         1         0
      8280         1         0      8300         1         0      8320         1         0
      8340         1         0      8360         1         0      8380         1         0
      8400         1         0      8420         1         0      8440         1         0
      8460         1         0      8480         1         0      8500         1         0
      8520         1         0      8540         1         0      8560         1         0
      8580         1         0      8600         1         0      8620         1         0
      8640         1         0      8660         1         0      8680         1         0
      8700         1         0      8720         1         0      8740         1         0
      8760         1         0      8780         1         0      8800         1         0
      8820         1         0      8840         1         0      8860         1         0
      8880         1         0      8900         1         0      8920         1         0
      8940         1         0      8960         1         0      8980         1         0
      9000         1         0      9020         1         0      9040         1         0
      9060         1         0      9080         1         0      9100         1         0
      9120         1         0      9140         1         0      9160         1         0
      9180         1         0      9200         1         0      9220         1         0
      9240         1         0      9260         1         0      9280         1         0
      9300         1         0      9320         1         0      9340         1         0
      9360         1         0      9380         1         0      9400         1         0
      9420         1         0      9440         1         0      9460         1         0
      9480         1         0      9500         1         0      9520         1         0
      9540         1         0      9560         1         0      9580         1         0
      9600         1         0      9620         1         0      9640         1         0
      9660         1         0      9680         1         0      9700         1         0
      9720         1         0      9740         1         0      9760         1         0
      9780         1         0      9800         1         0      9820         1         0
      9840         1         0      9860         1         0      9880         1         0
      9900         1         0      9920         1         0      9940         1         0
      9960         1         0      9980         1         0     10000         1         0
     10020         1         0     10040         1         0     10060         1         0
     10080         1         0     10100         1         0     10120         1         0
     10140         1         0     10160         1         0     10180         1         0
     10200         1         0     10220         1         0     10240         1         0
     10260         1         0     10280         1         0     10300         1         0
     10320         1         0     10340         1         0     10360         1         0
     10380         1         0     10400         1         0     10420         1         0
     10440         1         0     10460         1         0     10480         1         0
     10500         1         0     10520         1         0     10540         1         0
     10560         1         0     10580         1         0     10600         1         0
     10620         1         0     10640         1         0     10660         1         0
     10680         1         0     10700         1         0     10720         1         0
     10740         1         0     10760         1         0     10780         1         0
     10800         1         0     10820         1         0     10840         1         0
     10860         1         0     10880         1         0     10900         1         0
     10920         1         0     10940         1         0     10960         1         0
     10980         1         0     11000         1         0     11020         1         0
     11040         1         0     11060         1         0     11080         1         0
     11100         1         0     11120         1         0     11140         1         0
     11160         1         0     11180         1         0     11200         1         0
     11220         1         0     11240         1         0     11260         1         0
     11280         1         0     11300         1         0     11320         1         0
     11340         1         0     11360         1         0     11380         1         0
     11400         1         0     11420         1         0     11440         1         0
     11456         1         0     11472         1         0     11488         1         0
     11504         1         0     11520         1         0     11536         1         0
     11552         1         0     11568         1         0     11584         1         0
     11600         1         0     11616         1         0     11632         1         0
     11648         1         0     11664         1         0     11680         1         0
     11696         1         0     11712         1         0     11728         1         0
     11744         1         0     11760         1         0     11776         1         0
     11792         1         0     11808         1         0     11824         1         0
     11840         1         0     11856         1         0     11872         1         0
     11888         1         0     11904         1         0     11920         1         0
     11936         1         0     11952         1         0     11968         1         0
     11984         1         0     12000         1         0     12016         1         0
     12032         1         0     12048         1         0     12064         1         0
     12080         1         0     12096         1         0     12112         1         0
     12128         1         0     12144         1         0     12160         1         0
     12176         1         0     12192         1         0     12208         1         0
     12224         1         0     12240         1         0     12256         1         0
     12272         1         0     12288         1         0     12304         1         0
     12320         1         0     12336         1         0     12352         1         0
     12368         1         0     12384         1         0     12400         1         0
     12416         1         0     12432         1         0     12448         1         0
     12464         1         0     12480         1         0     12496         1         0
     12512         1         0     12528         1         0     12544         1         0
     12560         1         0     12576         1         0     12592         1         0
     12608         1         0     12624         1         0     12640         1         0
     12656         1         0     12672         1         0     12688         1         0
     12704         1         0     12720         1         0     12736         1         0
     12752         1         0     12768         1         0     12784         1         0
     12800         1         0     12816         1         0     12832         1         0
     12848         1         0     12864         1         0     12880         1         0
     12896         1         0     12912         1         0     12928         1         0
     12944         1         0     12960         1         0     12976         1         0
     12992         1         0     13008         1         0     13024         1         0
     13040         1         0     13056         1         0     13072         1         0
     13088         1         0     13104         1         0     13120         1         0
     13136         1         0     13152         1         0     13168         1         0
     13184         1         0     13200         1         0     13216         1         0
     13232         1         0     13248         1         0     13264         1         0
     13280         1         0     13296         1         0     13312         1         0
     13328         1         0     13344         1         0     13360         1         0
     13376         1         0     13392         1         0     13408         1         0
     13424         1         0     13440         1         0     13456         1         0
     13472         1         0     13488         1         0     13504         1         0
     13520         1         0     13536         1         0     13552         1         0
     13568         1         0     13584         1         0     13600         1         0
     13616         1         0     13632         1         0     13648         1         0
     13664         1         0     13680         1         0     13696         1         0
     13712         1         0     13728         1         0     13744         1         0
     13760         1         0     13776         1         0     13792         1         0
     13808         1         0     13824         1         0     13840         1         0
     13856         1         0     13872         1         0     13888         1         0
     13904         1         0     13920         1         0     13936         1         0
     13952         1         0     13968         1         0     13984         1         0
     14000         1         0     14016         1         0     14032         1         0
     14048         1         0     14064         1         0     14080         1         0
     14096         1         0     14112         1         0     14128         1         0
     14144         1         0     14160         1         0     14176         1         0
     14192         1         0     14208         1         0     14224         1         0
     14240         1         0     14256         1         0     14272         1         0
     14288         1         0     14304         1         0     14320         1         0
     14336         1         0     14352         1         0     14368         1         0
     14384         1         0     14400         1         0     14416         1         0
     14432         1         0     14448         1         0     14464         1         0
     14480         1         0     14496         1         0     14512         1         0
     14528         1         0     14544         1         0     14560         1         0
     14576         1         0     14592         1         0     14608         1         0
     14624         1         0     14640         1         0     14656         1         0
     14672         1         0     14688         1         0     14704         1         0
     14720         1         0     14736         1         0     14752         1         0
     14768         1         0     14784         1         0     14800         2         0
     14817         2         0     14834         2         0     14851         2         0
     14868         2         0     14885         2         0     14902         2         0
     14919         2         0     14936         2         0     14953         2         0
     14970         2         0     14987         2         0     15004         2         0
     15021         2         0     15038         2         0     15055         2         0
     15072         2         0     15089         2         0     15106         2         0
     15123         2         0     15140         2         0     15157         2         0
     15174         2         0     15191         2         0     15208         2         0
     15225         2         0     15242         2         0     15259         2         0
     15276         2         0     15293         2         0     15310         2         0
     15327         2         0     15344         2         0     15361         2         0
     15378         2         0     15395         2         0     15412         2         0
     15429         2         0     15446         2         0     15463         2         0
     15480         2         0     15497         2         0     15514         2         0
     15531         2         0     15548         2         0     15565         2         0
     15582         2         0     15599         2         0     15616         2         0
     15633         2         0     15650         2         0     15667         2         0
     15684         2         0     15701         2         0     15718         2         0
     15735         2         0     15752         2         0     15769         2         0
     15786         2         0     15803         2         0     15820         2         0
     15837         2         0     15854         2         0     15871         2         0
     15888         2         0     15905         2         0     15922         2         0
     15939         2         0     15956         2         0     15973         2         0
     15990         2         0     16007         2         0     16024         2         0
     16041         2         0     16058         2         0     16075         2         0
     16092         2         0     16109         2         0     16126         2         0
     16143         2         0     16160         2         0     16177         2         0
     16194         2         0     16211         2         0     16228         2         0
     16245         2         0     16262         2         0     16279         2         0
     16296         2         0     16313         2         0     16330         2         0
     16347         2         0     16364         2         0     16381         2         0
     16398         2         0     16415         2         0     16432         2         0
     16449         2         0     16466         2         0     16483         2         0
     16500         2         0     16517         2         0     16534         2         0
     16551         2         0     16568         2         0     16585         2         0
     16602         2         0     16619         2         0     16636         2         0
     16653         2         0     16670         2         0     16687         2         0
     16704         2         0     16721         2         0     16738         2         0
     16755         2         0     16772         2         0     16789         2         0
     16806         2         0     16823         2         0     16840         2         0
     16857         2         0     16874         2         0     16891         2         0
     16908         2         0     16925         2         0     16942         2         0
     16959         2         0     16976         2         0     16993         2         0
     17010         2         0     17027         2         0     17044         2         0
     17061         2         0     17078         2         0     17095         2         0
     17112         2         0     17129         2         0     17146         2         0
     17163         2         0     17180         2         0     17197         2         0
     17214         2         0     17231         2         0     17248         2         0
     17265         2         0     17282         2         0     17299         2         0
     17316         2         0     17333         2         0     17350         2         0
     17367         2         0     17384         2         0     17401         2         0
     17418         2         0     17435         2         0     17452         2         0
     17469         2         0     17486         2         0     17503         2         0
     17520         2         0     17537         2         0     17554         2         0
     17571         2         0     17588         2         0     17605         2         0
     17622         2         0     17639         2         0     17656         2         0
     17673         2         0     17690         2         0     17707         2         0
     17724         2         0     17741         2         0     17758         2         0
     17775         2         0     17792         2         0     17809         2         0
     17826         2         0     17843         2         0     17860         2         0
     17877         2         0     17894         2         0     17911         2         0
     17928         2         0     17945         2         0     17962         2         0
     17979         2         0     17996         2         0     18013         2         0
     18030         2         0     18047         2         0     18064         2         0
     18081         2         0     18098         2         0     18115         2         0
     18132         2         0     18149         2         0     18166         2         0
     18183         2         0

         1 !MOLNT
         1         1         1         1         1         1         1         1
         1         1         1         1         1         1         1         1
         1         1         1         1         1         1         1         1
         1         1         1         1         1         1         1         1
         1         1         1         1         1         1         1         1
         1         1         1         1         1         1         1         1
         1         1         1         1         1         1         1         1
         1         1         1         1         1         1         1         1
         1         1         1         1         1         1         1         1
         1         1         1         1         1         1         1         1
         1         1         1         1         1         1         1         1
         1         1         1         1         1         1         1         1
         1         1         1         1         1         1         1         1
         1         1         1         1         1         1         1         1
         1         1         1         1         1         1         1         1
         1         1         1         1         1         1         1         1
         1         1         1         1         1         1         1         1
         1         1         1         1         1         1         1         1
         1         1         1         1         1         1         1         1
         1         1         1         1         1         1         1         1
         1         1         1         1         1         1         1         1
         1         1         1         1         1         1         1         1
         1         1         1         1         1         1         1         1
         1         1         1         1         1         1         1         1
         1         1         1         1         1         1         1         1
         1         1         1         1         1         1         1         1
         1         1         1         1         1         1         1         1
         1         1         1         1         1         1         1         1
         1         1         1         1         1         1         1         1
         1         1         1         1         1         1         1         1
         1         1         1         1         1         1         1         1
         1         1         1         1         1         1         1         1
         1         1         1         1         1         1         1         1
         1         1         1         1         1         1         1         1
         1         1         1         1         1         1         1         1
         1         1         1         1         1         1         1         1
         1         1         1         1         1         1         1         1
         1         1         1         1         1         1         1         1
         1         1         1         1         1         1         1         1
         1         1         1         1         1         1         1         1
         1         1         1         1         1         1         1         1
         1         1         1         1         1         1         1         1
         1         1         1         1         1         1         1         1
         1         1         1         1         1         1         1         1
         1         1         1         1         1         1         1         1
         1         1         1         1         1         1         1         1
         1         1         1         1         1         1         1         1
         1         1         1         1         1         1         1         1
         1         1         1         1         1         1         1         1
         1         1         1         1         1         1         1         1
         1         1         1         1         1         1         1         1
         1         1         1         1         1         1         1         1
         1         1         1         1         1         1         1         1
         1         1         1         1         1         1         1         1
         1         1         1         1         1         1         1         1
         1         1         1         1         1         1         1         1
         1         1         1         1         1         1         1         1
         1         1         1         1         1         1         1         1
         1         1         1         1         1         1         1         1
         1         1         1         1         1         1         1         1
         1         1         1         1         1         1         1         1
         1         1         1         1         1         1         1         1
         1         1         1         1         1         1         1         1
         1         1         1         1         1         1         1         1
         1         1         1         1         1         1         1         1
         1         1         1         1         1         1         1         1
         1         1         1         1         1         1         1         1
         1         1         1         1         1         1         1         1
         1         1         1         1         1         1         1         1
         1         1         1         1         1         1         1         1
         1         1         1         1         1         1         1         1
         1         1         1         1         1         1         1         1
         1         1         1         1         1         1         1         1
         1         1         1         1         1         1         1         1
         1         1         1         1         1         1         1         1
         1         1         1         1         1         1         1         1
         1         1         1         1         1         1         1         1
         1         1         1         1         1         1         1         1
         1         1         1         1         1         1         1         1
         1         1         1         1         1         1         1         1
         1         1         1         1         1         1         1         1
         1         1         1         1         1         1         1         1
         1         1         1         1         1         1         1         1
         1         1         1         1         1         1         1         1
         1         1         1         1         1         1         1         1
         1         1         1         1         1         1         1         1
         1         1         1         1         1         1         1         1
         1         1         1         1         1         1         1         1
         1         1         1         1         1         1         1         1
         1         1         1         1         1         1         1         1
         1         1         1         1         1         1         1         1
         1         1         1         1         1         1         1         1
         1         1         1         1         1         1         1         1
         1         1         1         1         1         1         1         1
         1         1         1         1         1         1         1         1
         1         1         1         1         1         1         1         1
         1         1         1         1         1         1         1         1
         1         1         1         1         1         1         1         1
         1         1         1         1         1         1         1         1
         1         1         1         1         1         1         1         1
         1         1         1         1         1         1         1         1
         1         1         1         1         1         1         1         1
         1         1         1         1         1         1         1         1
         1         1         1         1         1         1         1         1
         1         1         1         1         1         1         1         1
         1         1         1         1         1         1         1         1
         1         1         1         1         1         1         1         1
         1         1         1         1         1         1         1         1
         1         1         1         1         1         1         1         1
         1         1         1         1         1         1         1         1
         1         1         1         1         1         1         1         1
         1         1         1         1         1         1         1         1
         1         1         1         1         1         1         1         1
         1         1         1         1         1         1         1         1
         1         1         1         1         1         1         1         1
         1         1         1         1         1         1         1         1
         1         1         1         1         1         1         1         1
         1         1         1         1         1         1         1         1
         1         1         1         1         1         1         1         1
         1         1         1         1         1         1         1         1
         1         1         1         1         1         1         1         1
         1         1         1         1         1         1         1         1
         1         1         1         1         1         1         1         1
         1         1         1         1         1         1         1         1
         1         1         1         1         1         1         1         1
         1         1         1         1         1         1         1         1
         1         1         1         1         1         1         1         1
         1         1         1         1         1         1         1         1
         1         1         1         1         1         1         1         1
         1         1         1         1         1         1         1         1
         1         1         1         1         1         1         1         1
         1         1         1         1         1         1         1         1
         1         1         1         1         1         1         1         1
         1         1         1         1         1         1         1         1
         1         1         1         1         1         1         1         1
         1         1         1         1         1         1         1         1
         1         1         1         1         1         1         1         1
         1         1         1         1         1         1         1         1
         1         1         1         1         1         1         1         1
         1         1         1         1         1         1         1         1
         1         1         1         1         1         1         1         1
         1         1         1         1         1         1         1         1
         1         1         1         1         1         1         1         1
         1         1         1         1         1         1         1         1
         1         1         1         1         1         1         1         1
         1         1         1         1         1         1         1         1
         1         1         1         1         1         1         1         1
         1         1         1         1         1         1         1         1
         1         1         1         1         1         1         1         1
         1         1         1         1         1         1         1         1
         1         1         1         1         1         1         1         1
         1         1         1         1         1         1         1         1
         1         1         1         1         1         1         1         1
         1         1         1         1         1         1         1         1
         1         1         1         1         1         1         1         1
         1         1         1         1         1         1         1         1
         1         1         1         1         1         1         1         1
         1         1         1         1         1         1         1         1
         1         1         1         1         1         1         1         1
         1         1         1         1         1         1         1         1
         1         1         1         1         1         1         1         1
         1         1         1         1         1         1         1         1
         1         1         1         1         1         1         1         1
         1         1         1         1         1         1         1         1
         1         1         1         1         1         1         1         1
         1         1         1         1         1         1         1         1
         1         1         1         1         1         1         1         1
         1         1         1         1         1         1         1         1
         1         1         1         1         1         1         1         1
         1         1         1         1         1         1         1         1
         1         1         1         1         1         1         1         1
         1         1         1         1         1         1         1         1
         1         1         1         1         1         1         1         1
         1         1         1         1         1         1         1         1
         1         1         1         1         1         1         1         1
         1         1         1         1         1         1         1         1
         1         1         1         1         1         1         1         1
         1         1         1         1         1         1         1         1
         1         1         1         1         1         1         1         1
         1         1         1         1         1         1         1         1
         1         1         1         1         1         1         1         1
         1         1         1         1         1         1         1         1
         1         1         1         1         1         1         1         1
         1         1         1         1         1         1         1         1
         1         1         1         1         1         1         1         1
         1         1         1         1         1         1         1         1
         1         1         1         1         1         1         1         1
         1         1         1         1         1         1         1         1
         1         1         1         1         1         1         1         1
         1         1         1         1         1         1         1         1
         1         1         1         1         1         1         1         1
         1         1         1         1         1         1         1         1
         1         1         1         1         1         1         1         1
         1         1         1         1         1         1         1         1
         1         1         1         1         1         1         1         1
         1         1         1         1         1         1         1         1
         1         1         1         1         1         1         1         1
         1         1         1         1         1         1         1         1
         1         1         1         1         1         1         1         1
         1         1         1         1         1         1         1         1
         1         1         1         1         1         1         1         1
         1         1         1         1         1         1         1         1
         1         1         1         1         1         1         1         1
         1         1         1         1         1         1         1         1
         1         1         1         1         1         1         1         1
         1         1         1         1         1         1         1         1
         1         1         1         1         1         1         1         1
         1         1         1         1         1         1         1         1
         1         1         1         1         1         1         1         1
         1         1         1         1         1         1         1         1
         1         1         1         1         1         1         1         1
         1         1         1         1         1         1         1         1
         1         1         1         1         1         1         1         1
         1         1         1         1         1         1         1         1
         1         1         1         1         1         1         1         1
         1         1         1         1         1         1         1         1
         1         1         1         1         1         1         1         1
         1         1         1         1         1         1         1         1
         1         1         1         1         1         1         1         1
         1         1         1         1         1         1         1         1
         1         1         1         1         1         1         1         1
         1         1         1         1         1         1         1         1
         1         1         1         1         1         1         1         1
         1         1         1         1         1         1         1         1
         1         1         1         1         1         1         1         1
         1         1         1         1         1         1         1         1
         1         1         1         1         1         1         1         1
         1         1         1         1         1         1         1         1
         1         1         1         1         1         1         1         1
         1         1         1         1         1         1         1         1
         1         1         1         1         1         1         1         1
         1         1         1         1         1         1         1         1
         1         1         1         1         1         1         1         1
         1         1         1         1         1         1         1         1
         1         1         1         1         1         1         1         1
         1         1         1         1         1         1         1         1
         1         1         1         1         1         1         1         1
         1         1         1         1         1         1         1         1
         1         1         1         1         1         1         1         1
         1         1         1         1         1         1         1         1
         1         1         1         1         1         1         1         1
         1         1         1         1         1         1         1         1
         1         1         1         1         1         1         1         1
         1         1         1         1         1         1         1         1
         1         1         1         1         1         1         1         1
         1         1         1         1         1         1         1         1
         1         1         1         1         1         1         1         1
         1         1         1         1         1         1         1         1
         1         1         1         1         1         1         1         1
         1         1         1         1         1         1         1         1
         1         1         1         1         1         1         1         1
         1         1         1         1         1         1         1         1
         1         1         1         1         1         1         1         1
         1         1         1         1         1         1         1         1
         1         1         1         1         1         1         1         1
         1         1         1         1         1         1         1         1
         1         1         1         1         1         1         1         1
         1         1         1         1         1         1         1         1
         1         1         1         1         1         1         1         1
         1         1         1         1         1         1         1         1
         1         1         1         1         1         1         1         1
         1         1         1         1         1         1         1         1
         1         1         1         1         1         1         1         1
         1         1         1         1         1         1         1         1
         1         1         1         1         1         1         1         1
         1         1         1         1         1         1         1         1
         1         1         1         1         1         1         1         1
         1         1         1         1         1         1         1         1
         1         1         1         1         1         1         1         1
         1         1         1         1         1         1         1         1
         1         1         1         1         1         1         1         1
         1         1         1         1         1         1         1         1
         1         1         1         1         1         1         1         1
         1         1         1         1         1         1         1         1
         1         1         1         1         1         1         1         1
         1         1         1         1         1         1         1         1
         1         1         1         1         1         1         1         1
         1         1         1         1         1         1         1         1
         1         1         1         1         1         1         1         1
         1         1         1         1         1         1         1         1
         1         1         1         1         1         1         1         1
         1         1         1         1         1         1         1         1
         1         1         1         1         1         1         1         1
         1         1         1         1         1         1         1         1
         1         1         1         1         1         1         1         1
         1         1         1         1         1         1         1         1
         1         1         1         1         1         1         1         1
         1         1         1         1         1         1         1         1
         1         1         1         1         1         1         1         1
         1         1         1         1         1         1         1         1
         1         1         1         1         1         1         1         1
         1         1         1         1         1         1         1         1
         1         1         1         1         1         1         1         1
         1         1         1         1         1         1         1         1
         1         1         1         1         1         1         1         1
         1         1         1         1         1         1         1         1
         1         1         1         1         1         1         1         1
         1         1         1         1         1         1         1         1
         1         1         1         1         1         1         1         1
         1         1         1         1         1         1         1         1
         1         1         1         1         1         1         1         1
         1         1         1         1         1         1         1         1
         1         1         1         1         1         1         1         1
         1         1         1         1         1         1         1         1
         1         1         1         1         1         1         1         1
         1         1         1         1         1         1         1         1
         1         1         1         1         1         1         1         1
         1         1         1         1         1         1         1         1
         1         1         1         1         1         1         1         1
         1         1         1         1         1         1         1         1
         1         1         1         1         1         1         1         1
         1         1         1         1         1         1         1         1
         1         1         1         1         1         1         1         1
         1         1         1         1         1         1         1         1
         1         1         1         1         1         1         1         1
         1         1         1         1         1         1         1         1
         1         1         1         1         1         1         1         1
         1         1         1         1         1         1         1         1
         1         1         1         1         1         1         1         1
         1         1         1         1         1         1         1         1
         1         1         1         1         1         1         1         1
         1         1         1         1         1         1         1         1
         1         1         1         1         1         1         1         1
         1         1         1         1         1         1         1         1
         1         1         1         1         1         1         1         1
         1         1         1         1         1         1         1         1
         1         1         1         1         1         1         1         1
         1         1         1         1         1         1         1         1
         1         1         1         1         1         1         1         1
         1         1         1         1         1         1         1         1
         1         1         1         1         1         1         1         1
         1         1         1         1         1         1         1         1
         1         1         1         1         1         1         1         1
         1         1         1         1         1         1         1         1
         1         1         1         1         1         1         1         1
         1         1         1         1         1         1         1         1
         1         1         1         1         1         1         1         1
         1         1         1         1         1         1         1         1
         1         1         1         1         1         1         1         1
         1         1         1         1         1         1         1         1
         1         1         1         1         1         1         1         1
         1         1         1         1         1         1         1         1
         1         1         1         1         1         1         1         1
         1         1         1         1         1         1         1         1
         1         1         1         1         1         1         1         1
         1         1         1         1         1         1         1         1
         1         1         1         1         1         1         1         1
         1         1         1         1         1         1         1         1
         1         1         1         1         1         1         1         1
         1         1         1         1         1         1         1         1
         1         1         1         1         1         1         1         1
         1         1         1         1         1         1         1         1
         1         1         1         1         1         1         1         1
         1         1         1         1         1         1         1         1
         1         1         1         1         1         1         1         1
         1         1         1         1         1         1         1         1
         1         1         1         1         1         1         1         1
         1         1         1         1         1         1         1         1
         1         1         1         1         1         1         1         1
         1         1         1         1         1         1         1         1
         1         1         1         1         1         1         1         1
         1         1         1         1         1         1         1         1
         1         1         1         1         1         1         1         1
         1         1         1         1         1         1         1         1
         1         1         1         1         1         1         1         1
         1         1         1         1         1         1         1         1
         1         1         1         1         1         1         1         1
         1         1         1         1         1         1         1         1
         1         1         1         1         1         1         1         1
         1         1         1         1         1         1         1         1
         1         1         1         1         1         1         1         1
         1         1         1         1         1         1         1         1
         1         1         1         1         1         1         1         1
         1         1         1         1         1         1         1         1
         1         1         1         1         1         1         1         1
         1         1         1         1         1         1         1         1
         1         1         1         1         1         1         1         1
         1         1         1         1         1         1         1         1
         1         1         1         1         1         1         1         1
         1         1         1         1         1         1         1         1
         1         1         1         1         1         1         1         1
         1         1         1         1         1         1         1         1
         1         1         1         1         1         1         1         1
         1         1         1         1         1         1         1         1
         1         1         1         1         1         1         1         1
         1         1         1         1         1         1         1         1
         1         1         1         1         1         1         1         1
         1         1         1         1         1         1         1         1
         1         1         1         1         1         1         1         1
         1         1         1         1         1         1         1         1
         1         1         1         1         1         1         1         1
         1         1         1         1         1         1         1         1
         1         1         1         1         1         1         1         1
         1         1         1         1         1         1         1         1
         1         1         1         1         1         1         1         1
         1         1         1         1         1         1         1         1
         1         1         1         1         1         1         1         1
         1         1         1         1         1         1         1         1
         1         1         1         1         1         1         1         1
         1         1         1         1         1         1         1         1
         1         1         1         1         1         1         1         1
         1         1         1         1         1         1         1         1
         1         1         1         1         1         1         1         1
         1         1         1         1         1         1         1         1
         1         1         1         1         1         1         1         1
         1         1         1         1         1         1         1         1
         1         1         1         1         1         1         1         1
         1         1         1         1         1         1         1         1
         1         1         1         1         1         1         1         1
         1         1         1         1         1         1         1         1
         1         1         1         1         1         1         1         1
         1         1         1         1         1         1         1         1
         1         1         1         1         1         1         1         1
         1         1         1         1         1         1         1         1
         1         1         1         1         1         1         1         1
         1         1         1         1         1         1         1         1
         1         1         1         1         1         1         1         1
         1         1         1         1         1         1         1         1
         1         1         1         1         1         1         1         1
         1         1         1         1         1         1         1         1
         1         1         1         1         1         1         1         1
         1         1         1         1         1         1         1         1
         1         1         1         1         1         1         1         1
         1         1         1         1         1         1         1         1
         1         1         1         1         1         1         1         1
         1         1         1         1         1         1         1         1
         1         1         1         1         1         1         1         1
         1         1         1         1         1         1         1         1
         1         1         1         1         1         1         1         1
         1         1         1         1         1         1         1         1
         1         1         1         1         1         1         1         1
         1         1         1         1         1         1         1         1
         1         1         1         1         1         1         1         1
         1         1         1         1         1         1         1         1
         1         1         1         1         1         1         1         1
         1         1         1         1         1         1         1         1
         1         1         1         1         1         1         1         1
         1         1         1         1         1         1         1         1
         1         1         1         1         1         1         1         1
         1         1         1         1         1         1         1         1
         1         1         1         1         1         1         1         1
         1         1         1         1         1         1         1         1
         1         1         1         1         1         1         1         1
         1         1         1         1         1         1         1         1
         1         1         1         1         1         1         1         1
         1         1         1         1         1         1         1         1
         1         1         1         1         1         1         1         1
         1         1         1         1         1         1         1         1
         1         1         1         1         1         1         1         1
         1         1         1         1         1         1         1         1
         1         1         1         1         1         1         1         1
         1         1         1         1         1         1         1         1
         1         1         1         1         1         1         1         1
         1         1         1         1         1         1         1         1
         1         1         1         1         1         1         1         1
         1         1         1         1         1         1         1         1
         1         1         1         1         1         1         1         1
         1         1         1         1         1         1         1         1
         1         1         1         1         1         1         1         1
         1         1         1         1         1         1         1         1
         1         1         1         1         1         1         1         1
         1         1         1         1         1         1         1         1
         1         1         1         1         1         1         1         1
         1         1         1         1         1         1         1         1
         1         1         1         1         1         1         1         1
         1         1         1         1         1         1         1         1
         1         1         1         1         1         1         1         1
         1         1         1         1         1         1         1         1
         1         1         1         1         1         1         1         1
         1         1         1         1         1         1         1         1
         1         1         1         1         1         1         1         1
         1         1         1         1         1         1         1         1
         1         1         1         1         1         1         1         1
         1         1         1         1         1         1         1         1
         1         1         1         1         1         1         1         1
         1         1         1         1         1         1         1         1
         1         1         1         1         1         1         1         1
         1         1         1         1         1         1         1         1
         1         1         1         1         1         1         1         1
         1         1         1         1         1         1         1         1
         1         1         1         1         1         1         1         1
         1         1         1         1         1         1         1         1
         1         1         1         1         1         1         1         1
         1         1         1         1         1         1         1         1
         1         1         1         1         1         1         1         1
         1         1         1         1         1         1         1         1
         1         1         1         1         1         1         1         1
         1         1         1         1         1         1         1         1
         1         1         1         1         1         1         1         1
         1         1         1         1         1         1         1         1
         1         1         1         1         1         1         1         1
         1         1         1         1         1         1         1         1
         1         1         1         1         1         1         1         1
         1         1         1         1         1         1         1         1
         1         1         1         1         1         1         1         1
         1         1         1         1         1         1         1         1
         1         1         1         1         1         1         1         1
         1         1         1         1         1         1         1         1
         1         1         1         1         1         1         1         1
         1         1         1         1         1         1         1         1
         1         1         1         1         1         1         1         1
         1         1         1         1         1         1         1         1
         1         1         1         1         1         1         1         1
         1         1         1         1         1         1         1         1
         1         1         1         1         1         1         1         1
         1         1         1         1         1         1         1         1
         1         1         1         1         1         1         1         1
         1         1         1         1         1         1         1         1
         1         1         1         1         1         1         1         1
         1         1         1         1         1         1         1         1
         1         1         1         1         1         1         1         1
         1         1         1         1         1         1         1         1
         1         1         1         1         1         1         1         1
         1         1         1         1         1         1         1         1
         1         1         1         1         1         1         1         1
         1         1         1         1         1         1         1         1
         1         1         1         1         1         1         1         1
         1         1         1         1         1         1         1         1
         1         1         1         1         1         1         1         1
         1         1         1         1         1         1         1         1
         1         1         1         1         1         1         1         1
         1         1         1         1         1         1         1         1
         1         1         1         1         1         1         1         1
         1         1         1         1         1         1         1         1
         1         1         1         1         1         1         1         1
         1         1         1         1         1         1         1         1
         1         1         1         1         1         1         1         1
         1         1         1         1         1         1         1         1
         1         1         1         1         1         1         1         1
         1         1         1         1         1         1         1         1
         1         1         1         1         1         1         1         1
         1         1         1         1         1         1         1         1
         1         1         1         1         1         1         1         1
         1         1         1         1         1         1         1         1
         1         1         1         1         1         1         1         1
         1         1         1         1         1         1         1         1
         1         1         1         1         1         1         1         1
         1         1         1         1         1         1         1         1
         1         1         1         1         1         1         1         1
         1         1         1         1         1         1         1         1
         1         1         1         1         1         1         1         1
         1         1         1         1         1         1         1         1
         1         1         1         1         1         1         1         1
         1         1         1         1         1         1         1         1
         1         1         1         1         1         1         1         1
         1         1         1         1         1         1         1         1
         1         1         1         1         1         1         1         1
         1         1         1         1         1         1         1         1
         1         1         1         1         1         1         1         1
         1         1         1         1         1         1         1         1
         1         1         1         1         1         1         1         1
         1         1         1         1         1         1         1         1
         1         1         1         1         1         1         1         1
         1         1         1         1         1         1         1         1
         1         1         1         1         1         1         1         1
         1         1         1         1         1         1         1         1
         1         1         1         1         1         1         1         1
         1         1         1         1         1         1         1         1
         1         1         1         1         1         1         1         1
         1         1         1         1         1         1         1         1
         1         1         1         1         1         1         1         1
         1         1         1         1         1         1         1         1
         1         1         1         1         1         1         1         1
         1         1         1         1         1         1         1         1
         1         1         1         1         1         1         1         1
         1         1         1         1         1         1         1         1
         1         1         1         1         1         1         1         1
         1         1         1         1         1         1         1         1
         1         1         1         1         1         1         1         1
         1         1         1         1         1         1         1         1
         1         1         1         1         1         1         1         1
         1         1         1         1         1         1         1         1
         1         1         1         1         1         1         1         1
         1         1         1         1         1         1         1         1
         1         1         1         1         1         1         1         1
         1         1         1         1         1         1         1         1
         1         1         1         1         1         1         1         1
         1         1         1         1         1         1         1         1
         1         1         1         1         1         1         1         1
         1         1         1         1         1         1         1         1
         1         1         1         1         1         1         1         1
         1         1         1         1         1         1         1         1
         1         1         1         1         1         1         1         1
         1         1         1         1         1         1         1         1
         1         1         1         1         1         1         1         1
         1         1         1         1         1         1         1         1
         1         1         1         1         1         1         1         1
         1         1         1         1         1         1         1         1
         1         1         1         1         1         1         1         1
         1         1         1         1         1         1         1         1
         1         1         1         1         1         1         1         1
         1         1         1         1         1         1         1         1
         1         1         1         1         1         1         1         1
         1         1         1         1         1         1         1         1
         1         1         1         1         1         1         1         1
         1         1         1         1         1         1         1         1
         1         1         1         1         1         1         1         1
         1         1         1         1         1         1         1         1
         1         1         1         1         1         1         1         1
         1         1         1         1         1         1         1         1
         1         1         1         1         1         1         1         1
         1         1         1         1         1         1         1         1
         1         1         1         1         1         1         1         1
         1         1         1         1         1         1         1         1
         1         1         1         1         1         1         1         1
         1         1         1         1         1         1         1         1
         1         1         1         1         1         1         1         1
         1         1         1         1         1         1         1         1
         1         1         1         1         1         1         1         1
         1         1         1         1         1         1         1         1
         1         1         1         1         1         1         1         1
         1         1         1         1         1         1         1         1
         1         1         1         1         1         1         1         1
         1         1         1         1         1         1         1         1
         1         1         1         1         1         1         1         1
         1         1         1         1         1         1         1         1
         1         1         1         1         1         1         1         1
         1         1         1         1         1         1         1         1
         1         1         1         1         1         1         1         1
         1         1         1         1         1         1         1         1
         1         1         1         1         1         1         1         1
         1         1         1         1         1         1         1         1
         1         1         1         1         1         1         1         1
         1         1         1         1         1         1         1         1
         1         1         1         1         1         1         1         1
         1         1         1         1         1         1         1         1
         1         1         1         1         1         1         1         1
         1         1         1         1         1         1         1         1
         1         1         1         1         1         1         1         1
         1         1         1         1         1         1         1         1
         1         1         1         1         1         1         1         1
         1         1         1         1         1         1         1         1
         1         1         1         1         1         1         1         1
         1         1         1         1         1         1         1         1
         1         1         1         1         1         1         1         1
         1         1         1         1         1         1         1         1
         1         1         1         1         1         1         1         1
         1         1         1         1         1         1         1         1
         1         1         1         1         1         1         1         1
         1         1         1         1         1         1         1         1
         1         1         1         1         1         1         1         1
         1         1         1         1         1         1         1         1
         1         1         1         1         1         1         1         1
         1         1         1         1         1         1         1         1
         1         1         1         1         1         1         1         1
         1         1         1         1         1         1         1         1
         1         1         1         1         1         1         1         1
         1         1         1         1         1         1         1         1
         1         1         1         1         1         1         1         1
         1         1         1         1         1         1         1         1
         1         1         1         1         1         1         1         1
         1         1         1         1         1         1         1         1
         1         1         1         1         1         1         1         1
         1         1         1         1         1         1         1         1
         1         1         1         1         1         1         1         1
         1         1         1         1         1         1         1         1
         1         1         1         1         1         1         1         1
         1         1         1         1         1         1         1         1
         1         1         1         1         1         1         1         1
         1         1         1         1         1         1         1         1
         1         1         1         1         1         1         1         1
         1         1         1         1         1         1         1         1
         1         1         1         1         1         1         1         1
         1         1         1         1         1         1         1         1
         1         1         1         1         1         1         1         1
         1         1         1         1         1         1         1         1
         1         1         1         1         1         1         1         1
         1         1         1         1         1         1         1         1
         1         1         1         1         1         1         1         1
         1         1         1         1         1         1         1         1
         1         1         1         1         1         1         1         1
         1         1         1         1         1         1         1         1
         1         1         1         1         1         1         1         1
         1         1         1         1         1         1         1         1
         1         1         1         1         1         1         1         1
         1         1         1         1         1         1         1         1
         1         1         1         1         1         1         1         1
         1         1         1         1         1         1         1         1
         1         1         1         1         1         1         1         1
         1         1         1         1         1         1         1         1
         1         1         1         1         1         1         1         1
         1         1         1         1         1         1         1         1
         1         1         1         1         1         1         1         1
         1         1         1         1         1         1         1         1
         1         1         1         1         1         1         1         1
         1         1         1         1         1         1         1         1
         1         1         1         1         1         1         1         1
         1         1         1         1         1         1         1         1
         1         1         1         1         1         1         1         1
         1         1         1         1         1         1         1         1
         1         1         1         1         1         1         1         1
         1         1         1         1         1         1         1         1
         1         1         1         1         1         1         1         1
         1         1         1         1         1         1         1         1
         1         1         1         1         1         1         1         1
         1         1         1         1         1         1         1         1
         1         1         1         1         1         1         1         1
         1         1         1         1         1         1         1         1
         1         1         1         1         1         1         1         1
         1         1         1         1         1         1         1         1
         1         1         1         1         1         1         1         1
         1         1         1         1         1         1         1         1
         1         1         1         1         1         1         1         1
         1         1         1         1         1         1         1         1
         1         1         1         1         1         1         1         1
         1         1         1         1         1         1         1         1
         1         1         1         1         1         1         1         1
         1         1         1         1         1         1         1         1
         1         1         1         1         1         1         1         1
         1         1         1         1         1         1         1         1
         1         1         1         1         1         1         1         1
         1         1         1         1         1         1         1         1
         1         1         1         1         1         1         1         1
         1         1         1         1         1         1         1         1
         1         1         1         1         1         1         1         1
         1         1         1         1         1         1         1         1
         1         1         1         1         1         1         1         1
         1         1         1         1         1         1         1         1
         1         1         1         1         1         1         1         1
         1         1         1         1         1         1         1         1
         1         1         1         1         1         1         1         1
         1         1         1         1         1         1         1         1
         1         1         1         1         1         1         1         1
         1         1         1         1         1         1         1         1
         1         1         1         1         1         1         1         1
         1         1         1         1         1         1         1         1
         1         1         1         1         1         1         1         1
         1         1         1         1         1         1         1         1
         1         1         1         1         1         1         1         1
         1         1         1         1         1         1         1         1
         1         1         1         1         1         1         1         1
         1         1         1         1         1         1         1         1
         1         1         1         1         1         1         1         1
         1         1         1         1         1         1         1         1
         1         1         1         1         1         1         1         1
         1         1         1         1         1         1         1         1
         1         1         1         1         1         1         1         1
         1         1         1         1         1         1         1         1
         1         1         1         1         1         1         1         1
         1         1         1         1         1         1         1         1
         1         1         1         1         1         1         1         1
         1         1         1         1         1         1         1         1
         1         1         1         1         1         1         1         1
         1         1         1         1         1         1         1         1
         1         1         1         1         1         1         1         1
         1         1         1         1         1         1         1         1
         1         1         1         1         1         1         1         1
         1         1         1         1         1         1         1         1
         1         1         1         1         1         1         1         1
         1         1         1         1         1         1         1         1
         1         1         1         1         1         1         1         1
         1         1         1         1         1         1         1         1
         1         1         1         1         1         1         1         1
         1         1         1         1         1         1         1         1
         1         1         1         1         1         1         1         1
         1         1         1         1         1         1         1         1
         1         1         1         1         1         1         1         1
         1         1         1         1         1         1         1         1
         1         1         1         1         1         1         1         1
         1         1         1         1         1         1         1         1
         1         1         1         1         1         1         1         1
         1         1         1         1         1         1         1         1
         1         1         1         1         1         1         1         1
         1         1         1         1         1         1         1         1
         1         1         1         1         1         1         1         1
         1         1         1         1         1         1         1         1
         1         1         1         1         1         1         1         1
         1         1         1         1         1         1         1         1
         1         1         1         1         1         1         1         1
         1         1         1         1         1         1         1         1
         1         1         1         1         1         1         1         1
         1         1         1         1         1         1         1         1
         1         1         1         1         1         1         1         1
         1         1         1         1         1         1         1         1
         1         1         1         1         1         1         1         1
         1         1         1         1         1         1         1         1
         1         1         1         1         1         1         1         1
         1         1         1         1         1         1         1         1
         1         1         1         1         1         1         1         1
         1         1         1         1         1         1         1         1
         1         1         1         1         1         1         1         1
         1         1         1         1         1         1         1         1
         1         1         1         1         1         1         1         1
         1         1         1         1         1         1         1         1
         1         1         1         1         1         1         1         1
         1         1         1         1         1         1         1         1
         1         1         1         1         1         1         1         1
         1         1         1         1         1         1         1         1
         1         1         1         1         1         1         1         1
         1         1         1         1         1         1         1         1
         1         1         1         1         1         1         1         1
         1         1         1         1         1         1         1         1
         1         1         1         1         1         1         1         1
         1         1         1         1         1         1         1         1
         1         1         1         1         1         1         1         1
         1         1         1         1         1         1         1         1
         1         1         1         1         1         1         1         1
         1         1         1         1         1         1         1         1
         1         1         1         1         1         1         1         1
         1         1         1         1         1         1         1         1
         1         1         1         1         1         1         1         1
         1         1         1         1         1         1         1         1
         1         1         1         1         1         1         1         1
         1         1         1         1         1         1         1         1
         1         1         1         1         1         1         1         1
         1         1         1         1         1         1         1         1
         1         1         1         1         1         1         1         1
         1         1         1         1         1         1         1         1
         1         1         1         1         1         1         1         1
         1         1         1         1         1         1         1         1
         1         1         1         1         1         1         1         1
         1         1         1         1         1         1         1         1
         1         1         1         1         1         1         1         1
         1         1         1         1         1         1         1         1
         1         1         1         1         1         1         1         1
         1         1         1         1         1         1         1         1
         1         1         1         1         1         1         1         1
         1         1         1         1         1         1         1         1
         1         1         1         1         1         1         1         1
         1         1         1         1         1         1         1         1
         1         1         1         1         1         1         1         1
         1         1         1         1         1         1         1         1
         1         1         1         1         1         1         1         1
         1         1         1         1         1         1         1         1
         1         1         1         1         1         1         1         1
         1         1         1         1         1         1         1         1
         1         1         1         1         1         1         1         1
         1         1         1         1         1         1         1         1
         1         1         1         1         1         1         1         1
         1         1         1         1         1         1         1         1
         1         1         1         1         1         1         1         1
         1         1         1         1         1         1         1         1
         1         1         1         1         1         1         1         1
         1         1         1         1         1         1         1         1
         1         1         1         1         1         1         1         1
         1         1         1         1         1         1         1         1
         1         1         1         1         1         1         1         1
         1         1         1         1         1         1         1         1
         1         1         1         1         1         1         1         1
         1         1         1         1         1         1         1         1
         1         1         1         1         1         1         1         1
         1         1         1         1         1         1         1         1
         1         1         1         1         1         1         1         1
         1         1         1         1         1         1         1         1
         1         1         1         1         1         1         1         1
         1         1         1         1         1         1         1         1
         1         1         1         1         1         1         1         1
         1         1         1         1         1         1         1         1
         1         1         1         1         1         1         1         1
         1         1         1         1         1         1         1         1
         1         1         1         1         1         1         1         1
         1         1         1         1         1         1         1         1
         1         1         1         1         1         1         1         1
         1         1         1         1         1         1         1         1
         1         1         1         1         1         1         1         1
         1         1         1         1         1         1         1         1
         1         1         1         1         1         1         1         1
         1         1         1         1         1         1         1         1
         1         1         1         1         1         1         1         1
         1         1         1         1         1         1         1         1
         1         1         1         1         1         1         1         1
         1         1         1         1         1         1         1         1
         1         1         1         1         1         1         1         1
         1         1         1         1         1         1         1         1
         1         1         1         1         1         1         1         1
         1         1         1         1         1         1         1         1
         1         1         1         1         1         1         1         1
         1         1         1         1         1         1         1         1
         1         1         1         1         1         1         1         1
         1         1         1         1         1         1         1         1
         1         1         1         1         1         1         1         1
         1         1         1         1         1         1         1         1
         1         1         1         1         1         1         1         1
         1         1         1         1         1         1         1         1
         1         1         1         1         1         1         1         1
         1         1         1         1         1         1         1         1
         1         1         1         1         1         1         1         1
         1         1         1         1         1         1         1         1
         1         1         1         1         1         1         1         1
         1         1         1         1         1         1         1         1
         1         1         1         1         1         1         1         1
         1         1         1         1         1         1         1         1
         1         1         1         1         1         1         1         1
         1         1         1         1         1         1         1         1
         1         1         1         1         1         1         1         1
         1         1         1         1         1         1         1         1
         1         1         1         1         1         1         1         1
         1         1         1         1         1         1         1         1
         1         1         1         1         1         1         1         1
         1         1         1         1         1         1         1         1
         1         1         1         1         1         1         1         1
         1         1         1         1         1         1         1         1
         1         1         1         1         1         1         1         1
         1         1         1         1         1         1         1         1
         1         1         1         1         1         1         1         1
         1         1         1         1         1         1         1         1
         1         1         1         1         1         1         1         1
         1         1         1         1         1         1         1         1
         1         1         1         1         1         1         1         1
         1         1         1         1         1         1         1         1
         1         1         1         1         1         1         1         1
         1         1         1         1         1         1         1         1
         1         1         1         1         1         1         1         1
         1         1         1         1         1         1         1         1
         1         1         1         1         1         1         1         1
         1         1         1         1         1         1         1         1
         1         1         1         1         1         1         1         1
         1         1         1         1         1         1         1         1
         1         1         1         1         1         1         1         1
         1         1         1         1         1         1         1         1
         1         1         1         1         1         1         1         1
         1         1         1         1         1         1         1         1
         1         1         1         1         1         1         1         1
         1         1         1         1         1         1         1         1
         1         1         1         1         1         1         1         1
         1         1         1         1         1         1         1         1
         1         1         1         1         1         1         1         1
         1         1         1         1         1         1         1         1
         1         1         1         1         1         1         1         1
         1         1         1         1         1         1         1         1
         1         1         1         1         1         1         1         1
         1         1         1         1         1         1         1         1
         1         1         1         1         1         1         1         1
         1         1         1         1         1         1         1         1
         1         1         1         1         1         1         1         1
         1         1         1         1         1         1         1         1
         1         1         1         1         1         1         1         1
         1         1         1         1         1         1         1         1
         1         1         1         1         1         1         1         1
         1         1         1         1         1         1         1         1
         1         1         1         1         1         1         1         1
         1         1         1         1         1         1         1         1
         1         1         1         1         1         1         1         1
         1         1         1         1         1         1         1         1
         1         1         1         1         1         1         1         1
         1         1         1         1         1         1         1         1
         1         1         1         1         1         1         1         1
         1         1         1         1         1         1         1         1
         1         1         1         1         1         1         1         1
         1         1         1         1         1         1         1         1
         1         1         1         1         1         1         1         1
         1         1         1         1         1         1         1         1
         1         1         1         1         1         1         1         1
         1         1         1         1         1         1         1         1
         1         1         1         1         1         1         1         1
         1         1         1         1         1         1         1         1
         1         1         1         1         1         1         1         1
         1         1         1         1         1         1         1         1
         1         1         1         1         1         1         1         1
         1         1         1         1         1         1         1         1
         1         1         1         1         1         1         1         1
         1         1         1         1         1         1         1         1
         1         1         1         1         1         1         1         1
         1         1         1         1         1         1         1         1
         1         1         1         1         1         1         1         1
         1         1         1         1         1         1         1         1
         1         1         1         1         1         1         1         1
         1         1         1         1         1         1         1         1
         1         1         1         1         1         1         1         1
         1         1         1         1         1         1         1         1
         1         1         1         1         1         1         1         1
         1         1         1         1         1         1         1         1
         1         1         1         1         1         1         1         1
         1         1         1         1         1         1         1         1
         1         1         1         1         1         1         1         1
         1         1         1         1         1         1         1         1
         1         1         1         1         1         1         1         1
         1         1         1         1         1         1         1         1
         1         1         1         1         1         1         1         1
         1         1         1         1         1         1         1         1
         1         1         1         1         1         1         1         1
         1         1         1         1         1         1         1         1
         1         1         1         1         1         1         1         1
         1         1         1         1         1         1         1         1
         1         1         1         1         1         1         1         1
         1         1         1         1         1         1         1         1
         1         1         1         1         1         1         1         1
         1         1         1         1         1         1         1         1
         1         1         1         1         1         1         1         1
         1         1         1         1         1         1         1         1
         1         1         1         1         1         1         1         1
         1         1         1         1         1         1         1         1
         1         1         1         1         1         1         1         1
         1         1         1         1         1         1         1         1
         1         1         1         1         1         1         1         1
         1         1         1         1         1         1         1         1
         1         1         1         1         1         1         1         1
         1         1         1         1         1         1         1         1
         1         1         1         1         1         1         1         1
         1         1         1         1         1         1         1         1
         1         1         1         1         1         1         1         1
         1         1         1         1         1         1         1         1
         1         1         1         1         1         1         1         1
         1         1         1         1         1         1         1         1
         1         1         1         1         1         1         1         1
         1         1         1         1         1         1         1         1
         1         1         1         1         1         1         1         1
         1         1         1         1         1         1         1         1
         1         1         1         1         1         1         1         1
         1         1         1         1         1         1         1         1
         1         1         1         1         1         1         1         1
         1         1         1         1         1         1         1         1
         1         1         1         1         1         1         1         1
         1         1         1         1         1         1         1         1
         1         1         1         1         1         1         1         1
         1         1         1         1         1         1         1         1
         1         1         1         1         1         1         1         1
         1         1         1         1         1         1         1         1
         1         1         1         1         1         1         1         1
         1         1         1         1         1         1         1         1
         1         1         1         1         1         1         1         1
         1         1         1         1         1         1         1         1
         1         1         1         1         1         1         1         1
         1         1         1         1         1         1         1         1
         1         1         1         1         1         1         1         1
         1         1         1         1         1         1         1         1
         1         1         1         1         1         1         1         1
         1         1         1         1         1         1         1         1
         1         1         1         1         1         1         1         1
         1         1         1         1         1         1         1         1
         1         1         1         1         1         1         1         1
         1         1         1         1         1         1         1         1
         1         1         1         1         1         1         1         1
         1         1         1         1         1         1         1         1
         1         1         1         1         1         1         1         1
         1         1         1         1         1         1         1         1
         1         1         1         1         1         1         1         1
         1         1         1         1         1         1         1         1
         1         1         1         1         1         1         1         1
         1         1         1         1         1         1         1         1
         1         1         1         1         1         1         1         1
         1         1         1         1         1         1         1         1
         1         1         1         1         1         1         1         1
         1         1         1         1         1         1         1         1
         1         1         1         1         1         1         1         1
         1         1         1         1         1         1         1         1
         1         1         1         1         1         1         1         1
         1         1         1         1         1         1         1         1
         1         1         1         1         1         1         1         1
         1         1         1         1         1         1         1         1
         1         1         1         1         1         1         1         1
         1         1         1         1         1         1         1         1
         1         1         1         1         1         1         1         1
         1         1         1         1         1         1         1         1
         1         1         1         1         1         1         1         1
         1         1         1         1         1         1         1         1
         1         1         1         1         1         1         1         1
         1         1         1         1         1         1         1         1
         1         1         1         1         1         1         1         1
         1         1         1         1         1         1         1         1
         1         1         1         1         1         1         1         1
         1         1         1         1         1         1         1         1
         1         1         1         1         1         1         1         1
         1         1         1         1         1         1         1         1
         1         1         1         1         1         1         1         1
         1         1         1         1         1         1         1         1
         1         1         1         1         1         1         1         1
         1         1         1         1         1         1         1         1
         1         1         1         1         1         1         1         1
         1         1         1         1         1         1         1         1
         1         1         1         1         1         1         1         1
         1         1         1         1         1         1         1         1
         1         1         1         1         1         1         1         1
         1         1         1         1         1         1         1         1
         1         1         1         1         1         1         1         1
         1         1         1         1         1         1         1         1
         1         1         1         1         1         1         1         1
         1         1         1         1         1         1         1         1
         1         1         1         1         1         1         1         1
         1         1         1         1         1         1         1         1
         1         1         1         1         1         1         1         1
         1         1         1         1         1         1         1         1
         1         1         1         1         1         1         1         1
         1         1         1         1         1         1         1         1
         1         1         1         1         1         1         1         1
         1         1         1         1         1         1         1         1
         1         1         1         1         1         1         1         1
         1         1         1         1         1         1         1         1
         1         1         1         1         1         1         1         1
         1         1         1         1         1         1         1         1
         1         1         1         1         1         1         1         1
         1         1         1         1         1         1         1         1
         1         1         1         1         1         1         1         1
         1         1         1         1         1         1         1         1
         1         1         1         1         1         1         1         1
         1         1         1         1         1         1         1         1
         1         1         1         1         1         1         1         1
         1         1         1         1         1         1         1         1
         1         1         1         1         1         1         1         1
         1         1         1         1         1         1         1         1
         1         1         1         1         1         1         1         1
         1         1         1         1         1         1         1         1
         1         1         1         1         1         1         1         1
         1         1         1         1         1         1         1         1
         1         1         1         1         1         1         1         1
         1         1         1         1         1         1         1         1
         1         1         1         1         1         1         1         1
         1         1         1         1         1         1         1         1
         1         1         1         1         1         1         1         1
         1         1         1         1         1         1         1         1
         1         1         1         1         1         1         1         1
         1         1         1         1         1         1         1         1
         1         1         1         1         1         1         1         1
         1         1         1         1         1         1         1         1
         1         1         1         1         1         1         1         1
         1         1         1         1         1         1         1         1
         1         1         1         1         1         1         1         1
         1         1         1         1         1         1         1         1
         1         1         1         1         1         1         1         1
         1         1         1         1         1         1         1         1
         1         1         1         1         1         1         1         1
         1         1         1         1         1         1         1         1
         1         1         1         1         1         1         1         1
         1         1         1         1         1         1         1         1
         1         1         1         1         1         1         1         1
         1         1         1         1         1         1         1         1
         1         1         1         1         1         1         1         1
         1         1         1         1         1         1         1         1
         1         1         1         1         1         1         1         1
         1         1         1         1         1         1         1         1
         1         1         1         1         1         1         1         1
         1         1         1         1         1         1         1         1
         1         1         1         1         1         1         1         1
         1         1         1         1         1         1         1         1
         1         1         1         1         1         1         1         1
         1         1         1         1         1         1         1         1
         1         1         1         1         1         1         1         1
         1         1         1         1         1         1         1         1
         1         1         1         1         1         1         1         1
         1         1         1         1         1         1         1         1
         1         1         1         1         1         1         1         1
         1         1         1         1         1         1         1         1
         1         1         1         1         1         1         1         1
         1         1         1         1         1         1         1         1
         1         1         1         1         1         1         1         1
         1         1         1         1         1         1         1         1
         1         1         1         1         1         1         1         1
         1         1         1         1         1         1         1         1
         1         1         1         1         1         1         1         1
         1         1         1         1         1         1         1         1
         1         1         1         1         1         1         1         1
         1         1         1         1         1         1         1         1
         1         1         1         1         1         1         1         1
         1         1         1         1         1         1         1         1
         1         1         1         1         1         1         1         1
         1         1         1         1         1         1         1         1
         1         1         1         1         1         1         1         1
         1         1         1         1         1         1         1         1
         1         1         1         1         1         1         1         1
         1         1         1         1         1         1         1         1
         1         1         1         1         1         1         1         1
         1         1         1         1         1         1         1         1
         1         1         1         1         1         1         1         1
         1         1         1         1         1         1         1         1
         1         1         1         1         1         1         1         1
         1         1         1         1         1         1         1         1
         1         1         1         1         1         1         1         1
         1         1         1         1         1         1         1         1
         1         1         1         1         1         1         1         1
         1         1         1         1         1         1         1         1
         1         1         1         1         1         1         1         1
         1         1         1         1         1         1         1         1
         1         1         1         1         1         1         1         1
         1         1         1         1         1         1         1         1
         1         1         1         1         1         1         1         1
         1         1         1         1         1         1         1         1
         1         1         1         1         1         1         1         1
         1         1         1         1         1         1         1         1
         1         1         1         1         1         1         1         1
         1         1         1         1         1         1         1         1
         1         1         1         1         1         1         1         1
         1         1         1         1         1         1         1         1
         1         1         1         1         1         1         1         1
         1         1         1         1         1         1         1         1
         1         1         1         1         1         1         1         1
         1         1         1         1         1         1         1         1
         1         1         1         1         1         1         1         1
         1         1         1         1         1         1         1         1
         1         1         1         1         1         1         1         1
         1         1         1         1         1         1         1         1
         1         1         1         1         1         1         1         1
         1         1         1         1         1         1         1         1
         1         1         1         1         1         1         1         1
         1         1         1         1         1         1         1         1
         1         1         1         1         1         1         1         1
         1         1         1         1         1         1         1         1
         1         1         1         1         1         1         1         1
         1         1         1         1         1         1         1         1
         1         1         1         1         1         1         1         1
         1         1         1         1         1         1         1         1
         1         1         1         1         1         1         1         1
         1         1         1         1         1         1         1         1
         1         1         1         1         1         1         1         1
         1         1         1         1         1         1         1         1
         1         1         1         1         1         1         1         1
         1         1         1         1         1         1         1         1
         1         1         1         1         1         1         1         1
         1         1         1         1         1         1         1         1
         1         1         1         1         1         1         1         1
         1         1         1         1         1         1         1         1
         1         1         1         1         1         1         1         1
         1         1         1         1         1         1         1         1
         1         1         1         1         1         1         1         1
         1         1         1         1         1         1         1         1
         1         1         1         1         1         1         1         1
         1         1         1         1         1         1         1         1
         1         1         1         1         1         1         1         1
         1         1         1         1         1         1         1         1
         1         1         1         1         1         1         1         1
         1         1         1         1         1         1         1         1
         1         1         1         1         1         1         1         1
         1         1         1         1         1         1         1         1
         1         1         1         1         1         1         1         1
         1         1         1         1         1         1         1         1
         1         1         1         1         1         1         1         1
         1         1         1         1         1         1         1         1
         1         1         1         1         1         1         1         1
         1         1         1         1         1         1         1         1
         1         1         1         1         1         1         1         1
         1         1         1         1         1         1         1         1
         1         1         1         1         1         1         1         1
         1         1         1         1         1         1         1         1
         1         1         1         1         1         1         1         1
         1         1         1         1         1         1         1         1
         1         1         1         1         1         1         1         1
         1         1         1         1         1         1         1         1
         1         1         1         1         1         1         1         1
         1         1         1         1         1         1         1         1
         1         1         1         1         1         1         1         1
         1         1         1         1         1         1         1         1
         1         1         1         1         1         1         1         1
         1         1         1         1         1         1         1         1
         1         1         1         1         1         1         1         1
         1         1         1         1         1         1         1         1
         1         1         1         1         1         1         1         1
         1         1         1         1         1         1         1         1
         1         1         1         1         1         1         1         1
         1         1         1         1         1         1         1         1
         1         1         1         1         1         1         1         1
         1         1         1         1         1         1         1         1
         1         1         1         1         1         1         1         1
         1         1         1         1         1         1         1         1
         1         1         1         1         1         1         1         1
         1         1         1         1         1         1         1         1
         1         1         1         1         1         1         1         1
         1         1         1         1         1         1         1         1
         1         1         1         1         1         1         1         1
         1         1         1         1         1         1         1         1
         1         1         1         1         1         1         1         1
         1         1         1         1         1         1         1         1
         1         1         1         1         1         1         1         1
         1         1         1         1         1         1         1         1
         1         1         1         1         1         1         1         1
         1         1         1         1         1         1         1         1
         1         1         1         1         1         1         1         1
         1         1         1         1         1         1         1         1
         1         1         1         1         1         1         1         1
         1         1         1         1         1         1         1         1
         1         1         1         1         1         1         1         1
         1         1         1         1         1         1         1         1
         1         1         1         1         1         1         1         1
         1         1         1         1         1         1         1         1
         1         1         1         1         1         1         1         1
         1         1         1         1         1         1         1         1
         1         1         1         1         1         1         1         1
         1         1         1         1         1         1         1         1
         1         1         1         1         1         1         1         1
         1         1         1         1         1         1         1         1
         1         1         1         1         1         1         1         1
         1         1         1         1         1         1         1         1
         1         1         1         1         1         1         1         1
         1         1         1         1         1         1         1         1
         1         1         1         1         1         1         1         1
         1         1         1         1         1         1         1         1
         1         1         1         1         1         1         1         1
         1         1         1         1         1         1         1         1
         1         1         1         1         1         1         1         1
         1         1         1         1         1         1         1         1
         1         1         1         1         1         1         1         1
         1         1         1         1         1         1         1         1
         1         1         1         1         1         1         1         1
         1         1         1         1         1         1         1         1
         1         1         1         1         1         1         1         1
         1         1         1         1         1         1         1         1
         1         1         1         1         1         1         1         1
         1         1         1         1         1         1         1         1
         1         1         1         1         1         1         1         1
         1         1         1         1         1         1         1         1
         1         1         1         1         1         1         1         1
         1         1         1         1         1         1         1         1
         1         1         1         1         1         1         1         1
         1         1         1         1         1         1         1         1
         1         1         1         1         1         1         1         1
         1         1         1         1         1         1         1         1
         1         1         1         1         1         1         1         1
         1         1         1         1         1         1         1         1
         1         1         1         1         1         1         1         1
         1         1         1         1         1         1         1         1
         1         1         1         1         1         1         1         1
         1         1         1         1         1         1         1         1
         1         1         1         1         1         1         1         1
         1         1         1         1         1         1         1         1
         1         1         1         1         1         1         1         1
         1         1         1         1         1         1         1         1
         1         1         1         1         1         1         1         1
         1         1         1         1         1         1         1         1
         1         1         1         1         1         1         1         1
         1         1         1         1         1         1         1         1
         1         1         1         1         1         1         1         1
         1         1         1         1         1         1         1         1
         1         1         1         1         1         1         1         1
         1         1         1         1         1         1         1         1
         1         1         1         1         1         1         1         1
         1         1         1         1         1         1         1         1
         1         1         1         1         1         1         1         1
         1         1         1         1         1         1         1         1
         1         1         1         1         1         1         1         1
         1         1         1         1         1         1         1         1
         1         1         1         1         1         1         1         1
         1         1         1         1         1         1         1         1
         1         1         1         1         1         1         1         1
         1         1         1         1         1         1         1         1
         1         1         1         1         1         1         1         1
         1         1         1         1         1         1         1         1
         1         1         1         1         1         1         1         1
         1         1         1         1         1         1         1         1
         1         1         1         1         1         1         1         1
         1         1         1         1         1         1         1         1
         1         1         1         1         1         1         1         1
         1         1         1         1         1         1         1         1
         1         1         1         1         1         1         1         1
         1         1         1         1         1         1         1         1
         1         1         1         1         1         1         1         1
         1         1         1         1         1         1         1         1
         1         1         1         1         1         1         1         1
         1         1         1         1         1         1         1         1
         1         1         1         1         1         1         1         1
         1         1         1         1         1         1         1         1
         1         1         1         1         1         1         1         1
         1         1         1         1         1         1         1         1
         1         1         1         1         1         1         1         1
         1         1         1         1         1         1         1         1
         1         1         1         1         1         1         1         1
         1         1         1         1         1         1         1         1
         1         1         1         1         1         1         1         1
         1         1         1         1         1         1         1         1
         1         1         1         1         1         1         1         1
         1         1         1         1         1         1         1         1
         1         1         1         1         1         1         1         1
         1         1         1         1         1         1         1         1
         1         1         1         1         1         1         1         1
         1         1         1         1         1         1         1         1
         1         1         1         1         1         1         1         1
         1         1         1         1         1         1         1         1
         1         1         1         1         1         1         1         1
         1         1         1         1         1         1         1         1
         1         1         1         1         1         1         1         1
         1         1         1         1         1         1         1         1
         1         1         1         1         1         1         1         1
         1         1         1         1         1         1         1         1
         1         1         1         1         1         1         1         1
         1         1         1         1         1         1         1         1
         1         1         1         1         1         1         1         1
         1         1         1         1         1         1         1         1
         1         1         1         1         1         1         1         1
         1         1         1         1         1         1         1         1
         1         1         1         1         1         1         1         1
         1         1         1         1         1         1         1         1
         1         1         1         1         1         1         1         1
         1         1         1         1         1         1         1         1
         1         1         1         1         1         1         1         1
         1         1         1         1         1         1         1         1
         1         1         1         1         1         1         1         1
         1         1         1         1         1         1         1         1
         1         1         1         1         1         1         1         1
         1         1         1         1         1         1         1         1
         1         1         1         1         1         1         1         1
         1         1         1         1         1         1         1         1
         1         1         1         1         1         1         1         1
         1         1         1         1         1         1         1         1
         1         1         1         1         1         1         1         1
         1         1         1         1         1         1         1         1
         1         1         1         1         1         1         1         1
         1         1         1         1         1         1         1         1
         1         1         1         1         1         1         1         1
         1         1         1         1         1         1         1         1
         1         1         1         1         1         1         1         1
         1         1         1         1         1         1         1         1
         1         1         1         1         1         1         1         1
         1         1         1         1         1         1         1         1
         1         1         1         1         1         1         1         1
         1         1         1         1         1         1         1         1
         1         1         1         1         1         1         1         1
         1         1         1         1         1         1         1         1
         1         1         1         1         1         1         1         1
         1         1         1         1         1         1         1         1
         1         1         1         1         1         1         1         1
         1         1         1         1         1         1         1         1
         1         1         1         1         1         1         1         1
         1         1         1         1         1         1         1         1
         1         1         1         1         1         1         1         1
         1         1         1         1         1         1         1         1
         1         1         1         1         1         1         1         1
         1         1         1         1         1         1         1         1
         1         1         1         1         1         1         1         1
         1         1         1         1         1         1         1         1
         1         1         1         1         1         1         1         1
         1         1         1         1         1         1         1         1
         1         1         1         1         1         1         1         1
         1         1         1         1         1         1         1         1
         1         1         1         1         1         1         1         1
         1         1         1         1         1         1         1         1
         1         1         1         1         1         1         1         1
         1         1         1         1         1         1         1         1
         1         1         1         1         1         1         1         1
         1         1         1         1         1         1         1         1
         1         1         1         1         1         1         1         1
         1         1         1         1         1         1         1         1
         1         1         1         1         1         1         1         1
         1         1         1         1         1         1         1         1
         1         1         1         1         1         1         1         1
         1         1         1         1         1         1         1         1
         1         1         1         1         1         1         1         1
         1         1         1         1         1         1         1         1
         1         1         1         1         1         1         1         1
         1         1         1         1         1         1         1         1
         1         1         1         1         1         1         1         1
         1         1         1         1         1         1         1         1
         1         1         1         1         1         1         1         1
         1         1         1         1         1         1         1         1
         1         1         1         1         1         1         1         1
         1         1         1         1         1         1         1         1
         1         1         1         1         1         1         1         1
         1         1         1         1         1         1         1         1
         1         1         1         1         1         1         1         1
         1         1         1         1         1         1         1         1
         1         1         1         1         1         1         1         1
         1         1         1         1         1         1         1         1
         1         1         1         1         1         1         1         1
         1         1         1         1         1         1         1         1
         1         1         1         1         1         1         1         1
         1         1         1         1         1         1         1         1
         1         1         1         1         1         1         1         1
         1         1         1         1         1         1         1         1
         1         1         1         1         1         1         1         1
         1         1         1         1         1         1         1         1
         1         1         1         1         1         1         1         1
         1         1         1         1         1         1         1         1
         1         1         1         1         1         1         1         1
         1         1         1         1         1         1         1         1
         1         1         1         1         1         1         1         1
         1         1         1         1         1         1         1         1
         1         1         1         1         1         1         1         1
         1         1         1         1         1         1         1         1
         1         1         1         1         1         1         1         1
         1         1         1         1         1         1         1         1
         1         1         1         1         1         1         1         1
         1         1         1         1         1         1         1         1
         1         1         1         1         1         1         1         1
         1         1         1         1         1         1         1         1
         1         1         1         1         1         1         1         1
         1         1         1         1         1         1         1         1
         1         1         1         1         1         1         1         1
         1         1         1         1         1         1         1         1
         1         1         1         1         1         1         1         1
         1         1         1         1         1         1         1         1
         1         1         1         1         1         1         1         1
         1         1         1         1         1         1         1         1
         1         1         1         1         1         1         1         1
         1         1         1         1         1         1         1         1
         1         1         1         1         1         1         1         1
         1         1         1         1         1         1         1         1
         1         1         1         1         1         1         1         1
         1         1         1         1         1         1         1         1
         1         1         1         1         1         1         1         1
         1         1         1         1         1         1         1         1
         1         1         1         1         1         1         1         1
         1         1         1         1         1         1         1         1
         1         1         1         1         1         1         1         1
         1         1         1         1         1         1         1         1
         1         1         1         1         1         1         1         1
         1         1         1         1         1         1         1         1
         1         1         1         1         1         1         1         1
         1         1         1         1         1         1         1         1
         1         1         1         1         1         1         1         1
         1         1         1         1         1         1         1         1
         1         1         1         1         1         1         1         1
         1         1         1         1         1         1         1         1
         1         1         1         1         1         1         1         1
         1         1         1         1         1         1         1         1
         1         1         1         1         1         1         1         1
         1         1         1         1         1         1         1         1
         1         1         1         1         1         1         1         1
         1         1         1         1         1         1         1         1
         1         1         1         1         1         1         1         1
         1         1         1         1         1         1         1         1
         1         1         1         1         1         1         1         1
         1         1         1         1         1         1         1         1
         1         1         1         1         1         1         1         1
         1         1         1         1         1         1         1         1
         1         1         1         1         1         1         1         1
         1         1         1         1         1         1         1         1
         1         1         1         1         1         1         1         1
         1         1         1         1         1         1         1         1
         1         1         1         1         1         1         1         1
         1         1         1         1         1         1         1         1
         1         1         1         1         1         1         1         1
         1         1         1         1         1         1         1         1
         1         1         1         1         1         1         1         1
         1         1         1         1         1         1         1         1
         1         1         1         1         1         1         1         1
         1         1         1         1         1         1         1         1
         1         1         1         1         1         1         1         1
         1         1         1         1         1         1         1         1
         1         1         1         1         1         1         1         1
         1         1         1         1         1         1         1         1
         1         1         1         1         1         1         1         1
         1         1         1         1         1         1         1         1
         1         1         1         1         1         1         1         1
         1         1         1         1         1         1         1         1
         1         1         1         1         1         1         1         1
         1         1         1         1         1         1         1         1
         1         1         1         1         1         1         1         1
         1         1         1         1         1         1         1         1
         1         1         1         1         1         1         1         1
         1         1         1         1         1         1         1         1
         1         1         1         1         1         1         1         1
         1         1         1         1         1         1         1         1
         1         1         1         1         1         1         1         1
         1         1         1         1         1         1         1         1
         1         1         1         1         1         1         1         1
         1         1         1         1         1         1         1         1
         1         1         1         1         1         1         1         1
         1         1         1         1         1         1         1         1
         1         1         1         1         1         1         1         1
         1         1         1         1         1         1         1         1
         1         1         1         1         1         1         1         1
         1         1         1         1         1         1         1         1
         1         1         1         1         1         1         1         1
         1         1         1         1         1         1         1         1
         1         1         1         1         1         1         1         1
         1         1         1         1         1         1         1         1
         1         1         1         1         1         1         1         1
         1         1         1         1         1         1         1         1
         1         1         1         1         1         1         1         1
         1         1         1         1         1         1         1         1
         1         1         1         1         1         1         1         1
         1         1         1         1         1         1         1         1
         1         1         1         1         1         1         1         1
         1         1         1         1         1         1         1         1
         1         1         1         1         1         1         1         1
         1         1         1         1         1         1         1         1
         1         1         1         1         1         1         1         1
         1         1         1         1         1         1         1         1
         1         1         1         1         1         1         1         1
         1         1         1         1         1         1         1         1
         1         1         1         1         1         1         1         1
         1         1         1         1         1         1         1         1
         1         1         1         1         1         1         1         1
         1         1         1         1         1         1         1         1
         1         1         1         1         1         1         1         1
         1         1         1         1         1         1         1         1
         1         1         1         1         1         1         1         1
         1         1         1         1         1         1         1         1
         1         1         1         1         1         1         1         1
         1         1         1         1         1         1         1         1
         1         1         1         1         1         1         1         1
         1         1         1         1         1         1         1         1
         1         1         1         1         1         1         1         1
         1         1         1         1         1         1         1         1
         1         1         1         1         1         1         1         1
         1         1         1         1         1         1         1         1
         1         1         1         1         1         1         1         1
         1         1         1         1         1         1         1         1
         1         1         1         1         1         1         1         1
         1         1         1         1         1         1         1         1
         1         1         1         1         1         1         1         1
         1         1         1         1         1         1         1         1
         1         1         1         1         1         1         1         1
         1         1         1         1         1         1         1         1
         1         1         1         1         1         1         1         1
         1         1         1         1         1         1         1         1
         1         1         1         1         1         1         1         1
         1         1         1         1         1         1         1         1
         1         1         1         1         1         1         1         1
         1         1         1         1         1         1         1         1
         1         1         1         1         1         1         1         1
         1         1         1         1         1         1         1         1
         1         1         1         1         1         1         1         1
         1         1         1         1         1         1         1         1
         1         1         1         1         1         1         1         1
         1         1         1         1         1         1         1         1
         1         1         1         1         1         1         1         1
         1         1         1         1         1         1         1         1
         1         1         1         1         1         1         1         1
         1         1         1         1         1         1         1         1
         1         1         1         1         1         1         1         1
         1         1         1         1         1         1         1         1
         1         1         1         1         1         1         1         1
         1         1         1         1         1         1         1         1
         1         1         1         1         1         1         1         1
         1         1         1         1         1         1         1         1
         1         1         1         1         1         1         1         1
         1         1         1         1         1         1         1         1
         1         1         1         1         1         1         1         1
         1         1         1         1         1         1         1         1
         1         1         1         1         1         1         1         1
         1         1         1         1         1         1         1         1
         1         1         1         1         1         1         1         1
         1         1         1         1         1         1         1         1
         1         1         1         1         1         1         1         1
         1         1         1         1         1         1         1         1
         1         1         1         1         1         1         1         1
         1         1         1         1         1         1         1         1
         1         1         1         1         1         1         1         1
         1         1         1         1         1         1         1         1
         1         1         1         1         1         1         1         1
         1         1         1         1         1         1         1         1
         1         1         1         1         1         1         1         1
         1         1         1         1         1         1         1         1
         1         1         1         1         1         1         1         1
         1         1         1         1         1         1         1         1
         1         1         1         1         1         1         1         1
         1         1         1         1         1         1         1         1
         1         1         1         1         1         1         1         1
         1         1         1         1         1         1         1         1
         1         1         1         1         1         1         1         1
         1         1         1         1         1         1         1         1
         1         1         1         1         1         1         1         1
         1         1         1         1         1         1         1         1
         1         1         1         1         1         1         1         1
         1         1         1         1         1         1         1         1
         1         1         1         1         1         1         1         1
         1         1         1         1         1         1         1         1
         1         1         1         1         1         1         1         1
         1         1         1         1         1         1         1         1
         1         1         1         1         1         1         1         1
         1         1         1         1         1         1         1         1
         1         1         1         1         1         1         1         1
         1         1         1         1         1         1         1         1
         1         1         1         1         1         1         1         1
         1         1         1         1         1         1         1         1
         1         1         1         1         1         1         1         1
         1         1         1         1         1         1         1         1
         1         1         1         1         1         1         1         1
         1         1         1         1         1         1         1         1
         1         1         1         1         1         1         1         1
         1         1         1         1         1         1         1         1
         1         1         1         1         1         1         1         1
         1         1         1         1         1         1         1         1
         1         1         1         1         1         1         1         1
         1         1         1         1         1         1         1         1
         1         1         1         1         1         1         1         1
         1         1         1         1         1         1         1         1
         1         1         1         1         1         1         1         1
         1         1         1         1         1         1         1         1
         1         1         1         1         1         1         1         1
         1         1         1         1         1         1         1         1
         1         1         1         1         1         1         1         1
         1         1         1         1         1         1         1         1
         1         1         1         1         1         1         1         1
         1         1         1         1         1         1         1         1
         1         1         1         1         1         1         1         1
         1         1         1         1         1         1         1         1
         1         1         1         1         1         1         1         1
         1         1         1         1         1         1         1         1
         1         1         1         1         1         1         1         1
         1         1         1         1         1         1         1         1
         1         1         1         1         1         1         1         1
         1         1         1         1         1         1         1         1
         1         1         1         1         1         1         1         1
         1         1         1         1         1         1         1         1
         1         1         1         1         1         1         1         1
         1         1         1         1         1         1         1         1
         1         1         1         1         1         1         1         1
         1         1         1         1         1         1         1         1
         1         1         1         1         1         1         1         1
         1         1         1         1         1         1         1         1
         1         1         1         1         1         1         1         1
         1         1         1         1         1         1         1         1
         1         1         1         1         1         1         1         1
         1         1         1         1         1         1         1         1
         1         1         1         1         1         1         1         1
         1         1         1         1         1         1         1         1
         1         1         1         1         1         1         1         1
         1         1         1         1         1         1         1         1
         1         1         1         1         1         1         1         1
         1         1         1         1         1         1         1         1
         1         1         1         1         1         1         1         1
         1         1         1         1         1         1         1         1
         1         1         1         1         1         1         1         1
         1         1         1         1         1         1         1         1
         1         1         1         1         1         1         1         1
         1         1         1         1         1         1         1         1
         1         1         1         1         1         1         1         1
         1         1         1         1         1         1         1         1
         1         1         1         1         1         1         1         1
         1         1         1         1         1         1         1         1
         1         1         1         1         1         1         1         1
         1         1         1         1         1         1         1         1
         1         1         1         1         1         1         1         1
         1         1         1         1         1         1         1         1
         1         1         1         1         1         1         1         1
         1         1         1         1         1         1         1         1
         1         1         1         1         1         1         1         1
         1         1         1         1         1         1         1         1
         1         1         1         1         1         1         1         1
         1         1         1         1         1         1         1         1
         1         1         1         1         1         1         1         1
         1         1         1         1         1         1         1         1
         1         1         1         1         1         1         1         1
         1         1         1         1         1         1         1         1
         1         1         1         1         1         1         1         1
         1         1         1         1         1         1         1         1
         1         1         1         1         1         1         1         1
         1         1         1         1         1         1         1         1
         1         1         1         1         1         1         1         1
         1         1         1         1         1         1         1         1
         1         1         1         1         1         1         1         1
         1         1         1         1         1         1         1         1
         1         1         1         1         1         1         1         1
         1         1         1         1         1         1         1         1
         1         1         1         1         1         1         1         1
         1         1         1         1         1         1         1         1
         1         1         1         1         1         1         1         1
         1         1         1         1         1         1         1         1
         1         1         1         1         1         1         1         1
         1         1         1         1         1         1         1         1
         1         1         1         1         1         1         1         1
         1         1         1         1         1         1         1         1
         1         1         1         1         1         1         1         1
         1         1         1         1         1         1         1         1
         1         1         1         1         1         1         1         1
         1         1         1         1         1         1         1         1
         1         1         1         1         1         1         1         1
         1         1         1         1         1         1         1         1
         1         1         1         1         1         1         1         1
         1         1         1         1         1         1         1         1
         1         1         1         1         1         1         1         1
         1         1         1         1         1         1         1         1
         1         1         1         1         1         1         1         1
         1         1         1         1         1         1         1         1
         1         1         1         1         1         1         1         1
         1         1         1         1         1         1         1         1
         1         1         1         1         1         1         1         1
         1         1         1         1         1         1         1         1
         1         1         1         1         1         1         1         1
         1         1         1         1         1         1         1         1
         1         1         1         1         1         1         1         1
         1         1         1         1         1         1         1         1
         1         1         1         1         1         1         1         1
         1         1         1         1         1         1         1         1
         1         1         1         1         1         1         1         1
         1         1         1         1         1         1         1         1
         1         1         1         1         1         1         1         1
         1         1         1         1         1         1         1         1
         1         1         1         1         1         1         1         1
         1         1         1         1         1         1         1         1
         1         1         1         1         1         1         1         1
         1         1         1         1         1         1         1         1
         1         1         1         1         1         1         1         1
         1         1         1         1         1         1         1         1
         1         1         1         1         1         1         1         1
         1         1         1         1         1         1         1         1
         1         1         1         1         1         1         1         1
         1         1         1         1         1         1         1         1
         1         1         1         1         1         1         1         1
         1         1         1         1         1         1         1         1
         1         1         1         1         1         1         1         1
         1         1         1         1         1         1         1         1
         1         1         1         1         1         1         1         1
         1         1         1         1         1         1         1         1
         1         1         1         1         1         1         1         1
         1         1         1         1         1         1         1         1
         1         1         1         1         1         1         1         1
         1         1         1         1         1         1         1         1
         1         1         1         1         1         1         1         1
         1         1         1         1         1         1         1         1
         1         1         1         1         1         1         1         1
         1         1         1         1         1         1         1         1
         1         1         1         1         1         1         1         1
         1         1         1         1         1         1         1         1
         1         1         1         1         1         1         1         1
         1         1         1         1         1         1         1         1
         1         1         1         1         1         1         1         1
         1         1         1         1         1         1         1         1
         1         1         1         1         1         1         1         1
         1         1         1         1         1         1         1         1
         1         1         1         1         1         1         1         1
         1         1         1         1         1         1         1         1
         1         1         1         1         1         1         1         1
         1         1         1         1         1         1         1         1
         1         1         1         1         1         1         1         1
         1         1         1         1         1         1         1         1
         1         1         1         1         1         1         1         1
         1         1         1         1         1         1         1         1
         1         1         1         1         1         1         1         1
         1         1         1         1         1         1         1         1
         1         1         1         1         1         1         1         1
         1         1         1         1         1         1         1         1
         1         1         1         1         1         1         1         1
         1         1         1         1         1         1         1         1
         1         1         1         1         1         1         1         1
         1         1         1         1         1         1         1         1
         1         1         1         1         1         1         1         1
         1         1         1         1         1         1         1         1
         1         1         1         1         1         1         1         1
         1         1         1         1         1         1         1         1
         1         1         1         1         1         1         1         1
         1         1         1         1         1         1         1         1
         1         1         1         1         1         1         1         1
         1         1         1         1         1         1         1         1
         1         1         1         1         1         1         1         1
         1         1         1         1         1         1         1         1
         1         1         1         1         1         1         1         1
         1         1         1         1         1         1         1         1
         1         1         1         1         1         1         1         1
         1         1         1         1         1         1         1         1
         1         1         1         1         1         1         1         1
         1         1         1         1         1         1         1         1
         1         1         1         1         1         1         1         1
         1         1         1         1         1         1         1         1
         1         1         1         1         1         1         1         1
         1         1         1         1         1         1         1         1
         1         1         1         1         1         1         1         1
         1         1         1         1         1         1         1         1
         1         1         1         1         1         1         1         1
         1         1         1         1         1         1         1         1
         1         1         1         1         1         1         1         1
         1         1         1         1         1         1         1         1
         1         1         1         1         1         1         1         1
         1         1         1         1         1         1         1         1
         1         1         1         1         1         1         1         1
         1         1         1         1         1         1         1         1
         1         1         1         1         1         1         1         1
         1         1         1         1         1         1         1         1
         1         1         1         1         1         1         1         1
         1         1         1         1         1         1         1         1
         1         1         1         1         1         1         1         1
         1         1         1         1         1         1         1         1
         1         1         1         1         1         1         1         1
         1         1         1         1         1         1         1         1
         1         1         1         1         1         1         1         1
         1         1         1         1         1         1         1         1
         1         1         1         1         1         1         1         1
         1         1         1         1         1         1         1         1
         1         1         1         1         1         1         1         1
         1         1         1         1         1         1         1         1
         1         1         1         1         1         1         1         1
         1         1         1         1         1         1         1         1
         1         1         1         1         1         1         1         1
         1         1         1         1         1         1         1         1
         1         1         1         1         1         1         1         1
         1         1         1         1         1         1         1         1
         1         1         1         1         1         1         1         1
         1         1         1         1         1         1         1         1
         1         1         1         1         1         1         1         1
         1         1         1         1         1         1         1         1
         1         1         1         1         1         1         1         1
         1         1         1         1         1         1         1         1
         1         1         1         1         1         1         1         1
         1         1         1         1         1         1         1         1
         1         1         1         1         1         1         1         1
         1         1         1         1         1         1         1         1
         1         1         1         1         1         1         1         1
         1         1         1         1         1         1         1         1
         1         1         1         1         1         1         1         1
         1         1         1         1         1         1         1         1
         1         1         1         1         1         1         1         1
         1         1         1         1         1         1         1         1
         1         1         1         1         1         1         1         1
         1         1         1         1         1         1         1         1
         1         1         1         1         1         1         1         1
         1         1         1         1         1         1         1         1
         1         1         1         1         1         1         1         1
         1         1         1         1         1         1         1         1
         1         1         1         1         1         1         1         1
         1         1         1         1         1         1         1         1
         1         1         1         1         1         1         1         1
         1         1         1         1         1         1         1         1
         1         1         1         1         1         1         1         1
         1         1         1         1         1         1         1         1
         1         1         1         1         1         1         1         1
         1         1         1         1         1         1         1         1
         1         1         1         1         1         1         1         1
         1         1         1         1         1         1         1         1
         1         1         1         1         1         1         1         1
         1         1         1         1         1         1         1         1
         1         1         1         1         1         1         1         1
         1         1         1         1         1         1         1         1
         1         1         1         1         1         1         1         1
         1         1         1         1         1         1         1         1
         1         1         1         1         1         1         1         1
         1         1         1         1         1         1         1         1
         1         1         1         1         1         1         1         1
         1         1         1         1         1         1         1         1
         1         1         1         1         1         1         1         1
         1         1         1         1         1         1         1         1
         1         1         1         1         1         1         1         1
         1         1         1         1         1         1         1         1
         1         1         1         1         1         1         1         1
         1         1         1         1         1         1         1         1
         1         1         1         1         1         1         1         1
         1         1         1         1         1         1         1         1
         1         1         1         1         1         1         1         1
         1         1         1         1         1         1         1         1
         1         1         1         1         1         1         1         1
         1         1         1         1         1         1         1         1
         1         1         1         1         1         1         1         1
         1         1         1         1         1         1         1         1
         1         1         1         1         1         1         1         1
         1         1         1         1         1         1         1         1
         1         1         1         1         1         1         1         1
         1         1         1         1         1         1         1         1
         1         1         1         1         1         1         1         1
         1         1         1         1         1         1         1         1
         1         1         1         1         1         1         1         1
         1         1         1         1         1         1         1         1
         1         1         1         1         1         1         1         1
         1         1         1         1         1         1         1         1
         1         1         1         1         1         1         1         1
         1         1         1         1         1         1         1         1
         1         1         1         1         1         1         1         1
         1         1         1         1         1         1         1         1
         1         1         1         1         1         1         1         1
         1         1         1         1         1         1         1         1
         1         1         1         1         1         1         1         1
         1         1         1         1         1         1         1         1
         1         1         1         1         1         1         1         1
         1         1         1         1         1         1         1         1
         1         1         1         1         1         1         1         1
         1         1         1         1         1         1         1         1
         1         1         1         1         1         1         1         1
         1         1         1         1         1         1         1         1
         1         1         1         1         1         1         1         1
         1         1         1         1         1         1         1         1
         1         1         1         1         1         1         1         1
         1         1         1         1         1         1         1         1
         1         1         1         1         1         1         1         1
         1         1         1         1         1         1         1         1
         1         1         1         1         1         1         1         1
         1         1         1         1         1         1         1         1
         1         1         1         1         1         1         1         1
         1         1         1         1         1         1         1         1
         1         1         1         1         1         1         1         1
         1         1         1         1         1         1         1         1
         1         1         1         1         1         1         1         1
         1         1         1         1         1         1         1         1
         1         1         1         1         1         1         1         1
         1         1         1         1         1         1         1         1
         1         1         1         1         1         1         1         1
         1         1         1         1         1         1         1         1
         1         1         1         1         1         1         1         1
         1         1         1         1         1         1         1         1
         1         1         1         1         1         1         1         1
         1         1         1         1         1         1         1         1
         1         1         1         1         1         1         1         1
         1         1         1         1         1         1         1         1
         1         1         1         1         1         1         1         1
         1         1         1         1         1         1         1         1
         1         1         1         1         1         1         1         1
         1         1         1         1         1         1         1         1
         1         1         1         1         1         1         1         1
         1         1         1         1         1         1         1         1
         1         1         1         1         1         1         1         1
         1         1         1         1         1         1         1         1
         1         1         1         1         1         1         1         1
         1         1         1         1         1         1         1         1
         1         1         1         1         1         1         1         1
         1         1         1         1         1         1         1         1
         1         1         1         1         1         1         1         1
         1         1         1         1         1         1         1         1
         1         1         1         1         1         1         1         1
         1         1         1         1         1         1         1         1
         1         1         1         1         1         1         1         1
         1         1         1         1         1         1         1         1
         1         1         1         1         1         1         1         1
         1         1         1         1         1         1         1         1
         1         1         1         1         1         1         1         1
         1         1         1         1         1         1         1         1
         1         1         1         1         1         1         1         1
         1         1         1         1         1         1         1         1
         1         1         1         1         1         1         1         1
         1         1         1         1         1         1         1         1
         1         1         1         1         1         1         1         1
         1         1         1         1         1         1         1         1
         1         1         1         1         1         1         1         1
         1         1         1         1         1         1         1         1
         1         1         1         1         1         1         1         1
         1         1         1         1         1         1         1         1
         1         1         1         1         1         1         1         1
         1         1         1         1         1         1         1         1
         1         1         1         1         1         1         1         1
         1         1         1         1         1         1         1         1
         1         1         1         1         1         1         1         1
         1         1         1         1         1         1         1         1
         1         1         1         1         1         1         1         1
         1         1         1         1         1         1         1         1
         1         1         1         1         1         1         1         1
         1         1         1         1         1         1         1         1
         1         1         1         1         1         1         1         1
         1         1         1         1         1         1         1         1
         1         1         1         1         1         1         1         1
         1         1         1         1         1         1         1         1
         1         1         1         1         1         1         1         1
         1         1         1         1         1         1         1         1
         1         1         1         1         1         1         1         1
         1         1         1         1         1         1         1         1
         1         1         1         1         1         1         1         1
         1         1         1         1         1         1         1         1
         1         1         1         1         1         1         1         1
         1         1         1         1         1         1         1         1
         1         1         1         1         1         1         1         1
         1         1         1         1         1         1         1         1
         1         1         1         1         1         1         1         1
         1         1         1         1         1         1         1         1
         1         1         1         1         1         1         1         1
         1         1         1         1         1         1         1         1
         1         1         1         1         1         1         1         1
         1         1         1         1         1         1         1         1
         1         1         1         1         1         1         1         1
         1         1         1         1         1         1         1         1
         1         1         1         1         1         1         1         1
         1         1         1         1         1         1         1         1
         1         1         1         1         1         1         1         1
         1         1         1         1         1         1         1         1
         1         1         1         1         1         1         1         1
         1         1         1         1         1         1         1         1
         1         1         1         1         1         1         1         1
         1         1         1         1         1         1         1         1
         1         1         1         1         1         1         1         1
         1         1         1         1         1         1         1         1
         1         1         1         1         1         1         1         1
         1         1         1         1         1         1         1         1
         1         1         1         1         1         1         1         1
         1         1         1         1         1         1         1         1
         1         1         1         1         1         1         1         1
         1         1         1         1         1         1         1         1
         1         1         1         1         1         1         1         1
         1         1         1         1         1         1         1         1
         1         1         1         1         1         1         1         1
         1         1         1         1         1         1         1         1
         1         1         1         1         1         1         1         1
         1         1         1         1         1         1         1         1
         1         1         1         1         1         1         1         1
         1         1         1         1         1         1         1         1
         1         1         1         1         1         1         1         1
         1         1         1         1         1         1         1         1
         1         1         1         1         1         1         1         1
         1         1         1         1         1         1         1         1
         1         1         1         1         1         1         1         1
         1         1         1         1         1         1         1         1
         1         1         1         1         1         1         1         1
         1         1         1         1         1         1         1         1
         1         1         1         1         1         1         1         1
         1         1         1         1         1         1         1         1
         1         1         1         1         1         1         1         1
         1         1         1         1         1         1         1         1
         1         1         1         1         1         1         1         1
         1         1         1         1         1         1         1         1
         1         1         1         1         1         1         1         1
         1         1         1         1         1         1         1         1
         1         1         1         1         1         1         1         1
         1         1         1         1         1         1         1         1
         1         1         1         1         1         1         1         1
         1         1         1         1         1         1         1         1
         1         1         1         1         1         1         1         1
         1         1         1         1         1         1         1         1
         1         1         1         1         1         1         1         1
         1         1         1         1         1         1         1         1
         1         1         1         1         1         1         1         1
         1         1         1         1         1         1         1         1
         1         1         1         1         1         1         1         1
         1         1         1         1         1         1         1         1
         1         1         1         1         1         1         1         1
         1         1         1         1         1         1         1         1
         1         1         1         1         1         1         1         1
         1         1         1         1         1         1         1         1
         1         1         1         1         1         1         1         1
         1         1         1         1         1         1         1         1
         1         1         1         1         1         1         1         1
         1         1         1         1         1         1         1         1
         1         1         1         1         1         1         1         1
         1         1         1         1         1         1         1         1
         1         1         1         1         1         1         1         1
         1         1         1         1         1         1         1         1
         1         1         1         1         1         1         1         1
         1         1         1         1         1         1         1         1
         1         1         1         1         1         1         1         1
         1         1         1         1         1         1         1         1
         1         1         1         1         1         1         1         1
         1         1         1         1         1         1         1         1
         1         1         1         1         1         1         1         1
         1         1         1         1         1         1         1         1
         1         1         1         1         1         1         1         1
         1         1         1         1         1         1         1         1
         1         1         1         1         1         1         1         1
         1         1         1         1         1         1         1         1
         1         1         1         1         1         1         1         1
         1         1         1         1         1         1         1         1
         1         1         1         1         1         1         1         1
         1         1         1         1         1         1         1         1
         1         1         1         1         1         1         1         1
         1         1         1         1         1         1         1         1
         1         1         1         1         1         1         1         1
         1         1         1         1         1         1         1         1
         1         1         1         1         1         1         1         1
         1         1         1         1         1         1         1         1
         1         1         1         1         1         1         1         1
         1         1         1         1         1         1         1         1
         1         1         1         1         1         1         1         1
         1         1         1         1         1         1         1         1
         1         1         1         1         1         1         1         1
         1         1         1         1         1         1         1         1
         1         1         1         1         1         1         1         1
         1         1         1         1         1         1         1         1
         1         1         1         1         1         1         1         1
         1         1         1         1         1         1         1         1
         1         1         1         1         1         1         1         1
         1         1         1         1         1         1         1         1
         1         1         1         1         1         1         1         1
         1         1         1         1         1         1         1         1
         1         1         1         1         1         1         1         1
         1         1         1         1         1         1         1         1
         1         1         1         1         1         1         1         1
         1         1         1         1         1         1         1         1
         1         1         1         1         1         1         1         1
         1         1         1         1         1         1         1         1
         1         1         1         1         1         1         1         1
         1         1         1         1         1         1         1         1
         1         1         1         1         1         1         1         1
         1         1         1         1         1         1         1         1
         1         1         1         1         1         1         1         1
         1         1         1         1         1         1         1         1
         1         1         1         1         1         1         1         1
         1         1         1         1         1         1         1         1
         1         1         1         1         1         1         1         1
         1         1         1         1         1         1         1         1
         1         1         1         1         1         1         1         1
         1         1         1         1         1         1         1         1
         1         1         1         1         1         1         1         1
         1         1         1         1         1         1         1         1
         1         1         1         1         1         1         1         1
         1         1         1         1         1         1         1         1
         1         1         1         1         1         1         1         1
         1         1         1         1         1         1         1         1
         1         1         1         1         1         1         1         1
         1         1         1         1         1         1         1         1
         1         1         1         1         1         1         1         1
         1         1         1         1         1         1         1         1
         1         1         1         1         1         1         1         1
         1         1         1         1         1         1         1         1
         1         1         1         1         1         1         1         1
         1         1         1         1         1         1         1         1
         1         1         1         1         1         1         1         1
         1         1         1         1         1         1         1         1
         1         1         1         1         1         1         1         1
         1         1         1         1         1         1         1         1
         1         1         1         1         1         1         1         1
         1         1         1         1         1         1         1         1
         1         1         1         1         1         1         1         1
         1         1         1         1         1         1         1         1
         1         1         1         1         1         1         1         1
         1         1         1         1         1         1         1         1
         1         1         1         1         1         1         1         1
         1         1         1         1         1         1         1         1
         1         1         1         1         1         1         1         1
         1         1         1         1         1         1         1         1
         1         1         1         1         1         1         1         1
         1         1         1         1         1         1         1         1
         1         1         1         1         1         1         1         1
         1         1         1         1         1         1         1         1
         1         1         1         1         1         1         1         1
         1         1         1         1         1         1         1         1
         1         1         1         1         1         1         1         1
         1         1         1         1         1         1         1         1
         1         1         1         1         1         1         1         1
         1         1         1         1         1         1         1         1
         1         1         1         1         1         1         1         1
         1         1         1         1         1         1         1         1
         1         1         1         1         1         1         1         1
         1         1         1         1         1         1         1         1
         1         1         1         1         1         1         1         1
         1         1         1         1         1         1         1         1
         1         1         1         1         1         1         1         1
         1         1         1         1         1         1         1         1
         1         1         1         1         1         1         1         1
         1         1         1         1         1         1         1         1
         1         1         1         1         1         1         1         1
         1         1         1         1         1         1         1         1
         1         1         1         1         1         1         1         1
         1         1         1         1         1         1         1         1
         1         1         1         1         1         1         1         1
         1         1         1         1         1         1         1         1
         1         1         1         1         1         1         1         1
         1         1         1         1         1         1         1         1
         1         1         1         1         1         1         1         1
         1         1         1         1         1         1         1         1
         1         1         1         1         1         1         1         1
         1         1         1         1         1         1         1         1
         1         1         1         1         1         1         1         1
         1         1         1         1         1         1         1         1
         1         1         1         1         1         1         1         1
         1         1         1         1         1         1         1         1
         1         1         1         1         1         1         1         1
         1         1         1         1         1         1         1         1
         1         1         1         1         1         1         1         1
         1         1         1         1         1         1         1         1
         1         1         1         1         1         1         1         1
         1         1         1         1         1         1         1         1
         1         1         1         1         1         1         1         1
         1         1         1         1         1         1         1         1
         1         1         1         1         1         1         1         1
         1         1         1         1         1         1         1         1
         1         1         1         1         1         1         1         1
         1         1         1         1         1         1         1         1
         1         1         1         1         1         1         1         1
         1         1         1         1         1         1         1         1
         1         1         1         1         1         1         1         1
         1         1         1         1         1         1         1         1
         1         1         1         1         1         1         1         1
         1         1         1         1         1         1         1         1
         1         1         1         1         1         1         1         1
         1         1         1         1         1         1         1         1
         1         1         1         1         1         1         1         1
         1         1         1         1         1         1         1         1
         1         1         1         1         1         1         1         1
         1         1         1         1         1         1         1         1
         1         1         1         1         1         1         1         1
         1         1         1         1         1         1         1         1
         1         1         1         1         1         1         1         1
         1         1         1         1         1         1         1         1
         1         1         1         1         1         1         1         1
         1         1         1         1         1         1         1         1
         1         1         1         1         1         1         1         1
         1         1         1         1         1         1         1         1
         1         1         1         1         1         1         1         1
         1         1         1         1         1         1         1         1
         1         1         1         1         1         1         1         1
         1         1         1         1         1         1         1         1
         1         1         1         1         1         1         1         1
         1         1         1         1         1         1         1         1
         1         1         1         1         1         1         1         1
         1         1         1         1         1         1         1         1
         1         1         1         1         1         1         1         1
         1         1         1         1         1         1         1         1
         1         1         1         1         1         1         1         1
         1         1         1         1         1         1         1         1
         1         1         1         1         1         1         1         1
         1         1         1         1         1         1         1         1
         1         1         1         1         1         1         1         1
         1         1         1         1         1         1         1         1
         1         1         1         1         1         1         1         1
         1         1         1         1         1         1         1         1
         1         1         1         1         1         1         1         1
         1         1         1         1         1         1         1         1
         1         1         1         1         1         1         1         1
         1         1         1         1         1         1         1         1
         1         1         1         1         1         1         1         1
         1         1         1         1         1         1         1         1
         1         1         1         1         1         1         1         1
         1         1         1         1         1         1         1         1
         1         1         1         1         1         1         1         1
         1         1         1         1         1         1         1         1
         1         1         1         1         1         1         1         1
         1         1         1         1         1         1         1         1
         1         1         1         1         1         1         1         1
         1         1         1         1         1         1         1         1
         1         1         1         1         1         1         1         1
         1         1         1         1         1         1         1         1
         1         1         1         1         1         1         1         1
         1         1         1         1         1         1         1         1
         1         1         1         1         1         1         1         1
         1         1         1         1         1         1         1         1
         1         1         1         1         1         1         1         1

      2500     10000 !NUMLP NUMLPH
         3         1   F -0.300000       179.990       179.990    
         3         5   F -0.300000       179.990       179.990    
         3         9   F -0.300000       179.990       179.990    
         3        13   F -0.300000       179.990       179.990    
         3        17   F -0.300000       179.990       179.990    
         3        21   F -0.300000       179.990       179.990    
         3        25   F -0.300000       179.990       179.990    
         3        29   F -0.300000       179.990       179.990    
         3        33   F -0.300000       179.990       179.990    
         3        37   F -0.300000       179.990       179.990    
         3        41   F -0.300000       179.990       179.990    
         3        45   F -0.300000       179.990       179.990    
         3        49   F -0.300000       179.990       179.990    
         3        53   F -0.300000       179.990       179.990    
         3        57   F -0.300000       179.990       179.990    
         3        61   F -0.300000       179.990       179.990    
         3        65   F -0.300000       179.990       179.990    
         3        69   F -0.300000       179.990       179.990    
         3        73   F -0.300000       179.990       179.990    
         3        77   F -0.300000       179.990       179.990    
         3        81   F -0.300000       179.990       179.990    
         3        85   F -0.300000       179.990       179.990    
         3        89   F -0.300000       179.990       179.990    
         3        93   F -0.300000       179.990       179.990    
         3        97   F -0.300000       179.990       179.990    
         3       101   F -0.300000       179.990       179.990    
         3       105   F -0.300000       179.990       179.990    
         3       109   F -0.300000       179.990       179.990    
         3       113   F -0.300000       179.990       179.990    
         3       117   F -0.300000       179.990       179.990    
         3       121   F -0.300000       179.990       179.990    
         3       125   F -0.300000       179.990       179.990    
         3       129   F -0.300000       179.990       179.990    
         3       133   F -0.300000       179.990       179.990    
         3       137   F -0.300000       179.990       179.990    
         3       141   F -0.300000       179.990       179.990    
         3       145   F -0.300000       179.990       179.990    
         3       149   F -0.300000       179.990       179.990    
         3       153   F -0.300000       179.990       179.990    
         3       157   F -0.300000       179.990       179.990    
         3       161   F -0.300000       179.990       179.990    
         3       165   F -0.300000       179.990       179.990    
         3       169   F -0.300000       179.990       179.990    
         3       173   F -0.300000       179.990       179.990    
         3       177   F -0.300000       179.990       179.990    
         3       181   F -0.300000       179.990       179.990    
         3       185   F -0.300000       179.990       179.990    
         3       189   F -0.300000       179.990       179.990    
         3       193   F -0.300000       179.990       179.990    
         3       197   F -0.300000       179.990       179.990    
         3       201   F -0.300000       179.990       179.990    
         3       205   F -0.300000       179.990       179.990    
         3       209   F -0.300000       179.990       179.990    
         3       213   F -0.300000       179.990       179.990    
         3       217   F -0.300000       179.990       179.990    
         3       221   F -0.300000       179.990       179.990    
         3       225   F -0.300000       179.990       179.990    
         3       229   F -0.300000       179.990       179.990    
         3       233   F -0.300000       179.990       179.990    
         3       237   F -0.300000       179.990       179.990    
         3       241   F -0.300000       179.990       179.990    
         3       245   F -0.300000       179.990       179.990    
         3       249   F -0.300000       179.990       179.990    
         3       253   F -0.300000       179.990       179.990    
         3       257   F -0.300000       179.990       179.990    
         3       261   F -0.300000       179.990       179.990    
         3       265   F -0.300000       179.990       179.990    
         3       269   F -0.300000       179.990       179.990    
         3       273   F -0.300000       179.990       179.990    
         3       277   F -0.300000       179.990       179.990    
         3       281   F -0.300000       179.990       179.990    
         3       285   F -0.300000       179.990       179.990    
         3       289   F -0.300000       179.990       179.990    
         3       293   F -0.300000       179.990       179.990    
         3       297   F -0.300000       179.990       179.990    
         3       301   F -0.300000       179.990       179.990    
         3       305   F -0.300000       179.990       179.990    
         3       309   F -0.300000       179.990       179.990    
         3       313   F -0.300000       179.990       179.990    
         3       317   F -0.300000       179.990       179.990    
         3       321   F -0.300000       179.990       179.990    
         3       325   F -0.300000       179.990       179.990    
         3       329   F -0.300000       179.990       179.990    
         3       333   F -0.300000       179.990       179.990    
         3       337   F -0.300000       179.990       179.990    
         3       341   F -0.300000       179.990       179.990    
         3       345   F -0.300000       179.990       179.990    
         3       349   F -0.300000       179.990       179.990    
         3       353   F -0.300000       179.990       179.990    
         3       357   F -0.300000       179.990       179.990    
         3       361   F -0.300000       179.990       179.990    
         3       365   F -0.300000       179.990       179.990    
         3       369   F -0.300000       179.990       179.990    
         3       373   F -0.300000       179.990       179.990    
         3       377   F -0.300000       179.990       179.990    
         3       381   F -0.300000       179.990       179.990    
         3       385   F -0.300000       179.990       179.990    
         3       389   F -0.300000       179.990       179.990    
         3       393   F -0.300000       179.990       179.990    
         3       397   F -0.300000       179.990       179.990    
         3       401   F -0.300000       179.990       179.990    
         3       405   F -0.300000       179.990       179.990    
         3       409   F -0.300000       179.990       179.990    
         3       413   F -0.300000       179.990       179.990    
         3       417   F -0.300000       179.990       179.990    
         3       421   F -0.300000       179.990       179.990    
         3       425   F -0.300000       179.990       179.990    
         3       429   F -0.300000       179.990       179.990    
         3       433   F -0.300000       179.990       179.990    
         3       437   F -0.300000       179.990       179.990    
         3       441   F -0.300000       179.990       179.990    
         3       445   F -0.300000       179.990       179.990    
         3       449   F -0.300000       179.990       179.990    
         3       453   F -0.300000       179.990       179.990    
         3       457   F -0.300000       179.990       179.990    
         3       461   F -0.300000       179.990       179.990    
         3       465   F -0.300000       179.990       179.990    
         3       469   F -0.300000       179.990       179.990    
         3       473   F -0.300000       179.990       179.990    
         3       477   F -0.300000       179.990       179.990    
         3       481   F -0.300000       179.990       179.990    
         3       485   F -0.300000       179.990       179.990    
         3       489   F -0.300000       179.990       179.990    
         3       493   F -0.300000       179.990       179.990    
         3       497   F -0.300000       179.990       179.990    
         3       501   F -0.300000       179.990       179.990    
         3       505   F -0.300000       179.990       179.990    
         3       509   F -0.300000       179.990       179.990    
         3       513   F -0.300000       179.990       179.990    
         3       517   F -0.300000       179.990       179.990    
         3       521   F -0.300000       179.990       179.990    
         3       525   F -0.300000       179.990       179.990    
         3       529   F -0.300000       179.990       179.990    
         3       533   F -0.300000       179.990       179.990    
         3       537   F -0.300000       179.990       179.990    
         3       541   F -0.300000       179.990       179.990    
         3       545   F -0.300000       179.990       179.990    
         3       549   F -0.300000       179.990       179.990    
         3       553   F -0.300000       179.990       179.990    
         3       557   F -0.300000       179.990       179.990    
         3       561   F -0.300000       179.990       179.990    
         3       565   F -0.300000       179.990       179.990    
         3       569   F -0.300000       179.990       179.990    
         3       573   F -0.300000       179.990       179.990    
         3       577   F -0.300000       179.990       179.990    
         3       581   F -0.300000       179.990       179.990    
         3       585   F -0.300000       179.990       179.990    
         3       589   F -0.300000       179.990       179.990    
         3       593   F -0.300000       179.990       179.990    
         3       597   F -0.300000       179.990       179.990    
         3       601   F -0.300000       179.990       179.990    
         3       605   F -0.300000       179.990       179.990    
         3       609   F -0.300000       179.990       179.990    
         3       613   F -0.300000       179.990       179.990    
         3       617   F -0.300000       179.990       179.990    
         3       621   F -0.300000       179.990       179.990    
         3       625   F -0.300000       179.990       179.990    
         3       629   F -0.300000       179.990       179.990    
         3       633   F -0.300000       179.990       179.990    
         3       637   F -0.300000       179.990       179.990    
         3       641   F -0.300000       179.990       179.990    
         3       645   F -0.300000       179.990       179.990    
         3       649   F -0.300000       179.990       179.990    
         3       653   F -0.300000       179.990       179.990    
         3       657   F -0.300000       179.990       179.990    
         3       661   F -0.300000       179.990       179.990    
         3       665   F -0.300000       179.990       179.990    
         3       669   F -0.300000       179.990       179.990    
         3       673   F -0.300000       179.990       179.990    
         3       677   F -0.300000       179.990       179.990    
         3       681   F -0.300000       179.990       179.990    
         3       685   F -0.300000       179.990       179.990    
         3       689   F -0.300000       179.990       179.990    
         3       693   F -0.300000       179.990       179.990    
         3       697   F -0.300000       179.990       179.990    
         3       701   F -0.300000       179.990       179.990    
         3       705   F -0.300000       179.990       179.990    
         3       709   F -0.300000       179.990       179.990    
         3       713   F -0.300000       179.990       179.990    
         3       717   F -0.300000       179.990       179.990    
         3       721   F -0.300000       179.990       179.990    
         3       725   F -0.300000       179.990       179.990    
         3       729   F -0.300000       179.990       179.990    
         3       733   F -0.300000       179.990       179.990    
         3       737   F -0.300000       179.990       179.990    
         3       741   F -0.300000       179.990       179.990    
         3       745   F -0.300000       179.990       179.990    
         3       749   F -0.300000       179.990       179.990    
         3       753   F -0.300000       179.990       179.990    
         3       757   F -0.300000       179.990       179.990    
         3       761   F -0.300000       179.990       179.990    
         3       765   F -0.300000       179.990       179.990    
         3       769   F -0.300000       179.990       179.990    
         3       773   F -0.300000       179.990       179.990    
         3       777   F -0.300000       179.990       179.990    
         3       781   F -0.300000       179.990       179.990    
         3       785   F -0.300000       179.990       179.990    
         3       789   F -0.300000       179.990       179.990    
         3       793   F -0.300000       179.990       179.990    
         3       797   F -0.300000       179.990       179.990    
         3       801   F -0.300000       179.990       179.990    
         3       805   F -0.300000       179.990       179.990    
         3       809   F -0.300000       179.990       179.990    
         3       813   F -0.300000       179.990       179.990    
         3       817   F -0.300000       179.990       179.990    
         3       821   F -0.300000       179.990       179.990    
         3       825   F -0.300000       179.990       179.990    
         3       829   F -0.300000       179.990       179.990    
         3       833   F -0.300000       179.990       179.990    
         3       837   F -0.300000       179.990       179.990    
         3       841   F -0.300000       179.990       179.990    
         3       845   F -0.300000       179.990       179.990    
         3       849   F -0.300000       179.990       179.990    
         3       853   F -0.300000       179.990       179.990    
         3       857   F -0.300000       179.990       179.990    
         3       861   F -0.300000       179.990       179.990    
         3       865   F -0.300000       179.990       179.990    
         3       869   F -0.300000       179.990       179.990    
         3       873   F -0.300000       179.990       179.990    
         3       877   F -0.300000       179.990       179.990    
         3       881   F -0.300000       179.990       179.990    
         3       885   F -0.300000       179.990       179.990    
         3       889   F -0.300000       179.990       179.990    
         3       893   F -0.300000       179.990       179.990    
         3       897   F -0.300000       179.990       179.990    
         3       901   F -0.300000       179.990       179.990    
         3       905   F -0.300000       179.990       179.990    
         3       909   F -0.300000       179.990       179.990    
         3       913   F -0.300000       179.990       179.990    
         3       917   F -0.300000       179.990       179.990    
         3       921   F -0.300000       179.990       179.990    
         3       925   F -0.300000       179.990       179.990    
         3       929   F -0.300000       179.990       179.990    
         3       933   F -0.300000       179.990       179.990    
         3       937   F -0.300000       179.990       179.990    
         3       941   F -0.300000       179.990       179.990    
         3       945   F -0.300000       179.990       179.990    
         3       949   F -0.300000       179.990       179.990    
         3       953   F -0.300000       179.990       179.990    
         3       957   F -0.300000       179.990       179.990    
         3       961   F -0.300000       179.990       179.990    
         3       965   F -0.300000       179.990       179.990    
         3       969   F -0.300000       179.990       179.990    
         3       973   F -0.300000       179.990       179.990    
         3       977   F -0.300000       179.990       179.990    
         3       981   F -0.300000       179.990       179.990    
         3       985   F -0.300000       179.990       179.990    
         3       989   F -0.300000       179.990       179.990    
         3       993   F -0.300000       179.990       179.990    
         3       997   F -0.300000       179.990       179.990    
         3      1001   F -0.300000       179.990       179.990    
         3      1005   F -0.300000       179.990       179.990    
         3      1009   F -0.300000       179.990       179.990    
         3      1013   F -0.300000       179.990       179.990    
         3      1017   F -0.300000       179.990       179.990    
         3      1021   F -0.300000       179.990       179.990    
         3      1025   F -0.300000       179.990       179.990    
         3      1029   F -0.300000       179.990       179.990    
         3      1033   F -0.300000       179.990       179.990    
         3      1037   F -0.300000       179.990       179.990    
         3      1041   F -0.300000       179.990       179.990    
         3      1045   F -0.300000       179.990       179.990    
         3      1049   F -0.300000       179.990       179.990    
         3      1053   F -0.300000       179.990       179.990    
         3      1057   F -0.300000       179.990       179.990    
         3      1061   F -0.300000       179.990       179.990    
         3      1065   F -0.300000       179.990       179.990    
         3      1069   F -0.300000       179.990       179.990    
         3      1073   F -0.300000       179.990       179.990    
         3      1077   F -0.300000       179.990       179.990    
         3      1081   F -0.300000       179.990       179.990    
         3      1085   F -0.300000       179.990       179.990    
         3      1089   F -0.300000       179.990       179.990    
         3      1093   F -0.300000       179.990       179.990    
         3      1097   F -0.300000       179.990       179.990    
         3      1101   F -0.300000       179.990       179.990    
         3      1105   F -0.300000       179.990       179.990    
         3      1109   F -0.300000       179.990       179.990    
         3      1113   F -0.300000       179.990       179.990    
         3      1117   F -0.300000       179.990       179.990    
         3      1121   F -0.300000       179.990       179.990    
         3      1125   F -0.300000       179.990       179.990    
         3      1129   F -0.300000       179.990       179.990    
         3      1133   F -0.300000       179.990       179.990    
         3      1137   F -0.300000       179.990       179.990    
         3      1141   F -0.300000       179.990       179.990    
         3      1145   F -0.300000       179.990       179.990    
         3      1149   F -0.300000       179.990       179.990    
         3      1153   F -0.300000       179.990       179.990    
         3      1157   F -0.300000       179.990       179.990    
         3      1161   F  0.350000       110.000       0.00000    
         3      1165   F  0.350000       110.000       180.000    
         3      1169   F  0.350000       110.000       0.00000    
         3      1173   F  0.350000       110.000       180.000    
         3      1177   F  0.350000       110.000       0.00000    
         3      1181   F  0.350000       110.000       180.000    
         3      1185   F  0.350000       110.000       0.00000    
         3      1189   F  0.350000       110.000       180.000    
         3      1193   F  0.350000       110.000       0.00000    
         3      1197   F  0.350000       110.000       180.000    
         3      1201   F  0.350000       110.000       0.00000    
         3      1205   F  0.350000       110.000       180.000    
         3      1209   F  0.350000       110.000       0.00000    
         3      1213   F  0.350000       110.000       180.000    
         3      1217   F  0.350000       110.000       0.00000    
         3      1221   F  0.350000       110.000       180.000    
         3      1225   F  0.350000       110.000       0.00000    
         3      1229   F  0.350000       110.000       180.000    
         3      1233   F  0.350000       110.000       0.00000    
         3      1237   F  0.350000       110.000       180.000    
         3      1241   F  0.350000       110.000       0.00000    
         3      1245   F  0.350000       110.000       180.000    
         3      1249   F  0.350000       110.000       0.00000    
         3      1253   F  0.350000       110.000       180.000    
         3      1257   F  0.350000       110.000       0.00000    
         3      1261   F  0.350000       110.000       180.000    
         3      1265   F  0.350000       110.000       0.00000    
         3      1269   F  0.350000       110.000       180.000    
         3      1273   F  0.350000       110.000       0.00000    
         3      1277   F  0.350000       110.000       180.000    
         3      1281   F  0.350000       110.000       0.00000    
         3      1285   F  0.350000       110.000       180.000    
         3      1289   F  0.350000       110.000       0.00000    
         3      1293   F  0.350000       110.000       180.000    
         3      1297   F  0.350000       110.000       0.00000    
         3      1301   F  0.350000       110.000       180.000    
         3      1305   F  0.350000       110.000       0.00000    
         3      1309   F  0.350000       110.000       180.000    
         3      1313   F  0.350000       110.000       0.00000    
         3      1317   F  0.350000       110.000       180.000    
         3      1321   F  0.350000       110.000       0.00000    
         3      1325   F  0.350000       110.000       180.000    
         3      1329   F  0.350000       110.000       0.00000    
         3      1333   F  0.350000       110.000       180.000    
         3      1337   F  0.350000       110.000       0.00000    
         3      1341   F  0.350000       110.000       180.000    
         3      1345   F  0.350000       110.000       0.00000    
         3      1349   F  0.350000       110.000       180.000    
         3      1353   F  0.350000       110.000       0.00000    
         3      1357   F  0.350000       110.000       180.000    
         3      1361   F  0.350000       110.000       0.00000    
         3      1365   F  0.350000       110.000       180.000    
         3      1369   F  0.350000       110.000       0.00000    
         3      1373   F  0.350000       110.000       180.000    
         3      1377   F  0.350000       110.000       0.00000    
         3      1381   F  0.350000       110.000       180.000    
         3      1385   F  0.350000       110.000       0.00000    
         3      1389   F  0.350000       110.000       180.000    
         3      1393   F  0.350000       110.000       0.00000    
         3      1397   F  0.350000       110.000       180.000    
         3      1401   F  0.350000       110.000       0.00000    
         3      1405   F  0.350000       110.000       180.000    
         3      1409   F  0.350000       110.000       0.00000    
         3      1413   F  0.350000       110.000       180.000    
         3      1417   F  0.350000       110.000       0.00000    
         3      1421   F  0.350000       110.000       180.000    
         3      1425   F  0.350000       110.000       0.00000    
         3      1429   F  0.350000       110.000       180.000    
         3      1433   F  0.350000       110.000       0.00000    
         3      1437   F  0.350000       110.000       180.000    
         3      1441   F  0.350000       110.000       0.00000    
         3      1445   F  0.350000       110.000       180.000    
         3      1449   F  0.350000       110.000       0.00000    
         3      1453   F  0.350000       110.000       180.000    
         3      1457   F  0.350000       110.000       0.00000    
         3      1461   F  0.350000       110.000       180.000    
         3      1465   F  0.350000       110.000       0.00000    
         3      1469   F  0.350000       110.000       180.000    
         3      1473   F  0.350000       110.000       0.00000    
         3      1477   F  0.350000       110.000       180.000    
         3      1481   F  0.350000       110.000       0.00000    
         3      1485   F  0.350000       110.000       180.000    
         3      1489   F  0.350000       110.000       0.00000    
         3      1493   F  0.350000       110.000       180.000    
         3      1497   F  0.350000       110.000       0.00000    
         3      1501   F  0.350000       110.000       180.000    
         3      1505   F  0.350000       110.000       0.00000    
         3      1509   F  0.350000       110.000       180.000    
         3      1513   F  0.350000       110.000       0.00000    
         3      1517   F  0.350000       110.000       180.000    
         3      1521   F  0.350000       110.000       0.00000    
         3      1525   F  0.350000       110.000       180.000    
         3      1529   F  0.350000       110.000       0.00000    
         3      1533   F  0.350000       110.000       180.000    
         3      1537   F  0.350000       110.000       0.00000    
         3      1541   F  0.350000       110.000       180.000    
         3      1545   F  0.350000       110.000       0.00000    
         3      1549   F  0.350000       110.000       180.000    
         3      1553   F  0.350000       110.000       0.00000    
         3      1557   F  0.350000       110.000       180.000    
         3      1561   F  0.350000       110.000       0.00000    
         3      1565   F  0.350000       110.000       180.000    
         3      1569   F  0.350000       110.000       0.00000    
         3      1573   F  0.350000       110.000       180.000    
         3      1577   F  0.350000       110.000       0.00000    
         3      1581   F  0.350000       110.000       180.000    
         3      1585   F  0.350000       110.000       0.00000    
         3      1589   F  0.350000       110.000       180.000    
         3      1593   F  0.350000       110.000       0.00000    
         3      1597   F  0.350000       110.000       180.000    
         3      1601   F  0.350000       110.000       0.00000    
         3      1605   F  0.350000       110.000       180.000    
         3      1609   F  0.350000       110.000       0.00000    
         3      1613   F  0.350000       110.000       180.000    
         3      1617   F  0.350000       110.000       0.00000    
         3      1621   F  0.350000       110.000       180.000    
         3      1625   F  0.350000       110.000       0.00000    
         3      1629   F  0.350000       110.000       180.000    
         3      1633   F  0.350000       110.000       0.00000    
         3      1637   F  0.350000       110.000       180.000    
         3      1641   F  0.350000       110.000       0.00000    
         3      1645   F  0.350000       110.000       180.000    
         3      1649   F  0.350000       110.000       0.00000    
         3      1653   F  0.350000       110.000       180.000    
         3      1657   F  0.350000       110.000       0.00000    
         3      1661   F  0.350000       110.000       180.000    
         3      1665   F  0.350000       110.000       0.00000    
         3      1669   F  0.350000       110.000       180.000    
         3      1673   F  0.350000       110.000       0.00000    
         3      1677   F  0.350000       110.000       180.000    
         3      1681   F  0.350000       110.000       0.00000    
         3      1685   F  0.350000       110.000       180.000    
         3      1689   F  0.350000       110.000       0.00000    
         3      1693   F  0.350000       110.000       180.000    
         3      1697   F  0.350000       110.000       0.00000    
         3      1701   F  0.350000       110.000       180.000    
         3      1705   F  0.350000       110.000       0.00000    
         3      1709   F  0.350000       110.000       180.000    
         3      1713   F  0.350000       110.000       0.00000    
         3      1717   F  0.350000       110.000       180.000    
         3      1721   F  0.350000       110.000       0.00000    
         3      1725   F  0.350000       110.000       180.000    
         3      1729   F  0.350000       110.000       0.00000    
         3      1733   F  0.350000       110.000       180.000    
         3      1737   F  0.350000       110.000       0.00000    
         3      1741   F  0.350000       110.000       180.000    
         3      1745   F  0.350000       110.000       0.00000    
         3      1749   F  0.350000       110.000       180.000    
         3      1753   F  0.350000       110.000       0.00000    
         3      1757   F  0.350000       110.000       180.000    
         3      1761   F  0.350000       110.000       0.00000    
         3      1765   F  0.350000       110.000       180.000    
         3      1769   F  0.350000       110.000       0.00000    
         3      1773   F  0.350000       110.000       180.000    
         3      1777   F  0.350000       110.000       0.00000    
         3      1781   F  0.350000       110.000       180.000    
         3      1785   F  0.350000       110.000       0.00000    
         3      1789   F  0.350000       110.000       180.000    
         3      1793   F  0.350000       110.000       0.00000    
         3      1797   F  0.350000       110.000       180.000    
         3      1801   F  0.350000       110.000       0.00000    
         3      1805   F  0.350000       110.000       180.000    
         3      1809   F  0.350000       110.000       0.00000    
         3      1813   F  0.350000       110.000       180.000    
         3      1817   F  0.350000       110.000       0.00000    
         3      1821   F  0.350000       110.000       180.000    
         3      1825   F  0.350000       110.000       0.00000    
         3      1829   F  0.350000       110.000       180.000    
         3      1833   F  0.350000       110.000       0.00000    
         3      1837   F  0.350000       110.000       180.000    
         3      1841   F  0.350000       110.000       0.00000    
         3      1845   F  0.350000       110.000       180.000    
         3      1849   F  0.350000       110.000       0.00000    
         3      1853   F  0.350000       110.000       180.000    
         3      1857   F  0.350000       110.000       0.00000    
         3      1861   F  0.350000       110.000       180.000    
         3      1865   F  0.350000       110.000       0.00000    
         3      1869   F  0.350000       110.000       180.000    
         3      1873   F  0.350000       110.000       0.00000    
         3      1877   F  0.350000       110.000       180.000    
         3      1881   F  0.350000       110.000       0.00000    
         3      1885   F  0.350000       110.000       180.000    
         3      1889   F  0.350000       110.000       0.00000    
         3      1893   F  0.350000       110.000       180.000    
         3      1897   F  0.350000       110.000       0.00000    
         3      1901   F  0.350000       110.000       180.000    
         3      1905   F  0.350000       110.000       0.00000    
         3      1909   F  0.350000       110.000       180.000    
         3      1913   F  0.350000       110.000       0.00000    
         3      1917   F  0.350000       110.000       180.000    
         3      1921   F  0.350000       110.000       0.00000    
         3      1925   F  0.350000       110.000       180.000    
         3      1929   F  0.350000       110.000       0.00000    
         3      1933   F  0.350000       110.000       180.000    
         3      1937   F  0.350000       110.000       0.00000    
         3      1941   F  0.350000       110.000       180.000    
         3      1945   F  0.350000       110.000       0.00000    
         3      1949   F  0.350000       110.000       180.000    
         3      1953   F  0.350000       110.000       0.00000    
         3      1957   F  0.350000       110.000       180.000    
         3      1961   F  0.350000       110.000       0.00000    
         3      1965   F  0.350000       110.000       180.000    
         3      1969   F  0.350000       110.000       0.00000    
         3      1973   F  0.350000       110.000       180.000    
         3      1977   F  0.350000       110.000       0.00000    
         3      1981   F  0.350000       110.000       180.000    
         3      1985   F  0.350000       110.000       0.00000    
         3      1989   F  0.350000       110.000       180.000    
         3      1993   F  0.350000       110.000       0.00000    
         3      1997   F  0.350000       110.000       180.000    
         3      2001   F  0.350000       110.000       0.00000    
         3      2005   F  0.350000       110.000       180.000    
         3      2009   F  0.350000       110.000       0.00000    
         3      2013   F  0.350000       110.000       180.000    
         3      2017   F  0.350000       110.000       0.00000    
         3      2021   F  0.350000       110.000       180.000    
         3      2025   F  0.350000       110.000       0.00000    
         3      2029   F  0.350000       110.000       180.000    
         3      2033   F  0.350000       110.000       0.00000    
         3      2037   F  0.350000       110.000       180.000    
         3      2041   F  0.350000       110.000       0.00000    
         3      2045   F  0.350000       110.000       180.000    
         3      2049   F  0.350000       110.000       0.00000    
         3      2053   F  0.350000       110.000       180.000    
         3      2057   F  0.350000       110.000       0.00000    
         3      2061   F  0.350000       110.000       180.000    
         3      2065   F  0.350000       110.000       0.00000    
         3      2069   F  0.350000       110.000       180.000    
         3      2073   F  0.350000       110.000       0.00000    
         3      2077   F  0.350000       110.000       180.000    
         3      2081   F  0.350000       110.000       0.00000    
         3      2085   F  0.350000       110.000       180.000    
         3      2089   F  0.350000       110.000       0.00000    
         3      2093   F  0.350000       110.000       180.000    
         3      2097   F  0.350000       110.000       0.00000    
         3      2101   F  0.350000       110.000       180.000    
         3      2105   F  0.350000       110.000       0.00000    
         3      2109   F  0.350000       110.000       180.000    
         3      2113   F  0.350000       110.000       0.00000    
         3      2117   F  0.350000       110.000       180.000    
         3      2121   F  0.350000       110.000       0.00000    
         3      2125   F  0.350000       110.000       180.000    
         3      2129   F  0.350000       110.000       0.00000    
         3      2133   F  0.350000       110.000       180.000    
         3      2137   F  0.350000       110.000       0.00000    
         3      2141   F  0.350000       110.000       180.000    
         3      2145   F  0.350000       110.000       0.00000    
         3      2149   F  0.350000       110.000       180.000    
         3      2153   F  0.350000       110.000       0.00000    
         3      2157   F  0.350000       110.000       180.000    
         3      2161   F  0.350000       110.000       0.00000    
         3      2165   F  0.350000       110.000       180.000    
         3      2169   F  0.350000       110.000       0.00000    
         3      2173   F  0.350000       110.000       180.000    
         3      2177   F  0.350000       110.000       0.00000    
         3      2181   F  0.350000       110.000       180.000    
         3      2185   F  0.350000       110.000       0.00000    
         3      2189   F  0.350000       110.000       180.000    
         3      2193   F  0.350000       110.000       0.00000    
         3      2197   F  0.350000       110.000       180.000    
         3      2201   F  0.350000       110.000       0.00000    
         3      2205   F  0.350000       110.000       180.000    
         3      2209   F  0.350000       110.000       0.00000    
         3      2213   F  0.350000       110.000       180.000    
         3      2217   F  0.350000       110.000       0.00000    
         3      2221   F  0.350000       110.000       180.000    
         3      2225   F  0.350000       110.000       0.00000    
         3      2229   F  0.350000       110.000       180.000    
         3      2233   F  0.350000       110.000       0.00000    
         3      2237   F  0.350000       110.000       180.000    
         3      2241   F  0.350000       110.000       0.00000    
         3      2245   F  0.350000       110.000       180.000    
         3      2249   F  0.350000       110.000       0.00000    
         3      2253   F  0.350000       110.000       180.000    
         3      2257   F  0.350000       110.000       0.00000    
         3      2261   F  0.350000       110.000       180.000    
         3      2265   F  0.350000       110.000       0.00000    
         3      2269   F  0.350000       110.000       180.000    
         3      2273   F  0.350000       110.000       0.00000    
         3      2277   F  0.350000       110.000       180.000    
         3      2281   F  0.350000       110.000       0.00000    
         3      2285   F  0.350000       110.000       180.000    
         3      2289   F  0.350000       110.000       0.00000    
         3      2293   F  0.350000       110.000       180.000    
         3      2297   F  0.350000       110.000       0.00000    
         3      2301   F  0.350000       110.000       180.000    
         3      2305   F  0.350000       110.000       0.00000    
         3      2309   F  0.350000       110.000       180.000    
         3      2313   F  0.350000       110.000       0.00000    
         3      2317   F  0.350000       110.000       180.000    
         3      2321   F  0.350000       110.000       0.00000    
         3      2325   F  0.350000       110.000       180.000    
         3      2329   F  0.350000       110.000       0.00000    
         3      2333   F  0.350000       110.000       180.000    
         3      2337   F  0.350000       110.000       0.00000    
         3      2341   F  0.350000       110.000       180.000    
         3      2345   F  0.350000       110.000       0.00000    
         3      2349   F  0.350000       110.000       180.000    
         3      2353   F  0.350000       110.000       0.00000    
         3      2357   F  0.350000       110.000       180.000    
         3      2361   F  0.350000       110.000       0.00000    
         3      2365   F  0.350000       110.000       180.000    
         3      2369   F  0.350000       110.000       0.00000    
         3      2373   F  0.350000       110.000       180.000    
         3      2377   F  0.350000       110.000       0.00000    
         3      2381   F  0.350000       110.000       180.000    
         3      2385   F  0.350000       110.000       0.00000    
         3      2389   F  0.350000       110.000       180.000    
         3      2393   F  0.350000       110.000       0.00000    
         3      2397   F  0.350000       110.000       180.000    
         3      2401   F  0.350000       110.000       0.00000    
         3      2405   F  0.350000       110.000       180.000    
         3      2409   F  0.350000       110.000       0.00000    
         3      2413   F  0.350000       110.000       180.000    
         3      2417   F  0.350000       110.000       0.00000    
         3      2421   F  0.350000       110.000       180.000    
         3      2425   F  0.350000       110.000       0.00000    
         3      2429   F  0.350000       110.000       180.000    
         3      2433   F  0.350000       110.000       0.00000    
         3      2437   F  0.350000       110.000       180.000    
         3      2441   F  0.350000       110.000       0.00000    
         3      2445   F  0.350000       110.000       180.000    
         3      2449   F  0.350000       110.000       0.00000    
         3      2453   F  0.350000       110.000       180.000    
         3      2457   F  0.350000       110.000       0.00000    
         3      2461   F  0.350000       110.000       180.000    
         3      2465   F  0.350000       110.000       0.00000    
         3      2469   F  0.350000       110.000       180.000    
         3      2473   F  0.350000       110.000       0.00000    
         3      2477   F  0.350000       110.000       180.000    
         3      2481   F  0.350000       110.000       0.00000    
         3      2485   F  0.350000       110.000       180.000    
         3      2489   F  0.350000       110.000       0.00000    
         3      2493   F  0.350000       110.000       180.000    
         3      2497   F  0.350000       110.000       0.00000    
         3      2501   F  0.350000       110.000       180.000    
         3      2505   F  0.350000       110.000       0.00000    
         3      2509   F  0.350000       110.000       180.000    
         3      2513   F  0.350000       110.000       0.00000    
         3      2517   F  0.350000       110.000       180.000    
         3      2521   F  0.350000       110.000       0.00000    
         3      2525   F  0.350000       110.000       180.000    
         3      2529   F  0.350000       110.000       0.00000    
         3      2533   F  0.350000       110.000       180.000    
         3      2537   F  0.350000       110.000       0.00000    
         3      2541   F  0.350000       110.000       180.000    
         3      2545   F  0.350000       110.000       0.00000    
         3      2549   F  0.350000       110.000       180.000    
         3      2553   F  0.350000       110.000       0.00000    
         3      2557   F  0.350000       110.000       180.000    
         3      2561   F  0.350000       110.000       0.00000    
         3      2565   F  0.350000       110.000       180.000    
         3      2569   F  0.350000       110.000       0.00000    
         3      2573   F  0.350000       110.000       180.000    
         3      2577   F  0.350000       110.000       0.00000    
         3      2581   F  0.350000       110.000       180.000    
         3      2585   F  0.350000       110.000       0.00000    
         3      2589   F  0.350000       110.000       180.000    
         3      2593   F  0.350000       110.000       0.00000    
         3      2597   F  0.350000       110.000       180.000    
         3      2601   F -0.300000       179.990       179.990    
         3      2605   F -0.300000       179.990       179.990    
         3      2609   F -0.300000       179.990       179.990    
         3      2613   F -0.300000       179.990       179.990    
         3      2617   F -0.300000       179.990       179.990    
         3      2621   F -0.300000       179.990       179.990    
         3      2625   F -0.300000       179.990       179.990    
         3      2629   F -0.300000       179.990       179.990    
         3      2633   F -0.300000       179.990       179.990    
         3      2637   F -0.300000       179.990       179.990    
         3      2641   F -0.300000       179.990       179.990    
         3      2645   F -0.300000       179.990       179.990    
         3      2649   F -0.300000       179.990       179.990    
         3      2653   F -0.300000       179.990       179.990    
         3      2657   F -0.300000       179.990       179.990    
         3      2661   F -0.300000       179.990       179.990    
         3      2665   F -0.300000       179.990       179.990    
         3      2669   F -0.300000       179.990       179.990    
         3      2673   F -0.300000       179.990       179.990    
         3      2677   F -0.300000       179.990       179.990    
         3      2681   F -0.300000       179.990       179.990    
         3      2685   F -0.300000       179.990       179.990    
         3      2689   F -0.300000       179.990       179.990    
         3      2693   F -0.300000       179.990       179.990    
         3      2697   F -0.300000       179.990       179.990    
         3      2701   F -0.300000       179.990       179.990    
         3      2705   F -0.300000       179.990       179.990    
         3      2709   F -0.300000       179.990       179.990    
         3      2713   F -0.300000       179.990       179.990    
         3      2717   F -0.300000       179.990       179.990    
         3      2721   F -0.300000       179.990       179.990    
         3      2725   F -0.300000       179.990       179.990    
         3      2729   F -0.300000       179.990       179.990    
         3      2733   F -0.300000       179.990       179.990    
         3      2737   F -0.300000       179.990       179.990    
         3      2741   F -0.300000       179.990       179.990    
         3      2745   F -0.300000       179.990       179.990    
         3      2749   F -0.300000       179.990       179.990    
         3      2753   F -0.300000       179.990       179.990    
         3      2757   F -0.300000       179.990       179.990    
         3      2761   F -0.300000       179.990       179.990    
         3      2765   F -0.300000       179.990       179.990    
         3      2769   F -0.300000       179.990       179.990    
         3      2773   F -0.300000       179.990       179.990    
         3      2777   F -0.300000       179.990       179.990    
         3      2781   F -0.300000       179.990       179.990    
         3      2785   F -0.300000       179.990       179.990    
         3      2789   F -0.300000       179.990       179.990    
         3      2793   F -0.300000       179.990       179.990    
         3      2797   F -0.300000       179.990       179.990    
         3      2801   F -0.300000       179.990       179.990    
         3      2805   F -0.300000       179.990       179.990    
         3      2809   F -0.300000       179.990       179.990    
         3      2813   F -0.300000       179.990       179.990    
         3      2817   F -0.300000       179.990       179.990    
         3      2821   F -0.300000       179.990       179.990    
         3      2825   F -0.300000       179.990       179.990    
         3      2829   F -0.300000       179.990       179.990    
         3      2833   F -0.300000       179.990       179.990    
         3      2837   F -0.300000       179.990       179.990    
         3      2841   F -0.300000       179.990       179.990    
         3      2845   F -0.300000       179.990       179.990    
         3      2849   F -0.300000       179.990       179.990    
         3      2853   F -0.300000       179.990       179.990    
         3      2857   F -0.300000       179.990       179.990    
         3      2861   F -0.300000       179.990       179.990    
         3      2865   F -0.300000       179.990       179.990    
         3      2869   F -0.300000       179.990       179.990    
         3      2873   F -0.300000       179.990       179.990    
         3      2877   F -0.300000       179.990       179.990    
         3      2881   F -0.300000       179.990       179.990    
         3      2885   F -0.300000       179.990       179.990    
         3      2889   F -0.300000       179.990       179.990    
         3      2893   F -0.300000       179.990       179.990    
         3      2897   F -0.300000       179.990       179.990    
         3      2901   F -0.300000       179.990       179.990    
         3      2905   F -0.300000       179.990       179.990    
         3      2909   F -0.300000       179.990       179.990    
         3      2913   F -0.300000       179.990       179.990    
         3      2917   F -0.300000       179.990       179.990    
         3      2921   F -0.300000       179.990       179.990    
         3      2925   F -0.300000       179.990       179.990    
         3      2929   F -0.300000       179.990       179.990    
         3      2933   F -0.300000       179.990       179.990    
         3      2937   F -0.300000       179.990       179.990    
         3      2941   F -0.300000       179.990       179.990    
         3      2945   F -0.300000       179.990       179.990    
         3      2949   F -0.300000       179.990       179.990    
         3      2953   F -0.300000       179.990       179.990    
         3      2957   F -0.300000       179.990       179.990    
         3      2961   F -0.300000       179.990       179.990    
         3      2965   F -0.300000       179.990       179.990    
         3      2969   F -0.300000       179.990       179.990    
         3      2973   F -0.300000       179.990       179.990    
         3      2977   F -0.300000       179.990       179.990    
         3      2981   F -0.300000       179.990       179.990    
         3      2985   F -0.300000       179.990       179.990    
         3      2989   F -0.300000       179.990       179.990    
         3      2993   F -0.300000       179.990       179.990    
         3      2997   F -0.300000       179.990       179.990    
         3      3001   F -0.300000       179.990       179.990    
         3      3005   F -0.300000       179.990       179.990    
         3      3009   F -0.300000       179.990       179.990    
         3      3013   F -0.300000       179.990       179.990    
         3      3017   F -0.300000       179.990       179.990    
         3      3021   F -0.300000       179.990       179.990    
         3      3025   F -0.300000       179.990       179.990    
         3      3029   F -0.300000       179.990       179.990    
         3      3033   F -0.300000       179.990       179.990    
         3      3037   F -0.300000       179.990       179.990    
         3      3041   F -0.300000       179.990       179.990    
         3      3045   F -0.300000       179.990       179.990    
         3      3049   F -0.300000       179.990       179.990    
         3      3053   F -0.300000       179.990       179.990    
         3      3057   F -0.300000       179.990       179.990    
         3      3061   F -0.300000       179.990       179.990    
         3      3065   F -0.300000       179.990       179.990    
         3      3069   F -0.300000       179.990       179.990    
         3      3073   F -0.300000       179.990       179.990    
         3      3077   F -0.300000       179.990       179.990    
         3      3081   F -0.300000       179.990       179.990    
         3      3085   F -0.300000       179.990       179.990    
         3      3089   F -0.300000       179.990       179.990    
         3      3093   F -0.300000       179.990       179.990    
         3      3097   F -0.300000       179.990       179.990    
         3      3101   F -0.300000       179.990       179.990    
         3      3105   F -0.300000       179.990       179.990    
         3      3109   F -0.300000       179.990       179.990    
         3      3113   F -0.300000       179.990       179.990    
         3      3117   F -0.300000       179.990       179.990    
         3      3121   F -0.300000       179.990       179.990    
         3      3125   F -0.300000       179.990       179.990    
         3      3129   F -0.300000       179.990       179.990    
         3      3133   F -0.300000       179.990       179.990    
         3      3137   F -0.300000       179.990       179.990    
         3      3141   F -0.300000       179.990       179.990    
         3      3145   F -0.300000       179.990       179.990    
         3      3149   F -0.300000       179.990       179.990    
         3      3153   F -0.300000       179.990       179.990    
         3      3157   F -0.300000       179.990       179.990    
         3      3161   F -0.300000       179.990       179.990    
         3      3165   F -0.300000       179.990       179.990    
         3      3169   F -0.300000       179.990       179.990    
         3      3173   F -0.300000       179.990       179.990    
         3      3177   F -0.300000       179.990       179.990    
         3      3181   F -0.300000       179.990       179.990    
         3      3185   F -0.300000       179.990       179.990    
         3      3189   F -0.300000       179.990       179.990    
         3      3193   F -0.300000       179.990       179.990    
         3      3197   F -0.300000       179.990       179.990    
         3      3201   F -0.300000       179.990       179.990    
         3      3205   F -0.300000       179.990       179.990    
         3      3209   F -0.300000       179.990       179.990    
         3      3213   F -0.300000       179.990       179.990    
         3      3217   F -0.300000       179.990       179.990    
         3      3221   F -0.300000       179.990       179.990    
         3      3225   F -0.300000       179.990       179.990    
         3      3229   F -0.300000       179.990       179.990    
         3      3233   F -0.300000       179.990       179.990    
         3      3237   F -0.300000       179.990       179.990    
         3      3241   F -0.300000       179.990       179.990    
         3      3245   F -0.300000       179.990       179.990    
         3      3249   F -0.300000       179.990       179.990    
         3      3253   F -0.300000       179.990       179.990    
         3      3257   F -0.300000       179.990       179.990    
         3      3261   F -0.300000       179.990       179.990    
         3      3265   F -0.300000       179.990       179.990    
         3      3269   F -0.300000       179.990       179.990    
         3      3273   F -0.300000       179.990       179.990    
         3      3277   F -0.300000       179.990       179.990    
         3      3281   F -0.300000       179.990       179.990    
         3      3285   F -0.300000       179.990       179.990    
         3      3289   F -0.300000       179.990       179.990    
         3      3293   F -0.300000       179.990       179.990    
         3      3297   F -0.300000       179.990       179.990    
         3      3301   F -0.300000       179.990       179.990    
         3      3305   F -0.300000       179.990       179.990    
         3      3309   F -0.300000       179.990       179.990    
         3      3313   F -0.300000       179.990       179.990    
         3      3317   F -0.300000       179.990       179.990    
         3      3321   F -0.300000       179.990       179.990    
         3      3325   F -0.300000       179.990       179.990    
         3      3329   F -0.300000       179.990       179.990    
         3      3333   F -0.300000       179.990       179.990    
         3      3337   F -0.300000       179.990       179.990    
         3      3341   F -0.300000       179.990       179.990    
         3      3345   F -0.300000       179.990       179.990    
         3      3349   F -0.300000       179.990       179.990    
         3      3353   F -0.300000       179.990       179.990    
         3      3357   F -0.300000       179.990       179.990    
         3      3361   F -0.300000       179.990       179.990    
         3      3365   F -0.300000       179.990       179.990    
         3      3369   F -0.300000       179.990       179.990    
         3      3373   F -0.300000       179.990       179.990    
         3      3377   F -0.300000       179.990       179.990    
         3      3381   F -0.300000       179.990       179.990    
         3      3385   F -0.300000       179.990       179.990    
         3      3389   F -0.300000       179.990       179.990    
         3      3393   F -0.300000       179.990       179.990    
         3      3397   F -0.300000       179.990       179.990    
         3      3401   F -0.300000       179.990       179.990    
         3      3405   F -0.300000       179.990       179.990    
         3      3409   F -0.300000       179.990       179.990    
         3      3413   F -0.300000       179.990       179.990    
         3      3417   F -0.300000       179.990       179.990    
         3      3421   F -0.300000       179.990       179.990    
         3      3425   F -0.300000       179.990       179.990    
         3      3429   F -0.300000       179.990       179.990    
         3      3433   F -0.300000       179.990       179.990    
         3      3437   F -0.300000       179.990       179.990    
         3      3441   F  0.300000       91.0000       0.00000    
         3      3445   F  0.300000       91.0000       180.000    
         3      3449   F  0.350000       110.900       91.0000    
         3      3453   F  0.350000       110.900       269.000    
         3      3457   F  0.300000       91.0000       0.00000    
         3      3461   F  0.300000       91.0000       180.000    
         3      3465   F  0.350000       110.900       91.0000    
         3      3469   F  0.350000       110.900       269.000    
         3      3473   F  0.300000       91.0000       0.00000    
         3      3477   F  0.300000       91.0000       180.000    
         3      3481   F  0.350000       110.900       91.0000    
         3      3485   F  0.350000       110.900       269.000    
         3      3489   F  0.300000       91.0000       0.00000    
         3      3493   F  0.300000       91.0000       180.000    
         3      3497   F  0.350000       110.900       91.0000    
         3      3501   F  0.350000       110.900       269.000    
         3      3505   F  0.300000       91.0000       0.00000    
         3      3509   F  0.300000       91.0000       180.000    
         3      3513   F  0.350000       110.900       91.0000    
         3      3517   F  0.350000       110.900       269.000    
         3      3521   F  0.300000       91.0000       0.00000    
         3      3525   F  0.300000       91.0000       180.000    
         3      3529   F  0.350000       110.900       91.0000    
         3      3533   F  0.350000       110.900       269.000    
         3      3537   F  0.300000       91.0000       0.00000    
         3      3541   F  0.300000       91.0000       180.000    
         3      3545   F  0.350000       110.900       91.0000    
         3      3549   F  0.350000       110.900       269.000    
         3      3553   F  0.300000       91.0000       0.00000    
         3      3557   F  0.300000       91.0000       180.000    
         3      3561   F  0.350000       110.900       91.0000    
         3      3565   F  0.350000       110.900       269.000    
         3      3569   F  0.300000       91.0000       0.00000    
         3      3573   F  0.300000       91.0000       180.000    
         3      3577   F  0.350000       110.900       91.0000    
         3      3581   F  0.350000       110.900       269.000    
         3      3585   F  0.300000       91.0000       0.00000    
         3      3589   F  0.300000       91.0000       180.000    
         3      3593   F  0.350000       110.900       91.0000    
         3      3597   F  0.350000       110.900       269.000    
         3      3601   F  0.300000       91.0000       0.00000    
         3      3605   F  0.300000       91.0000       180.000    
         3      3609   F  0.350000       110.900       91.0000    
         3      3613   F  0.350000       110.900       269.000    
         3      3617   F  0.300000       91.0000       0.00000    
         3      3621   F  0.300000       91.0000       180.000    
         3      3625   F  0.350000       110.900       91.0000    
         3      3629   F  0.350000       110.900       269.000    
         3      3633   F  0.300000       91.0000       0.00000    
         3      3637   F  0.300000       91.0000       180.000    
         3      3641   F  0.350000       110.900       91.0000    
         3      3645   F  0.350000       110.900       269.000    
         3      3649   F  0.300000       91.0000       0.00000    
         3      3653   F  0.300000       91.0000       180.000    
         3      3657   F  0.350000       110.900       91.0000    
         3      3661   F  0.350000       110.900       269.000    
         3      3665   F  0.300000       91.0000       0.00000    
         3      3669   F  0.300000       91.0000       180.000    
         3      3673   F  0.350000       110.900       91.0000    
         3      3677   F  0.350000       110.900       269.000    
         3      3681   F  0.300000       91.0000       0.00000    
         3      3685   F  0.300000       91.0000       180.000    
         3      3689   F  0.350000       110.900       91.0000    
         3      3693   F  0.350000       110.900       269.000    
         3      3697   F  0.300000       91.0000       0.00000    
         3      3701   F  0.300000       91.0000       180.000    
         3      3705   F  0.350000       110.900       91.0000    
         3      3709   F  0.350000       110.900       269.000    
         3      3713   F  0.300000       91.0000       0.00000    
         3      3717   F  0.300000       91.0000       180.000    
         3      3721   F  0.350000       110.900       91.0000    
         3      3725   F  0.350000       110.900       269.000    
         3      3729   F  0.300000       91.0000       0.00000    
         3      3733   F  0.300000       91.0000       180.000    
         3      3737   F  0.350000       110.900       91.0000    
         3      3741   F  0.350000       110.900       269.000    
         3      3745   F  0.300000       91.0000       0.00000    
         3      3749   F  0.300000       91.0000       180.000    
         3      3753   F  0.350000       110.900       91.0000    
         3      3757   F  0.350000       110.900       269.000    
         3      3761   F  0.300000       91.0000       0.00000    
         3      3765   F  0.300000       91.0000       180.000    
         3      3769   F  0.350000       110.900       91.0000    
         3      3773   F  0.350000       110.900       269.000    
         3      3777   F  0.300000       91.0000       0.00000    
         3      3781   F  0.300000       91.0000       180.000    
         3      3785   F  0.350000       110.900       91.0000    
         3      3789   F  0.350000       110.900       269.000    
         3      3793   F  0.300000       91.0000       0.00000    
         3      3797   F  0.300000       91.0000       180.000    
         3      3801   F  0.350000       110.900       91.0000    
         3      3805   F  0.350000       110.900       269.000    
         3      3809   F  0.300000       91.0000       0.00000    
         3      3813   F  0.300000       91.0000       180.000    
         3      3817   F  0.350000       110.900       91.0000    
         3      3821   F  0.350000       110.900       269.000    
         3      3825   F  0.300000       91.0000       0.00000    
         3      3829   F  0.300000       91.0000       180.000    
         3      3833   F  0.350000       110.900       91.0000    
         3      3837   F  0.350000       110.900       269.000    
         3      3841   F  0.300000       91.0000       0.00000    
         3      3845   F  0.300000       91.0000       180.000    
         3      3849   F  0.350000       110.900       91.0000    
         3      3853   F  0.350000       110.900       269.000    
         3      3857   F  0.300000       91.0000       0.00000    
         3      3861   F  0.300000       91.0000       180.000    
         3      3865   F  0.350000       110.900       91.0000    
         3      3869   F  0.350000       110.900       269.000    
         3      3873   F  0.300000       91.0000       0.00000    
         3      3877   F  0.300000       91.0000       180.000    
         3      3881   F  0.350000       110.900       91.0000    
         3      3885   F  0.350000       110.900       269.000    
         3      3889   F  0.300000       91.0000       0.00000    
         3      3893   F  0.300000       91.0000       180.000    
         3      3897   F  0.350000       110.900       91.0000    
         3      3901   F  0.350000       110.900       269.000    
         3      3905   F  0.300000       91.0000       0.00000    
         3      3909   F  0.300000       91.0000       180.000    
         3      3913   F  0.350000       110.900       91.0000    
         3      3917   F  0.350000       110.900       269.000    
         3      3921   F  0.300000       91.0000       0.00000    
         3      3925   F  0.300000       91.0000       180.000    
         3      3929   F  0.350000       110.900       91.0000    
         3      3933   F  0.350000       110.900       269.000    
         3      3937   F  0.300000       91.0000       0.00000    
         3      3941   F  0.300000       91.0000       180.000    
         3      3945   F  0.350000       110.900       91.0000    
         3      3949   F  0.350000       110.900       269.000    
         3      3953   F  0.300000       91.0000       0.00000    
         3      3957   F  0.300000       91.0000       180.000    
         3      3961   F  0.350000       110.900       91.0000    
         3      3965   F  0.350000       110.900       269.000    
         3      3969   F  0.300000       91.0000       0.00000    
         3      3973   F  0.300000       91.0000       180.000    
         3      3977   F  0.350000       110.900       91.0000    
         3      3981   F  0.350000       110.900       269.000    
         3      3985   F  0.300000       91.0000       0.00000    
         3      3989   F  0.300000       91.0000       180.000    
         3      3993   F  0.350000       110.900       91.0000    
         3      3997   F  0.350000       110.900       269.000    
         3      4001   F  0.300000       91.0000       0.00000    
         3      4005   F  0.300000       91.0000       180.000    
         3      4009   F  0.350000       110.900       91.0000    
         3      4013   F  0.350000       110.900       269.000    
         3      4017   F  0.300000       91.0000       0.00000    
         3      4021   F  0.300000       91.0000       180.000    
         3      4025   F  0.350000       110.900       91.0000    
         3      4029   F  0.350000       110.900       269.000    
         3      4033   F  0.300000       91.0000       0.00000    
         3      4037   F  0.300000       91.0000       180.000    
         3      4041   F  0.350000       110.900       91.0000    
         3      4045   F  0.350000       110.900       269.000    
         3      4049   F  0.300000       91.0000       0.00000    
         3      4053   F  0.300000       91.0000       180.000    
         3      4057   F  0.350000       110.900       91.0000    
         3      4061   F  0.350000       110.900       269.000    
         3      4065   F  0.300000       91.0000       0.00000    
         3      4069   F  0.300000       91.0000       180.000    
         3      4073   F  0.350000       110.900       91.0000    
         3      4077   F  0.350000       110.900       269.000    
         3      4081   F  0.300000       91.0000       0.00000    
         3      4085   F  0.300000       91.0000       180.000    
         3      4089   F  0.350000       110.900       91.0000    
         3      4093   F  0.350000       110.900       269.000    
         3      4097   F  0.300000       91.0000       0.00000    
         3      4101   F  0.300000       91.0000       180.000    
         3      4105   F  0.350000       110.900       91.0000    
         3      4109   F  0.350000       110.900       269.000    
         3      4113   F  0.300000       91.0000       0.00000    
         3      4117   F  0.300000       91.0000       180.000    
         3      4121   F  0.350000       110.900       91.0000    
         3      4125   F  0.350000       110.900       269.000    
         3      4129   F  0.300000       91.0000       0.00000    
         3      4133   F  0.300000       91.0000       180.000    
         3      4137   F  0.350000       110.900       91.0000    
         3      4141   F  0.350000       110.900       269.000    
         3      4145   F  0.300000       91.0000       0.00000    
         3      4149   F  0.300000       91.0000       180.000    
         3      4153   F  0.350000       110.900       91.0000    
         3      4157   F  0.350000       110.900       269.000    
         3      4161   F  0.300000       91.0000       0.00000    
         3      4165   F  0.300000       91.0000       180.000    
         3      4169   F  0.350000       110.900       91.0000    
         3      4173   F  0.350000       110.900       269.000    
         3      4177   F  0.300000       91.0000       0.00000    
         3      4181   F  0.300000       91.0000       180.000    
         3      4185   F  0.350000       110.900       91.0000    
         3      4189   F  0.350000       110.900       269.000    
         3      4193   F  0.300000       91.0000       0.00000    
         3      4197   F  0.300000       91.0000       180.000    
         3      4201   F  0.350000       110.900       91.0000    
         3      4205   F  0.350000       110.900       269.000    
         3      4209   F  0.300000       91.0000       0.00000    
         3      4213   F  0.300000       91.0000       180.000    
         3      4217   F  0.350000       110.900       91.0000    
         3      4221   F  0.350000       110.900       269.000    
         3      4225   F  0.300000       91.0000       0.00000    
         3      4229   F  0.300000       91.0000       180.000    
         3      4233   F  0.350000       110.900       91.0000    
         3      4237   F  0.350000       110.900       269.000    
         3      4241   F  0.300000       91.0000       0.00000    
         3      4245   F  0.300000       91.0000       180.000    
         3      4249   F  0.350000       110.900       91.0000    
         3      4253   F  0.350000       110.900       269.000    
         3      4257   F  0.300000       91.0000       0.00000    
         3      4261   F  0.300000       91.0000       180.000    
         3      4265   F  0.350000       110.900       91.0000    
         3      4269   F  0.350000       110.900       269.000    
         3      4273   F  0.300000       91.0000       0.00000    
         3      4277   F  0.300000       91.0000       180.000    
         3      4281   F  0.350000       110.900       91.0000    
         3      4285   F  0.350000       110.900       269.000    
         3      4289   F  0.300000       91.0000       0.00000    
         3      4293   F  0.300000       91.0000       180.000    
         3      4297   F  0.350000       110.900       91.0000    
         3      4301   F  0.350000       110.900       269.000    
         3      4305   F  0.300000       91.0000       0.00000    
         3      4309   F  0.300000       91.0000       180.000    
         3      4313   F  0.350000       110.900       91.0000    
         3      4317   F  0.350000       110.900       269.000    
         3      4321   F  0.300000       91.0000       0.00000    
         3      4325   F  0.300000       91.0000       180.000    
         3      4329   F  0.350000       110.900       91.0000    
         3      4333   F  0.350000       110.900       269.000    
         3      4337   F  0.300000       91.0000       0.00000    
         3      4341   F  0.300000       91.0000       180.000    
         3      4345   F  0.350000       110.900       91.0000    
         3      4349   F  0.350000       110.900       269.000    
         3      4353   F  0.300000       91.0000       0.00000    
         3      4357   F  0.300000       91.0000       180.000    
         3      4361   F  0.350000       110.900       91.0000    
         3      4365   F  0.350000       110.900       269.000    
         3      4369   F  0.300000       91.0000       0.00000    
         3      4373   F  0.300000       91.0000       180.000    
         3      4377   F  0.350000       110.900       91.0000    
         3      4381   F  0.350000       110.900       269.000    
         3      4385   F  0.300000       91.0000       0.00000    
         3      4389   F  0.300000       91.0000       180.000    
         3      4393   F  0.350000       110.900       91.0000    
         3      4397   F  0.350000       110.900       269.000    
         3      4401   F  0.300000       91.0000       0.00000    
         3      4405   F  0.300000       91.0000       180.000    
         3      4409   F  0.350000       110.900       91.0000    
         3      4413   F  0.350000       110.900       269.000    
         3      4417   F  0.300000       91.0000       0.00000    
         3      4421   F  0.300000       91.0000       180.000    
         3      4425   F  0.350000       110.900       91.0000    
         3      4429   F  0.350000       110.900       269.000    
         3      4433   F  0.300000       91.0000       0.00000    
         3      4437   F  0.300000       91.0000       180.000    
         3      4441   F  0.350000       110.900       91.0000    
         3      4445   F  0.350000       110.900       269.000    
         3      4449   F  0.300000       91.0000       0.00000    
         3      4453   F  0.300000       91.0000       180.000    
         3      4457   F  0.350000       110.900       91.0000    
         3      4461   F  0.350000       110.900       269.000    
         3      4465   F  0.300000       91.0000       0.00000    
         3      4469   F  0.300000       91.0000       180.000    
         3      4473   F  0.350000       110.900       91.0000    
         3      4477   F  0.350000       110.900       269.000    
         3      4481   F  0.300000       91.0000       0.00000    
         3      4485   F  0.300000       91.0000       180.000    
         3      4489   F  0.350000       110.900       91.0000    
         3      4493   F  0.350000       110.900       269.000    
         3      4497   F  0.300000       91.0000       0.00000    
         3      4501   F  0.300000       91.0000       180.000    
         3      4505   F  0.350000       110.900       91.0000    
         3      4509   F  0.350000       110.900       269.000    
         3      4513   F  0.300000       91.0000       0.00000    
         3      4517   F  0.300000       91.0000       180.000    
         3      4521   F  0.350000       110.900       91.0000    
         3      4525   F  0.350000       110.900       269.000    
         3      4529   F  0.300000       91.0000       0.00000    
         3      4533   F  0.300000       91.0000       180.000    
         3      4537   F  0.350000       110.900       91.0000    
         3      4541   F  0.350000       110.900       269.000    
         3      4545   F  0.300000       91.0000       0.00000    
         3      4549   F  0.300000       91.0000       180.000    
         3      4553   F  0.350000       110.900       91.0000    
         3      4557   F  0.350000       110.900       269.000    
         3      4561   F  0.300000       91.0000       0.00000    
         3      4565   F  0.300000       91.0000       180.000    
         3      4569   F  0.350000       110.900       91.0000    
         3      4573   F  0.350000       110.900       269.000    
         3      4577   F  0.300000       91.0000       0.00000    
         3      4581   F  0.300000       91.0000       180.000    
         3      4585   F  0.350000       110.900       91.0000    
         3      4589   F  0.350000       110.900       269.000    
         3      4593   F  0.300000       91.0000       0.00000    
         3      4597   F  0.300000       91.0000       180.000    
         3      4601   F  0.350000       110.900       91.0000    
         3      4605   F  0.350000       110.900       269.000    
         3      4609   F  0.300000       91.0000       0.00000    
         3      4613   F  0.300000       91.0000       180.000    
         3      4617   F  0.350000       110.900       91.0000    
         3      4621   F  0.350000       110.900       269.000    
         3      4625   F  0.300000       91.0000       0.00000    
         3      4629   F  0.300000       91.0000       180.000    
         3      4633   F  0.350000       110.900       91.0000    
         3      4637   F  0.350000       110.900       269.000    
         3      4641   F  0.300000       91.0000       0.00000    
         3      4645   F  0.300000       91.0000       180.000    
         3      4649   F  0.350000       110.900       91.0000    
         3      4653   F  0.350000       110.900       269.000    
         3      4657   F  0.300000       91.0000       0.00000    
         3      4661   F  0.300000       91.0000       180.000    
         3      4665   F  0.350000       110.900       91.0000    
         3      4669   F  0.350000       110.900       269.000    
         3      4673   F  0.300000       91.0000       0.00000    
         3      4677   F  0.300000       91.0000       180.000    
         3      4681   F  0.350000       110.900       91.0000    
         3      4685   F  0.350000       110.900       269.000    
         3      4689   F  0.300000       91.0000       0.00000    
         3      4693   F  0.300000       91.0000       180.000    
         3      4697   F  0.350000       110.900       91.0000    
         3      4701   F  0.350000       110.900       269.000    
         3      4705   F  0.300000       91.0000       0.00000    
         3      4709   F  0.300000       91.0000       180.000    
         3      4713   F  0.350000       110.900       91.0000    
         3      4717   F  0.350000       110.900       269.000    
         3      4721   F  0.300000       91.0000       0.00000    
         3      4725   F  0.300000       91.0000       180.000    
         3      4729   F  0.350000       110.900       91.0000    
         3      4733   F  0.350000       110.900       269.000    
         3      4737   F  0.300000       91.0000       0.00000    
         3      4741   F  0.300000       91.0000       180.000    
         3      4745   F  0.350000       110.900       91.0000    
         3      4749   F  0.350000       110.900       269.000    
         3      4753   F  0.300000       91.0000       0.00000    
         3      4757   F  0.300000       91.0000       180.000    
         3      4761   F  0.350000       110.900       91.0000    
         3      4765   F  0.350000       110.900       269.000    
         3      4769   F  0.300000       91.0000       0.00000    
         3      4773   F  0.300000       91.0000       180.000    
         3      4777   F  0.350000       110.900       91.0000    
         3      4781   F  0.350000       110.900       269.000    
         3      4785   F  0.300000       91.0000       0.00000    
         3      4789   F  0.300000       91.0000       180.000    
         3      4793   F  0.350000       110.900       91.0000    
         3      4797   F  0.350000       110.900       269.000    
         3      4801   F  0.300000       91.0000       0.00000    
         3      4805   F  0.300000       91.0000       180.000    
         3      4809   F  0.350000       110.900       91.0000    
         3      4813   F  0.350000       110.900       269.000    
         3      4817   F  0.300000       91.0000       0.00000    
         3      4821   F  0.300000       91.0000       180.000    
         3      4825   F  0.350000       110.900       91.0000    
         3      4829   F  0.350000       110.900       269.000    
         3      4833   F  0.300000       91.0000       0.00000    
         3      4837   F  0.300000       91.0000       180.000    
         3      4841   F  0.350000       110.900       91.0000    
         3      4845   F  0.350000       110.900       269.000    
         3      4849   F  0.300000       91.0000       0.00000    
         3      4853   F  0.300000       91.0000       180.000    
         3      4857   F  0.350000       110.900       91.0000    
         3      4861   F  0.350000       110.900       269.000    
         3      4865   F  0.300000       91.0000       0.00000    
         3      4869   F  0.300000       91.0000       180.000    
         3      4873   F  0.350000       110.900       91.0000    
         3      4877   F  0.350000       110.900       269.000    
         3      4881   F  0.300000       91.0000       0.00000    
         3      4885   F  0.300000       91.0000       180.000    
         3      4889   F  0.350000       110.900       91.0000    
         3      4893   F  0.350000       110.900       269.000    
         3      4897   F  0.300000       91.0000       0.00000    
         3      4901   F  0.300000       91.0000       180.000    
         3      4905   F  0.350000       110.900       91.0000    
         3      4909   F  0.350000       110.900       269.000    
         3      4913   F  0.300000       91.0000       0.00000    
         3      4917   F  0.300000       91.0000       180.000    
         3      4921   F  0.350000       110.900       91.0000    
         3      4925   F  0.350000       110.900       269.000    
         3      4929   F  0.300000       91.0000       0.00000    
         3      4933   F  0.300000       91.0000       180.000    
         3      4937   F  0.350000       110.900       91.0000    
         3      4941   F  0.350000       110.900       269.000    
         3      4945   F  0.300000       91.0000       0.00000    
         3      4949   F  0.300000       91.0000       180.000    
         3      4953   F  0.350000       110.900       91.0000    
         3      4957   F  0.350000       110.900       269.000    
         3      4961   F  0.300000       91.0000       0.00000    
         3      4965   F  0.300000       91.0000       180.000    
         3      4969   F  0.350000       110.900       91.0000    
         3      4973   F  0.350000       110.900       269.000    
         3      4977   F  0.300000       91.0000       0.00000    
         3      4981   F  0.300000       91.0000       180.000    
         3      4985   F  0.350000       110.900       91.0000    
         3      4989   F  0.350000       110.900       269.000    
         3      4993   F  0.300000       91.0000       0.00000    
         3      4997   F  0.300000       91.0000       180.000    
         3      5001   F  0.350000       110.900       91.0000    
         3      5005   F  0.350000       110.900       269.000    
         3      5009   F  0.300000       91.0000       0.00000    
         3      5013   F  0.300000       91.0000       180.000    
         3      5017   F  0.350000       110.900       91.0000    
         3      5021   F  0.350000       110.900       269.000    
         3      5025   F  0.300000       91.0000       0.00000    
         3      5029   F  0.300000       91.0000       180.000    
         3      5033   F  0.350000       110.900       91.0000    
         3      5037   F  0.350000       110.900       269.000    
         3      5041   F  0.300000       91.0000       0.00000    
         3      5045   F  0.300000       91.0000       180.000    
         3      5049   F  0.350000       110.900       91.0000    
         3      5053   F  0.350000       110.900       269.000    
         3      5057   F  0.300000       91.0000       0.00000    
         3      5061   F  0.300000       91.0000       180.000    
         3      5065   F  0.350000       110.900       91.0000    
         3      5069   F  0.350000       110.900       269.000    
         3      5073   F  0.300000       91.0000       0.00000    
         3      5077   F  0.300000       91.0000       180.000    
         3      5081   F  0.350000       110.900       91.0000    
         3      5085   F  0.350000       110.900       269.000    
         3      5089   F  0.300000       91.0000       0.00000    
         3      5093   F  0.300000       91.0000       180.000    
         3      5097   F  0.350000       110.900       91.0000    
         3      5101   F  0.350000       110.900       269.000    
         3      5105   F  0.300000       91.0000       0.00000    
         3      5109   F  0.300000       91.0000       180.000    
         3      5113   F  0.350000       110.900       91.0000    
         3      5117   F  0.350000       110.900       269.000    
         3      5121   F  0.300000       91.0000       0.00000    
         3      5125   F  0.300000       91.0000       180.000    
         3      5129   F  0.350000       110.900       91.0000    
         3      5133   F  0.350000       110.900       269.000    
         3      5137   F  0.300000       91.0000       0.00000    
         3      5141   F  0.300000       91.0000       180.000    
         3      5145   F  0.350000       110.900       91.0000    
         3      5149   F  0.350000       110.900       269.000    
         3      5153   F  0.300000       91.0000       0.00000    
         3      5157   F  0.300000       91.0000       180.000    
         3      5161   F  0.350000       110.900       91.0000    
         3      5165   F  0.350000       110.900       269.000    
         3      5169   F  0.300000       91.0000       0.00000    
         3      5173   F  0.300000       91.0000       180.000    
         3      5177   F  0.350000       110.900       91.0000    
         3      5181   F  0.350000       110.900       269.000    
         3      5185   F  0.300000       91.0000       0.00000    
         3      5189   F  0.300000       91.0000       180.000    
         3      5193   F  0.350000       110.900       91.0000    
         3      5197   F  0.350000       110.900       269.000    
         3      5201   F  0.300000       91.0000       0.00000    
         3      5205   F  0.300000       91.0000       180.000    
         3      5209   F  0.350000       110.900       91.0000    
         3      5213   F  0.350000       110.900       269.000    
         3      5217   F  0.300000       91.0000       0.00000    
         3      5221   F  0.300000       91.0000       180.000    
         3      5225   F  0.350000       110.900       91.0000    
         3      5229   F  0.350000       110.900       269.000    
         3      5233   F  0.300000       91.0000       0.00000    
         3      5237   F  0.300000       91.0000       180.000    
         3      5241   F  0.350000       110.900       91.0000    
         3      5245   F  0.350000       110.900       269.000    
         3      5249   F  0.300000       91.0000       0.00000    
         3      5253   F  0.300000       91.0000       180.000    
         3      5257   F  0.350000       110.900       91.0000    
         3      5261   F  0.350000       110.900       269.000    
         3      5265   F  0.300000       91.0000       0.00000    
         3      5269   F  0.300000       91.0000       180.000    
         3      5273   F  0.350000       110.900       91.0000    
         3      5277   F  0.350000       110.900       269.000    
         3      5281   F  0.300000       91.0000       0.00000    
         3      5285   F  0.300000       91.0000       180.000    
         3      5289   F  0.350000       110.900       91.0000    
         3      5293   F  0.350000       110.900       269.000    
         3      5297   F  0.300000       91.0000       0.00000    
         3      5301   F  0.300000       91.0000       180.000    
         3      5305   F  0.350000       110.900       91.0000    
         3      5309   F  0.350000       110.900       269.000    
         3      5313   F  0.300000       91.0000       0.00000    
         3      5317   F  0.300000       91.0000       180.000    
         3      5321   F  0.350000       110.900       91.0000    
         3      5325   F  0.350000       110.900       269.000    
         3      5329   F  0.300000       91.0000       0.00000    
         3      5333   F  0.300000       91.0000       180.000    
         3      5337   F  0.350000       110.900       91.0000    
         3      5341   F  0.350000       110.900       269.000    
         3      5345   F  0.300000       91.0000       0.00000    
         3      5349   F  0.300000       91.0000       180.000    
         3      5353   F  0.350000       110.900       91.0000    
         3      5357   F  0.350000       110.900       269.000    
         3      5361   F  0.300000       91.0000       0.00000    
         3      5365   F  0.300000       91.0000       180.000    
         3      5369   F  0.350000       110.900       91.0000    
         3      5373   F  0.350000       110.900       269.000    
         3      5377   F  0.300000       91.0000       0.00000    
         3      5381   F  0.300000       91.0000       180.000    
         3      5385   F  0.350000       110.900       91.0000    
         3      5389   F  0.350000       110.900       269.000    
         3      5393   F  0.300000       91.0000       0.00000    
         3      5397   F  0.300000       91.0000       180.000    
         3      5401   F  0.350000       110.900       91.0000    
         3      5405   F  0.350000       110.900       269.000    
         3      5409   F  0.300000       91.0000       0.00000    
         3      5413   F  0.300000       91.0000       180.000    
         3      5417   F  0.350000       110.900       91.0000    
         3      5421   F  0.350000       110.900       269.000    
         3      5425   F  0.300000       91.0000       0.00000    
         3      5429   F  0.300000       91.0000       180.000    
         3      5433   F  0.350000       110.900       91.0000    
         3      5437   F  0.350000       110.900       269.000    
         3      5441   F  0.300000       91.0000       0.00000    
         3      5445   F  0.300000       91.0000       180.000    
         3      5449   F  0.350000       110.900       91.0000    
         3      5453   F  0.350000       110.900       269.000    
         3      5457   F  0.300000       91.0000       0.00000    
         3      5461   F  0.300000       91.0000       180.000    
         3      5465   F  0.350000       110.900       91.0000    
         3      5469   F  0.350000       110.900       269.000    
         3      5473   F  0.300000       91.0000       0.00000    
         3      5477   F  0.300000       91.0000       180.000    
         3      5481   F  0.350000       110.900       91.0000    
         3      5485   F  0.350000       110.900       269.000    
         3      5489   F  0.300000       91.0000       0.00000    
         3      5493   F  0.300000       91.0000       180.000    
         3      5497   F  0.350000       110.900       91.0000    
         3      5501   F  0.350000       110.900       269.000    
         3      5505   F  0.300000       91.0000       0.00000    
         3      5509   F  0.300000       91.0000       180.000    
         3      5513   F  0.350000       110.900       91.0000    
         3      5517   F  0.350000       110.900       269.000    
         3      5521   F  0.300000       91.0000       0.00000    
         3      5525   F  0.300000       91.0000       180.000    
         3      5529   F  0.350000       110.900       91.0000    
         3      5533   F  0.350000       110.900       269.000    
         3      5537   F  0.300000       91.0000       0.00000    
         3      5541   F  0.300000       91.0000       180.000    
         3      5545   F  0.350000       110.900       91.0000    
         3      5549   F  0.350000       110.900       269.000    
         3      5553   F  0.300000       91.0000       0.00000    
         3      5557   F  0.300000       91.0000       180.000    
         3      5561   F  0.350000       110.900       91.0000    
         3      5565   F  0.350000       110.900       269.000    
         3      5569   F  0.300000       91.0000       0.00000    
         3      5573   F  0.300000       91.0000       180.000    
         3      5577   F  0.350000       110.900       91.0000    
         3      5581   F  0.350000       110.900       269.000    
         3      5585   F  0.300000       91.0000       0.00000    
         3      5589   F  0.300000       91.0000       180.000    
         3      5593   F  0.350000       110.900       91.0000    
         3      5597   F  0.350000       110.900       269.000    
         3      5601   F  0.300000       91.0000       0.00000    
         3      5605   F  0.300000       91.0000       180.000    
         3      5609   F  0.350000       110.900       91.0000    
         3      5613   F  0.350000       110.900       269.000    
         3      5617   F  0.300000       91.0000       0.00000    
         3      5621   F  0.300000       91.0000       180.000    
         3      5625   F  0.350000       110.900       91.0000    
         3      5629   F  0.350000       110.900       269.000    
         3      5633   F  0.300000       91.0000       0.00000    
         3      5637   F  0.300000       91.0000       180.000    
         3      5641   F  0.350000       110.900       91.0000    
         3      5645   F  0.350000       110.900       269.000    
         3      5649   F  0.300000       91.0000       0.00000    
         3      5653   F  0.300000       91.0000       180.000    
         3      5657   F  0.350000       110.900       91.0000    
         3      5661   F  0.350000       110.900       269.000    
         3      5665   F  0.300000       91.0000       0.00000    
         3      5669   F  0.300000       91.0000       180.000    
         3      5673   F  0.350000       110.900       91.0000    
         3      5677   F  0.350000       110.900       269.000    
         3      5681   F  0.300000       91.0000       0.00000    
         3      5685   F  0.300000       91.0000       180.000    
         3      5689   F  0.350000       110.900       91.0000    
         3      5693   F  0.350000       110.900       269.000    
         3      5697   F  0.300000       91.0000       0.00000    
         3      5701   F  0.300000       91.0000       180.000    
         3      5705   F  0.350000       110.900       91.0000    
         3      5709   F  0.350000       110.900       269.000    
         3      5713   F  0.300000       91.0000       0.00000    
         3      5717   F  0.300000       91.0000       180.000    
         3      5721   F  0.350000       110.900       91.0000    
         3      5725   F  0.350000       110.900       269.000    
         3      5729   F  0.300000       91.0000       0.00000    
         3      5733   F  0.300000       91.0000       180.000    
         3      5737   F  0.350000       110.900       91.0000    
         3      5741   F  0.350000       110.900       269.000    
         3      5745   F  0.300000       91.0000       0.00000    
         3      5749   F  0.300000       91.0000       180.000    
         3      5753   F  0.350000       110.900       91.0000    
         3      5757   F  0.350000       110.900       269.000    
         3      5761   F  0.300000       91.0000       0.00000    
         3      5765   F  0.300000       91.0000       180.000    
         3      5769   F  0.350000       110.900       91.0000    
         3      5773   F  0.350000       110.900       269.000    
         3      5777   F  0.300000       91.0000       0.00000    
         3      5781   F  0.300000       91.0000       180.000    
         3      5785   F  0.350000       110.900       91.0000    
         3      5789   F  0.350000       110.900       269.000    
         3      5793   F  0.300000       91.0000       0.00000    
         3      5797   F  0.300000       91.0000       180.000    
         3      5801   F  0.350000       110.900       91.0000    
         3      5805   F  0.350000       110.900       269.000    
         3      5809   F  0.300000       91.0000       0.00000    
         3      5813   F  0.300000       91.0000       180.000    
         3      5817   F  0.350000       110.900       91.0000    
         3      5821   F  0.350000       110.900       269.000    
         3      5825   F  0.300000       91.0000       0.00000    
         3      5829   F  0.300000       91.0000       180.000    
         3      5833   F  0.350000       110.900       91.0000    
         3      5837   F  0.350000       110.900       269.000    
         3      5841   F  0.300000       91.0000       0.00000    
         3      5845   F  0.300000       91.0000       180.000    
         3      5849   F  0.350000       110.900       91.0000    
         3      5853   F  0.350000       110.900       269.000    
         3      5857   F  0.300000       91.0000       0.00000    
         3      5861   F  0.300000       91.0000       180.000    
         3      5865   F  0.350000       110.900       91.0000    
         3      5869   F  0.350000       110.900       269.000    
         3      5873   F  0.300000       91.0000       0.00000    
         3      5877   F  0.300000       91.0000       180.000    
         3      5881   F  0.350000       110.900       91.0000    
         3      5885   F  0.350000       110.900       269.000    
         3      5889   F  0.300000       91.0000       0.00000    
         3      5893   F  0.300000       91.0000       180.000    
         3      5897   F  0.350000       110.900       91.0000    
         3      5901   F  0.350000       110.900       269.000    
         3      5905   F  0.300000       91.0000       0.00000    
         3      5909   F  0.300000       91.0000       180.000    
         3      5913   F  0.350000       110.900       91.0000    
         3      5917   F  0.350000       110.900       269.000    
         3      5921   F  0.300000       91.0000       0.00000    
         3      5925   F  0.300000       91.0000       180.000    
         3      5929   F  0.350000       110.900       91.0000    
         3      5933   F  0.350000       110.900       269.000    
         3      5937   F  0.300000       91.0000       0.00000    
         3      5941   F  0.300000       91.0000       180.000    
         3      5945   F  0.350000       110.900       91.0000    
         3      5949   F  0.350000       110.900       269.000    
         3      5953   F  0.300000       91.0000       0.00000    
         3      5957   F  0.300000       91.0000       180.000    
         3      5961   F  0.350000       110.900       91.0000    
         3      5965   F  0.350000       110.900       269.000    
         3      5969   F  0.300000       91.0000       0.00000    
         3      5973   F  0.300000       91.0000       180.000    
         3      5977   F  0.350000       110.900       91.0000    
         3      5981   F  0.350000       110.900       269.000    
         3      5985   F  0.300000       91.0000       0.00000    
         3      5989   F  0.300000       91.0000       180.000    
         3      5993   F  0.350000       110.900       91.0000    
         3      5997   F  0.350000       110.900       269.000    
         3      6001   F  0.300000       91.0000       0.00000    
         3      6005   F  0.300000       91.0000       180.000    
         3      6009   F  0.350000       110.900       91.0000    
         3      6013   F  0.350000       110.900       269.000    
         3      6017   F  0.300000       91.0000       0.00000    
         3      6021   F  0.300000       91.0000       180.000    
         3      6025   F  0.350000       110.900       91.0000    
         3      6029   F  0.350000       110.900       269.000    
         3      6033   F  0.300000       91.0000       0.00000    
         3      6037   F  0.300000       91.0000       180.000    
         3      6041   F  0.350000       110.900       91.0000    
         3      6045   F  0.350000       110.900       269.000    
         3      6049   F  0.300000       91.0000       0.00000    
         3      6053   F  0.300000       91.0000       180.000    
         3      6057   F  0.350000       110.900       91.0000    
         3      6061   F  0.350000       110.900       269.000    
         3      6065   F  0.300000       91.0000       0.00000    
         3      6069   F  0.300000       91.0000       180.000    
         3      6073   F  0.350000       110.900       91.0000    
         3      6077   F  0.350000       110.900       269.000    
         3      6081   F  0.300000       91.0000       0.00000    
         3      6085   F  0.300000       91.0000       180.000    
         3      6089   F  0.350000       110.900       91.0000    
         3      6093   F  0.350000       110.900       269.000    
         3      6097   F  0.300000       91.0000       0.00000    
         3      6101   F  0.300000       91.0000       180.000    
         3      6105   F  0.350000       110.900       91.0000    
         3      6109   F  0.350000       110.900       269.000    
         3      6113   F  0.300000       91.0000       0.00000    
         3      6117   F  0.300000       91.0000       180.000    
         3      6121   F  0.350000       110.900       91.0000    
         3      6125   F  0.350000       110.900       269.000    
         3      6129   F  0.300000       91.0000       0.00000    
         3      6133   F  0.300000       91.0000       180.000    
         3      6137   F  0.350000       110.900       91.0000    
         3      6141   F  0.350000       110.900       269.000    
         3      6145   F  0.300000       91.0000       0.00000    
         3      6149   F  0.300000       91.0000       180.000    
         3      6153   F  0.350000       110.900       91.0000    
         3      6157   F  0.350000       110.900       269.000    
         3      6161   F  0.300000       91.0000       0.00000    
         3      6165   F  0.300000       91.0000       180.000    
         3      6169   F  0.350000       110.900       91.0000    
         3      6173   F  0.350000       110.900       269.000    
         3      6177   F  0.300000       91.0000       0.00000    
         3      6181   F  0.300000       91.0000       180.000    
         3      6185   F  0.350000       110.900       91.0000    
         3      6189   F  0.350000       110.900       269.000    
         3      6193   F  0.300000       91.0000       0.00000    
         3      6197   F  0.300000       91.0000       180.000    
         3      6201   F  0.350000       110.900       91.0000    
         3      6205   F  0.350000       110.900       269.000    
         3      6209   F  0.300000       91.0000       0.00000    
         3      6213   F  0.300000       91.0000       180.000    
         3      6217   F  0.350000       110.900       91.0000    
         3      6221   F  0.350000       110.900       269.000    
         3      6225   F  0.300000       91.0000       0.00000    
         3      6229   F  0.300000       91.0000       180.000    
         3      6233   F  0.350000       110.900       91.0000    
         3      6237   F  0.350000       110.900       269.000    
         3      6241   F  0.300000       91.0000       0.00000    
         3      6245   F  0.300000       91.0000       180.000    
         3      6249   F  0.350000       110.900       91.0000    
         3      6253   F  0.350000       110.900       269.000    
         3      6257   F  0.300000       91.0000       0.00000    
         3      6261   F  0.300000       91.0000       180.000    
         3      6265   F  0.350000       110.900       91.0000    
         3      6269   F  0.350000       110.900       269.000    
         3      6273   F  0.300000       91.0000       0.00000    
         3      6277   F  0.300000       91.0000       180.000    
         3      6281   F  0.350000       110.900       91.0000    
         3      6285   F  0.350000       110.900       269.000    
         3      6289   F  0.300000       91.0000       0.00000    
         3      6293   F  0.300000       91.0000       180.000    
         3      6297   F  0.350000       110.900       91.0000    
         3      6301   F  0.350000       110.900       269.000    
         3      6305   F  0.300000       91.0000       0.00000    
         3      6309   F  0.300000       91.0000       180.000    
         3      6313   F  0.350000       110.900       91.0000    
         3      6317   F  0.350000       110.900       269.000    
         3      6321   F  0.300000       91.0000       0.00000    
         3      6325   F  0.300000       91.0000       180.000    
         3      6329   F  0.350000       110.900       91.0000    
         3      6333   F  0.350000       110.900       269.000    
         3      6337   F  0.300000       91.0000       0.00000    
         3      6341   F  0.300000       91.0000       180.000    
         3      6345   F  0.350000       110.900       91.0000    
         3      6349   F  0.350000       110.900       269.000    
         3      6353   F  0.300000       91.0000       0.00000    
         3      6357   F  0.300000       91.0000       180.000    
         3      6361   F  0.350000       110.900       91.0000    
         3      6365   F  0.350000       110.900       269.000    
         3      6369   F  0.300000       91.0000       0.00000    
         3      6373   F  0.300000       91.0000       180.000    
         3      6377   F  0.350000       110.900       91.0000    
         3      6381   F  0.350000       110.900       269.000    
         3      6385   F  0.300000       91.0000       0.00000    
         3      6389   F  0.300000       91.0000       180.000    
         3      6393   F  0.350000       110.900       91.0000    
         3      6397   F  0.350000       110.900       269.000    
         3      6401   F  0.300000       91.0000       0.00000    
         3      6405   F  0.300000       91.0000       180.000    
         3      6409   F  0.350000       110.900       91.0000    
         3      6413   F  0.350000       110.900       269.000    
         3      6417   F  0.300000       91.0000       0.00000    
         3      6421   F  0.300000       91.0000       180.000    
         3      6425   F  0.350000       110.900       91.0000    
         3      6429   F  0.350000       110.900       269.000    
         3      6433   F  0.300000       91.0000       0.00000    
         3      6437   F  0.300000       91.0000       180.000    
         3      6441   F  0.350000       110.900       91.0000    
         3      6445   F  0.350000       110.900       269.000    
         3      6449   F  0.300000       91.0000       0.00000    
         3      6453   F  0.300000       91.0000       180.000    
         3      6457   F  0.350000       110.900       91.0000    
         3      6461   F  0.350000       110.900       269.000    
         3      6465   F  0.300000       91.0000       0.00000    
         3      6469   F  0.300000       91.0000       180.000    
         3      6473   F  0.350000       110.900       91.0000    
         3      6477   F  0.350000       110.900       269.000    
         3      6481   F  0.300000       91.0000       0.00000    
         3      6485   F  0.300000       91.0000       180.000    
         3      6489   F  0.350000       110.900       91.0000    
         3      6493   F  0.350000       110.900       269.000    
         3      6497   F  0.300000       91.0000       0.00000    
         3      6501   F  0.300000       91.0000       180.000    
         3      6505   F  0.350000       110.900       91.0000    
         3      6509   F  0.350000       110.900       269.000    
         3      6513   F  0.300000       91.0000       0.00000    
         3      6517   F  0.300000       91.0000       180.000    
         3      6521   F  0.350000       110.900       91.0000    
         3      6525   F  0.350000       110.900       269.000    
         3      6529   F  0.300000       91.0000       0.00000    
         3      6533   F  0.300000       91.0000       180.000    
         3      6537   F  0.350000       110.900       91.0000    
         3      6541   F  0.350000       110.900       269.000    
         3      6545   F  0.300000       91.0000       0.00000    
         3      6549   F  0.300000       91.0000       180.000    
         3      6553   F  0.350000       110.900       91.0000    
         3      6557   F  0.350000       110.900       269.000    
         3      6561   F  0.300000       91.0000       0.00000    
         3      6565   F  0.300000       91.0000       180.000    
         3      6569   F  0.350000       110.900       91.0000    
         3      6573   F  0.350000       110.900       269.000    
         3      6577   F  0.300000       91.0000       0.00000    
         3      6581   F  0.300000       91.0000       180.000    
         3      6585   F  0.350000       110.900       91.0000    
         3      6589   F  0.350000       110.900       269.000    
         3      6593   F  0.300000       91.0000       0.00000    
         3      6597   F  0.300000       91.0000       180.000    
         3      6601   F  0.350000       110.900       91.0000    
         3      6605   F  0.350000       110.900       269.000    
         3      6609   F  0.300000       91.0000       0.00000    
         3      6613   F  0.300000       91.0000       180.000    
         3      6617   F  0.350000       110.900       91.0000    
         3      6621   F  0.350000       110.900       269.000    
         3      6625   F  0.300000       91.0000       0.00000    
         3      6629   F  0.300000       91.0000       180.000    
         3      6633   F  0.350000       110.900       91.0000    
         3      6637   F  0.350000       110.900       269.000    
         3      6641   F  0.300000       91.0000       0.00000    
         3      6645   F  0.300000       91.0000       180.000    
         3      6649   F  0.350000       110.900       91.0000    
         3      6653   F  0.350000       110.900       269.000    
         3      6657   F  0.300000       91.0000       0.00000    
         3      6661   F  0.300000       91.0000       180.000    
         3      6665   F  0.350000       110.900       91.0000    
         3      6669   F  0.350000       110.900       269.000    
         3      6673   F  0.300000       91.0000       0.00000    
         3      6677   F  0.300000       91.0000       180.000    
         3      6681   F  0.350000       110.900       91.0000    
         3      6685   F  0.350000       110.900       269.000    
         3      6689   F  0.300000       91.0000       0.00000    
         3      6693   F  0.300000       91.0000       180.000    
         3      6697   F  0.350000       110.900       91.0000    
         3      6701   F  0.350000       110.900       269.000    
         3      6705   F  0.300000       91.0000       0.00000    
         3      6709   F  0.300000       91.0000       180.000    
         3      6713   F  0.350000       110.900       91.0000    
         3      6717   F  0.350000       110.900       269.000    
         3      6721   F  0.300000       91.0000       0.00000    
         3      6725   F  0.300000       91.0000       180.000    
         3      6729   F  0.350000       110.900       91.0000    
         3      6733   F  0.350000       110.900       269.000    
         3      6737   F  0.300000       91.0000       0.00000    
         3      6741   F  0.300000       91.0000       180.000    
         3      6745   F  0.350000       110.900       91.0000    
         3      6749   F  0.350000       110.900       269.000    
         3      6753   F  0.300000       91.0000       0.00000    
         3      6757   F  0.300000       91.0000       180.000    
         3      6761   F  0.350000       110.900       91.0000    
         3      6765   F  0.350000       110.900       269.000    
         3      6769   F  0.300000       91.0000       0.00000    
         3      6773   F  0.300000       91.0000       180.000    
         3      6777   F  0.350000       110.900       91.0000    
         3      6781   F  0.350000       110.900       269.000    
         3      6785   F  0.300000       91.0000       0.00000    
         3      6789   F  0.300000       91.0000       180.000    
         3      6793   F  0.350000       110.900       91.0000    
         3      6797   F  0.350000       110.900       269.000    
         3      6801   F  0.350000       110.000       0.00000    
         3      6805   F  0.350000       110.000       180.000    
         3      6809   F  0.350000       110.000       0.00000    
         3      6813   F  0.350000       110.000       180.000    
         3      6817   F  0.350000       110.000       0.00000    
         3      6821   F  0.350000       110.000       180.000    
         3      6825   F  0.350000       110.000       0.00000    
         3      6829   F  0.350000       110.000       180.000    
         3      6833   F  0.350000       110.000       0.00000    
         3      6837   F  0.350000       110.000       180.000    
         3      6841   F  0.350000       110.000       0.00000    
         3      6845   F  0.350000       110.000       180.000    
         3      6849   F  0.350000       110.000       0.00000    
         3      6853   F  0.350000       110.000       180.000    
         3      6857   F  0.350000       110.000       0.00000    
         3      6861   F  0.350000       110.000       180.000    
         3      6865   F  0.350000       110.000       0.00000    
         3      6869   F  0.350000       110.000       180.000    
         3      6873   F  0.350000       110.000       0.00000    
         3      6877   F  0.350000       110.000       180.000    
         3      6881   F  0.350000       110.000       0.00000    
         3      6885   F  0.350000       110.000       180.000    
         3      6889   F  0.350000       110.000       0.00000    
         3      6893   F  0.350000       110.000       180.000    
         3      6897   F  0.350000       110.000       0.00000    
         3      6901   F  0.350000       110.000       180.000    
         3      6905   F  0.350000       110.000       0.00000    
         3      6909   F  0.350000       110.000       180.000    
         3      6913   F  0.350000       110.000       0.00000    
         3      6917   F  0.350000       110.000       180.000    
         3      6921   F  0.350000       110.000       0.00000    
         3      6925   F  0.350000       110.000       180.000    
         3      6929   F  0.350000       110.000       0.00000    
         3      6933   F  0.350000       110.000       180.000    
         3      6937   F  0.350000       110.000       0.00000    
         3      6941   F  0.350000       110.000       180.000    
         3      6945   F  0.350000       110.000       0.00000    
         3      6949   F  0.350000       110.000       180.000    
         3      6953   F  0.350000       110.000       0.00000    
         3      6957   F  0.350000       110.000       180.000    
         3      6961   F  0.350000       110.000       0.00000    
         3      6965   F  0.350000       110.000       180.000    
         3      6969   F  0.350000       110.000       0.00000    
         3      6973   F  0.350000       110.000       180.000    
         3      6977   F  0.350000       110.000       0.00000    
         3      6981   F  0.350000       110.000       180.000    
         3      6985   F  0.350000       110.000       0.00000    
         3      6989   F  0.350000       110.000       180.000    
         3      6993   F  0.350000       110.000       0.00000    
         3      6997   F  0.350000       110.000       180.000    
         3      7001   F  0.350000       110.000       0.00000    
         3      7005   F  0.350000       110.000       180.000    
         3      7009   F  0.350000       110.000       0.00000    
         3      7013   F  0.350000       110.000       180.000    
         3      7017   F  0.350000       110.000       0.00000    
         3      7021   F  0.350000       110.000       180.000    
         3      7025   F  0.350000       110.000       0.00000    
         3      7029   F  0.350000       110.000       180.000    
         3      7033   F  0.350000       110.000       0.00000    
         3      7037   F  0.350000       110.000       180.000    
         3      7041   F  0.350000       110.000       0.00000    
         3      7045   F  0.350000       110.000       180.000    
         3      7049   F  0.350000       110.000       0.00000    
         3      7053   F  0.350000       110.000       180.000    
         3      7057   F  0.350000       110.000       0.00000    
         3      7061   F  0.350000       110.000       180.000    
         3      7065   F  0.350000       110.000       0.00000    
         3      7069   F  0.350000       110.000       180.000    
         3      7073   F  0.350000       110.000       0.00000    
         3      7077   F  0.350000       110.000       180.000    
         3      7081   F  0.350000       110.000       0.00000    
         3      7085   F  0.350000       110.000       180.000    
         3      7089   F  0.350000       110.000       0.00000    
         3      7093   F  0.350000       110.000       180.000    
         3      7097   F  0.350000       110.000       0.00000    
         3      7101   F  0.350000       110.000       180.000    
         3      7105   F  0.350000       110.000       0.00000    
         3      7109   F  0.350000       110.000       180.000    
         3      7113   F  0.350000       110.000       0.00000    
         3      7117   F  0.350000       110.000       180.000    
         3      7121   F  0.350000       110.000       0.00000    
         3      7125   F  0.350000       110.000       180.000    
         3      7129   F  0.350000       110.000       0.00000    
         3      7133   F  0.350000       110.000       180.000    
         3      7137   F  0.350000       110.000       0.00000    
         3      7141   F  0.350000       110.000       180.000    
         3      7145   F  0.350000       110.000       0.00000    
         3      7149   F  0.350000       110.000       180.000    
         3      7153   F  0.350000       110.000       0.00000    
         3      7157   F  0.350000       110.000       180.000    
         3      7161   F  0.350000       110.000       0.00000    
         3      7165   F  0.350000       110.000       180.000    
         3      7169   F  0.350000       110.000       0.00000    
         3      7173   F  0.350000       110.000       180.000    
         3      7177   F  0.350000       110.000       0.00000    
         3      7181   F  0.350000       110.000       180.000    
         3      7185   F  0.350000       110.000       0.00000    
         3      7189   F  0.350000       110.000       180.000    
         3      7193   F  0.350000       110.000       0.00000    
         3      7197   F  0.350000       110.000       180.000    
         3      7201   F  0.350000       110.000       0.00000    
         3      7205   F  0.350000       110.000       180.000    
         3      7209   F  0.350000       110.000       0.00000    
         3      7213   F  0.350000       110.000       180.000    
         3      7217   F  0.350000       110.000       0.00000    
         3      7221   F  0.350000       110.000       180.000    
         3      7225   F  0.350000       110.000       0.00000    
         3      7229   F  0.350000       110.000       180.000    
         3      7233   F  0.350000       110.000       0.00000    
         3      7237   F  0.350000       110.000       180.000    
         3      7241   F  0.350000       110.000       0.00000    
         3      7245   F  0.350000       110.000       180.000    
         3      7249   F  0.350000       110.000       0.00000    
         3      7253   F  0.350000       110.000       180.000    
         3      7257   F  0.350000       110.000       0.00000    
         3      7261   F  0.350000       110.000       180.000    
         3      7265   F  0.350000       110.000       0.00000    
         3      7269   F  0.350000       110.000       180.000    
         3      7273   F  0.350000       110.000       0.00000    
         3      7277   F  0.350000       110.000       180.000    
         3      7281   F  0.350000       110.000       0.00000    
         3      7285   F  0.350000       110.000       180.000    
         3      7289   F  0.350000       110.000       0.00000    
         3      7293   F  0.350000       110.000       180.000    
         3      7297   F  0.350000       110.000       0.00000    
         3      7301   F  0.350000       110.000       180.000    
         3      7305   F  0.350000       110.000       0.00000    
         3      7309   F  0.350000       110.000       180.000    
         3      7313   F  0.350000       110.000       0.00000    
         3      7317   F  0.350000       110.000       180.000    
         3      7321   F  0.350000       110.000       0.00000    
         3      7325   F  0.350000       110.000       180.000    
         3      7329   F  0.350000       110.000       0.00000    
         3      7333   F  0.350000       110.000       180.000    
         3      7337   F  0.350000       110.000       0.00000    
         3      7341   F  0.350000       110.000       180.000    
         3      7345   F  0.350000       110.000       0.00000    
         3      7349   F  0.350000       110.000       180.000    
         3      7353   F  0.350000       110.000       0.00000    
         3      7357   F  0.350000       110.000       180.000    
         3      7361   F  0.350000       110.000       0.00000    
         3      7365   F  0.350000       110.000       180.000    
         3      7369   F  0.350000       110.000       0.00000    
         3      7373   F  0.350000       110.000       180.000    
         3      7377   F  0.350000       110.000       0.00000    
         3      7381   F  0.350000       110.000       180.000    
         3      7385   F  0.350000       110.000       0.00000    
         3      7389   F  0.350000       110.000       180.000    
         3      7393   F  0.350000       110.000       0.00000    
         3      7397   F  0.350000       110.000       180.000    
         3      7401   F  0.350000       110.000       0.00000    
         3      7405   F  0.350000       110.000       180.000    
         3      7409   F  0.350000       110.000       0.00000    
         3      7413   F  0.350000       110.000       180.000    
         3      7417   F  0.350000       110.000       0.00000    
         3      7421   F  0.350000       110.000       180.000    
         3      7425   F  0.350000       110.000       0.00000    
         3      7429   F  0.350000       110.000       180.000    
         3      7433   F  0.350000       110.000       0.00000    
         3      7437   F  0.350000       110.000       180.000    
         3      7441   F  0.350000       110.000       0.00000    
         3      7445   F  0.350000       110.000       180.000    
         3      7449   F  0.350000       110.000       0.00000    
         3      7453   F  0.350000       110.000       180.000    
         3      7457   F  0.350000       110.000       0.00000    
         3      7461   F  0.350000       110.000       180.000    
         3      7465   F  0.350000       110.000       0.00000    
         3      7469   F  0.350000       110.000       180.000    
         3      7473   F  0.350000       110.000       0.00000    
         3      7477   F  0.350000       110.000       180.000    
         3      7481   F  0.350000       110.000       0.00000    
         3      7485   F  0.350000       110.000       180.000    
         3      7489   F  0.350000       110.000       0.00000    
         3      7493   F  0.350000       110.000       180.000    
         3      7497   F  0.350000       110.000       0.00000    
         3      7501   F  0.350000       110.000       180.000    
         3      7505   F  0.350000       110.000       0.00000    
         3      7509   F  0.350000       110.000       180.000    
         3      7513   F  0.350000       110.000       0.00000    
         3      7517   F  0.350000       110.000       180.000    
         3      7521   F  0.350000       110.000       0.00000    
         3      7525   F  0.350000       110.000       180.000    
         3      7529   F  0.350000       110.000       0.00000    
         3      7533   F  0.350000       110.000       180.000    
         3      7537   F  0.350000       110.000       0.00000    
         3      7541   F  0.350000       110.000       180.000    
         3      7545   F  0.350000       110.000       0.00000    
         3      7549   F  0.350000       110.000       180.000    
         3      7553   F  0.350000       110.000       0.00000    
         3      7557   F  0.350000       110.000       180.000    
         3      7561   F  0.350000       110.000       0.00000    
         3      7565   F  0.350000       110.000       180.000    
         3      7569   F  0.350000       110.000       0.00000    
         3      7573   F  0.350000       110.000       180.000    
         3      7577   F  0.350000       110.000       0.00000    
         3      7581   F  0.350000       110.000       180.000    
         3      7585   F  0.350000       110.000       0.00000    
         3      7589   F  0.350000       110.000       180.000    
         3      7593   F  0.350000       110.000       0.00000    
         3      7597   F  0.350000       110.000       180.000    
         3      7601   F  0.350000       110.000       0.00000    
         3      7605   F  0.350000       110.000       180.000    
         3      7609   F  0.350000       110.000       0.00000    
         3      7613   F  0.350000       110.000       180.000    
         3      7617   F  0.350000       110.000       0.00000    
         3      7621   F  0.350000       110.000       180.000    
         3      7625   F  0.350000       110.000       0.00000    
         3      7629   F  0.350000       110.000       180.000    
         3      7633   F  0.350000       110.000       0.00000    
         3      7637   F  0.350000       110.000       180.000    
         3      7641   F  0.350000       110.000       0.00000    
         3      7645   F  0.350000       110.000       180.000    
         3      7649   F  0.350000       110.000       0.00000    
         3      7653   F  0.350000       110.000       180.000    
         3      7657   F  0.350000       110.000       0.00000    
         3      7661   F  0.350000       110.000       180.000    
         3      7665   F  0.350000       110.000       0.00000    
         3      7669   F  0.350000       110.000       180.000    
         3      7673   F  0.350000       110.000       0.00000    
         3      7677   F  0.350000       110.000       180.000    
         3      7681   F  0.350000       110.000       0.00000    
         3      7685   F  0.350000       110.000       180.000    
         3      7689   F  0.350000       110.000       0.00000    
         3      7693   F  0.350000       110.000       180.000    
         3      7697   F  0.350000       110.000       0.00000    
         3      7701   F  0.350000       110.000       180.000    
         3      7705   F  0.350000       110.000       0.00000    
         3      7709   F  0.350000       110.000       180.000    
         3      7713   F  0.350000       110.000       0.00000    
         3      7717   F  0.350000       110.000       180.000    
         3      7721   F  0.350000       110.000       0.00000    
         3      7725   F  0.350000       110.000       180.000    
         3      7729   F  0.350000       110.000       0.00000    
         3      7733   F  0.350000       110.000       180.000    
         3      7737   F  0.350000       110.000       0.00000    
         3      7741   F  0.350000       110.000       180.000    
         3      7745   F  0.350000       110.000       0.00000    
         3      7749   F  0.350000       110.000       180.000    
         3      7753   F  0.350000       110.000       0.00000    
         3      7757   F  0.350000       110.000       180.000    
         3      7761   F  0.350000       110.000       0.00000    
         3      7765   F  0.350000       110.000       180.000    
         3      7769   F  0.350000       110.000       0.00000    
         3      7773   F  0.350000       110.000       180.000    
         3      7777   F  0.350000       110.000       0.00000    
         3      7781   F  0.350000       110.000       180.000    
         3      7785   F  0.350000       110.000       0.00000    
         3      7789   F  0.350000       110.000       180.000    
         3      7793   F  0.350000       110.000       0.00000    
         3      7797   F  0.350000       110.000       180.000    
         3      7801   F  0.350000       110.000       0.00000    
         3      7805   F  0.350000       110.000       180.000    
         3      7809   F  0.350000       110.000       0.00000    
         3      7813   F  0.350000       110.000       180.000    
         3      7817   F  0.350000       110.000       0.00000    
         3      7821   F  0.350000       110.000       180.000    
         3      7825   F  0.350000       110.000       0.00000    
         3      7829   F  0.350000       110.000       180.000    
         3      7833   F  0.350000       110.000       0.00000    
         3      7837   F  0.350000       110.000       180.000    
         3      7841   F  0.350000       110.000       0.00000    
         3      7845   F  0.350000       110.000       180.000    
         3      7849   F  0.350000       110.000       0.00000    
         3      7853   F  0.350000       110.000       180.000    
         3      7857   F  0.350000       110.000       0.00000    
         3      7861   F  0.350000       110.000       180.000    
         3      7865   F  0.350000       110.000       0.00000    
         3      7869   F  0.350000       110.000       180.000    
         3      7873   F  0.350000       110.000       0.00000    
         3      7877   F  0.350000       110.000       180.000    
         3      7881   F  0.350000       110.000       0.00000    
         3      7885   F  0.350000       110.000       180.000    
         3      7889   F  0.350000       110.000       0.00000    
         3      7893   F  0.350000       110.000       180.000    
         3      7897   F  0.350000       110.000       0.00000    
         3      7901   F  0.350000       110.000       180.000    
         3      7905   F  0.350000       110.000       0.00000    
         3      7909   F  0.350000       110.000       180.000    
         3      7913   F  0.350000       110.000       0.00000    
         3      7917   F  0.350000       110.000       180.000    
         3      7921   F  0.350000       110.000       0.00000    
         3      7925   F  0.350000       110.000       180.000    
         3      7929   F  0.350000       110.000       0.00000    
         3      7933   F  0.350000       110.000       180.000    
         3      7937   F  0.350000       110.000       0.00000    
         3      7941   F  0.350000       110.000       180.000    
         3      7945   F  0.350000       110.000       0.00000    
         3      7949   F  0.350000       110.000       180.000    
         3      7953   F  0.350000       110.000       0.00000    
         3      7957   F  0.350000       110.000       180.000    
         3      7961   F  0.350000       110.000       0.00000    
         3      7965   F  0.350000       110.000       180.000    
         3      7969   F  0.350000       110.000       0.00000    
         3      7973   F  0.350000       110.000       180.000    
         3      7977   F  0.350000       110.000       0.00000    
         3      7981   F  0.350000       110.000       180.000    
         3      7985   F  0.350000       110.000       0.00000    
         3      7989   F  0.350000       110.000       180.000    
         3      7993   F  0.350000       110.000       0.00000    
         3      7997   F  0.350000       110.000       180.000    
         3      8001   F  0.350000       110.000       0.00000    
         3      8005   F  0.350000       110.000       180.000    
         3      8009   F  0.350000       110.000       0.00000    
         3      8013   F  0.350000       110.000       180.000    
         3      8017   F  0.350000       110.000       0.00000    
         3      8021   F  0.350000       110.000       180.000    
         3      8025   F  0.350000       110.000       0.00000    
         3      8029   F  0.350000       110.000       180.000    
         3      8033   F  0.350000       110.000       0.00000    
         3      8037   F  0.350000       110.000       180.000    
         3      8041   F  0.350000       110.000       0.00000    
         3      8045   F  0.350000       110.000       180.000    
         3      8049   F  0.350000       110.000       0.00000    
         3      8053   F  0.350000       110.000       180.000    
         3      8057   F  0.350000       110.000       0.00000    
         3      8061   F  0.350000       110.000       180.000    
         3      8065   F  0.350000       110.000       0.00000    
         3      8069   F  0.350000       110.000       180.000    
         3      8073   F  0.350000       110.000       0.00000    
         3      8077   F  0.350000       110.000       180.000    
         3      8081   F  0.350000       110.000       0.00000    
         3      8085   F  0.350000       110.000       180.000    
         3      8089   F  0.350000       110.000       0.00000    
         3      8093   F  0.350000       110.000       180.000    
         3      8097   F  0.350000       110.000       0.00000    
         3      8101   F  0.350000       110.000       180.000    
         3      8105   F  0.350000       110.000       0.00000    
         3      8109   F  0.350000       110.000       180.000    
         3      8113   F  0.350000       110.000       0.00000    
         3      8117   F  0.350000       110.000       180.000    
         3      8121   F  0.350000       110.000       0.00000    
         3      8125   F  0.350000       110.000       180.000    
         3      8129   F  0.350000       110.000       0.00000    
         3      8133   F  0.350000       110.000       180.000    
         3      8137   F  0.350000       110.000       0.00000    
         3      8141   F  0.350000       110.000       180.000    
         3      8145   F  0.350000       110.000       0.00000    
         3      8149   F  0.350000       110.000       180.000    
         3      8153   F  0.350000       110.000       0.00000    
         3      8157   F  0.350000       110.000       180.000    
         3      8161   F  0.350000       110.000       0.00000    
         3      8165   F  0.350000       110.000       180.000    
         3      8169   F  0.350000       110.000       0.00000    
         3      8173   F  0.350000       110.000       180.000    
         3      8177   F  0.350000       110.000       0.00000    
         3      8181   F  0.350000       110.000       180.000    
         3      8185   F  0.350000       110.000       0.00000    
         3      8189   F  0.350000       110.000       180.000    
         3      8193   F  0.350000       110.000       0.00000    
         3      8197   F  0.350000       110.000       180.000    
         3      8201   F  0.350000       110.000       0.00000    
         3      8205   F  0.350000       110.000       180.000    
         3      8209   F  0.350000       110.000       0.00000    
         3      8213   F  0.350000       110.000       180.000    
         3      8217   F  0.350000       110.000       0.00000    
         3      8221   F  0.350000       110.000       180.000    
         3      8225   F  0.350000       110.000       0.00000    
         3      8229   F  0.350000       110.000       180.000    
         3      8233   F  0.350000       110.000       0.00000    
         3      8237   F  0.350000       110.000       180.000    
         3      8241   F  0.350000       110.000       0.00000    
         3      8245   F  0.350000       110.000       180.000    
         3      8249   F  0.350000       110.000       0.00000    
         3      8253   F  0.350000       110.000       180.000    
         3      8257   F  0.350000       110.000       0.00000    
         3      8261   F  0.350000       110.000       180.000    
         3      8265   F  0.350000       110.000       0.00000    
         3      8269   F  0.350000       110.000       180.000    
         3      8273   F  0.350000       110.000       0.00000    
         3      8277   F  0.350000       110.000       180.000    
         3      8281   F  0.350000       110.000       0.00000    
         3      8285   F  0.350000       110.000       180.000    
         3      8289   F  0.350000       110.000       0.00000    
         3      8293   F  0.350000       110.000       180.000    
         3      8297   F  0.350000       110.000       0.00000    
         3      8301   F  0.350000       110.000       180.000    
         3      8305   F  0.350000       110.000       0.00000    
         3      8309   F  0.350000       110.000       180.000    
         3      8313   F  0.350000       110.000       0.00000    
         3      8317   F  0.350000       110.000       180.000    
         3      8321   F  0.350000       110.000       0.00000    
         3      8325   F  0.350000       110.000       180.000    
         3      8329   F  0.350000       110.000       0.00000    
         3      8333   F  0.350000       110.000       180.000    
         3      8337   F  0.350000       110.000       0.00000    
         3      8341   F  0.350000       110.000       180.000    
         3      8345   F  0.350000       110.000       0.00000    
         3      8349   F  0.350000       110.000       180.000    
         3      8353   F  0.350000       110.000       0.00000    
         3      8357   F  0.350000       110.000       180.000    
         3      8361   F  0.350000       110.000       0.00000    
         3      8365   F  0.350000       110.000       180.000    
         3      8369   F  0.350000       110.000       0.00000    
         3      8373   F  0.350000       110.000       180.000    
         3      8377   F  0.350000       110.000       0.00000    
         3      8381   F  0.350000       110.000       180.000    
         3      8385   F  0.350000       110.000       0.00000    
         3      8389   F  0.350000       110.000       180.000    
         3      8393   F  0.350000       110.000       0.00000    
         3      8397   F  0.350000       110.000       180.000    
         3      8401   F  0.350000       110.000       0.00000    
         3      8405   F  0.350000       110.000       180.000    
         3      8409   F  0.350000       110.000       0.00000    
         3      8413   F  0.350000       110.000       180.000    
         3      8417   F  0.350000       110.000       0.00000    
         3      8421   F  0.350000       110.000       180.000    
         3      8425   F  0.350000       110.000       0.00000    
         3      8429   F  0.350000       110.000       180.000    
         3      8433   F  0.350000       110.000       0.00000    
         3      8437   F  0.350000       110.000       180.000    
         3      8441   F  0.350000       110.000       0.00000    
         3      8445   F  0.350000       110.000       180.000    
         3      8449   F  0.350000       110.000       0.00000    
         3      8453   F  0.350000       110.000       180.000    
         3      8457   F  0.350000       110.000       0.00000    
         3      8461   F  0.350000       110.000       180.000    
         3      8465   F  0.350000       110.000       0.00000    
         3      8469   F  0.350000       110.000       180.000    
         3      8473   F  0.350000       110.000       0.00000    
         3      8477   F  0.350000       110.000       180.000    
         3      8481   F  0.350000       110.000       0.00000    
         3      8485   F  0.350000       110.000       180.000    
         3      8489   F  0.350000       110.000       0.00000    
         3      8493   F  0.350000       110.000       180.000    
         3      8497   F  0.350000       110.000       0.00000    
         3      8501   F  0.350000       110.000       180.000    
         3      8505   F  0.350000       110.000       0.00000    
         3      8509   F  0.350000       110.000       180.000    
         3      8513   F  0.350000       110.000       0.00000    
         3      8517   F  0.350000       110.000       180.000    
         3      8521   F  0.350000       110.000       0.00000    
         3      8525   F  0.350000       110.000       180.000    
         3      8529   F  0.350000       110.000       0.00000    
         3      8533   F  0.350000       110.000       180.000    
         3      8537   F  0.350000       110.000       0.00000    
         3      8541   F  0.350000       110.000       180.000    
         3      8545   F  0.350000       110.000       0.00000    
         3      8549   F  0.350000       110.000       180.000    
         3      8553   F  0.350000       110.000       0.00000    
         3      8557   F  0.350000       110.000       180.000    
         3      8561   F  0.350000       110.000       0.00000    
         3      8565   F  0.350000       110.000       180.000    
         3      8569   F  0.350000       110.000       0.00000    
         3      8573   F  0.350000       110.000       180.000    
         3      8577   F  0.350000       110.000       0.00000    
         3      8581   F  0.350000       110.000       180.000    
         3      8585   F  0.350000       110.000       0.00000    
         3      8589   F  0.350000       110.000       180.000    
         3      8593   F  0.350000       110.000       0.00000    
         3      8597   F  0.350000       110.000       180.000    
         3      8601   F  0.350000       110.000       0.00000    
         3      8605   F  0.350000       110.000       180.000    
         3      8609   F  0.350000       110.000       0.00000    
         3      8613   F  0.350000       110.000       180.000    
         3      8617   F  0.350000       110.000       0.00000    
         3      8621   F  0.350000       110.000       180.000    
         3      8625   F  0.350000       110.000       0.00000    
         3      8629   F  0.350000       110.000       180.000    
         3      8633   F  0.350000       110.000       0.00000    
         3      8637   F  0.350000       110.000       180.000    
         3      8641   F  0.350000       110.000       0.00000    
         3      8645   F  0.350000       110.000       180.000    
         3      8649   F  0.350000       110.000       0.00000    
         3      8653   F  0.350000       110.000       180.000    
         3      8657   F  0.350000       110.000       0.00000    
         3      8661   F  0.350000       110.000       180.000    
         3      8665   F  0.350000       110.000       0.00000    
         3      8669   F  0.350000       110.000       180.000    
         3      8673   F  0.350000       110.000       0.00000    
         3      8677   F  0.350000       110.000       180.000    
         3      8681   F  0.350000       110.000       0.00000    
         3      8685   F  0.350000       110.000       180.000    
         3      8689   F  0.350000       110.000       0.00000    
         3      8693   F  0.350000       110.000       180.000    
         3      8697   F  0.350000       110.000       0.00000    
         3      8701   F  0.350000       110.000       180.000    
         3      8705   F  0.350000       110.000       0.00000    
         3      8709   F  0.350000       110.000       180.000    
         3      8713   F  0.350000       110.000       0.00000    
         3      8717   F  0.350000       110.000       180.000    
         3      8721   F  0.350000       110.000       0.00000    
         3      8725   F  0.350000       110.000       180.000    
         3      8729   F  0.350000       110.000       0.00000    
         3      8733   F  0.350000       110.000       180.000    
         3      8737   F  0.350000       110.000       0.00000    
         3      8741   F  0.350000       110.000       180.000    
         3      8745   F  0.350000       110.000       0.00000    
         3      8749   F  0.350000       110.000       180.000    
         3      8753   F  0.350000       110.000       0.00000    
         3      8757   F  0.350000       110.000       180.000    
         3      8761   F  0.350000       110.000       0.00000    
         3      8765   F  0.350000       110.000       180.000    
         3      8769   F  0.350000       110.000       0.00000    
         3      8773   F  0.350000       110.000       180.000    
         3      8777   F  0.350000       110.000       0.00000    
         3      8781   F  0.350000       110.000       180.000    
         3      8785   F  0.350000       110.000       0.00000    
         3      8789   F  0.350000       110.000       180.000    
         3      8793   F  0.350000       110.000       0.00000    
         3      8797   F  0.350000       110.000       180.000    
         3      8801   F  0.350000       110.000       0.00000    
         3      8805   F  0.350000       110.000       180.000    
         3      8809   F  0.350000       110.000       0.00000    
         3      8813   F  0.350000       110.000       180.000    
         3      8817   F  0.350000       110.000       0.00000    
         3      8821   F  0.350000       110.000       180.000    
         3      8825   F  0.350000       110.000       0.00000    
         3      8829   F  0.350000       110.000       180.000    
         3      8833   F  0.350000       110.000       0.00000    
         3      8837   F  0.350000       110.000       180.000    
         3      8841   F  0.350000       110.000       0.00000    
         3      8845   F  0.350000       110.000       180.000    
         3      8849   F  0.350000       110.000       0.00000    
         3      8853   F  0.350000       110.000       180.000    
         3      8857   F  0.350000       110.000       0.00000    
         3      8861   F  0.350000       110.000       180.000    
         3      8865   F  0.350000       110.000       0.00000    
         3      8869   F  0.350000       110.000       180.000    
         3      8873   F  0.350000       110.000       0.00000    
         3      8877   F  0.350000       110.000       180.000    
         3      8881   F  0.350000       110.000       0.00000    
         3      8885   F  0.350000       110.000       180.000    
         3      8889   F  0.350000       110.000       0.00000    
         3      8893   F  0.350000       110.000       180.000    
         3      8897   F  0.350000       110.000       0.00000    
         3      8901   F  0.350000       110.000       180.000    
         3      8905   F  0.350000       110.000       0.00000    
         3      8909   F  0.350000       110.000       180.000    
         3      8913   F  0.350000       110.000       0.00000    
         3      8917   F  0.350000       110.000       180.000    
         3      8921   F  0.350000       110.000       0.00000    
         3      8925   F  0.350000       110.000       180.000    
         3      8929   F  0.350000       110.000       0.00000    
         3      8933   F  0.350000       110.000       180.000    
         3      8937   F  0.350000       110.000       0.00000    
         3      8941   F  0.350000       110.000       180.000    
         3      8945   F  0.350000       110.000       0.00000    
         3      8949   F  0.350000       110.000       180.000    
         3      8953   F  0.350000       110.000       0.00000    
         3      8957   F  0.350000       110.000       180.000    
         3      8961   F  0.350000       110.000       0.00000    
         3      8965   F  0.350000       110.000       180.000    
         3      8969   F  0.350000       110.000       0.00000    
         3      8973   F  0.350000       110.000       180.000    
         3      8977   F  0.350000       110.000       0.00000    
         3      8981   F  0.350000       110.000       180.000    
         3      8985   F  0.350000       110.000       0.00000    
         3      8989   F  0.350000       110.000       180.000    
         3      8993   F  0.350000       110.000       0.00000    
         3      8997   F  0.350000       110.000       180.000    
         3      9001   F  0.350000       110.000       0.00000    
         3      9005   F  0.350000       110.000       180.000    
         3      9009   F  0.350000       110.000       0.00000    
         3      9013   F  0.350000       110.000       180.000    
         3      9017   F  0.350000       110.000       0.00000    
         3      9021   F  0.350000       110.000       180.000    
         3      9025   F  0.350000       110.000       0.00000    
         3      9029   F  0.350000       110.000       180.000    
         3      9033   F  0.350000       110.000       0.00000    
         3      9037   F  0.350000       110.000       180.000    
         3      9041   F  0.350000       110.000       0.00000    
         3      9045   F  0.350000       110.000       180.000    
         3      9049   F  0.350000       110.000       0.00000    
         3      9053   F  0.350000       110.000       180.000    
         3      9057   F  0.350000       110.000       0.00000    
         3      9061   F  0.350000       110.000       180.000    
         3      9065   F  0.350000       110.000       0.00000    
         3      9069   F  0.350000       110.000       180.000    
         3      9073   F  0.350000       110.000       0.00000    
         3      9077   F  0.350000       110.000       180.000    
         3      9081   F  0.350000       110.000       0.00000    
         3      9085   F  0.350000       110.000       180.000    
         3      9089   F  0.350000       110.000       0.00000    
         3      9093   F  0.350000       110.000       180.000    
         3      9097   F  0.350000       110.000       0.00000    
         3      9101   F  0.350000       110.000       180.000    
         3      9105   F  0.350000       110.000       0.00000    
         3      9109   F  0.350000       110.000       180.000    
         3      9113   F  0.350000       110.000       0.00000    
         3      9117   F  0.350000       110.000       180.000    
         3      9121   F  0.350000       110.000       0.00000    
         3      9125   F  0.350000       110.000       180.000    
         3      9129   F  0.350000       110.000       0.00000    
         3      9133   F  0.350000       110.000       180.000    
         3      9137   F  0.350000       110.000       0.00000    
         3      9141   F  0.350000       110.000       180.000    
         3      9145   F  0.350000       110.000       0.00000    
         3      9149   F  0.350000       110.000       180.000    
         3      9153   F  0.350000       110.000       0.00000    
         3      9157   F  0.350000       110.000       180.000    
         3      9161   F  0.350000       110.000       0.00000    
         3      9165   F  0.350000       110.000       180.000    
         3      9169   F  0.350000       110.000       0.00000    
         3      9173   F  0.350000       110.000       180.000    
         3      9177   F  0.350000       110.000       0.00000    
         3      9181   F  0.350000       110.000       180.000    
         3      9185   F  0.350000       110.000       0.00000    
         3      9189   F  0.350000       110.000       180.000    
         3      9193   F  0.350000       110.000       0.00000    
         3      9197   F  0.350000       110.000       180.000    
         3      9201   F  0.350000       110.000       0.00000    
         3      9205   F  0.350000       110.000       180.000    
         3      9209   F  0.350000       110.000       0.00000    
         3      9213   F  0.350000       110.000       180.000    
         3      9217   F  0.350000       110.000       0.00000    
         3      9221   F  0.350000       110.000       180.000    
         3      9225   F  0.350000       110.000       0.00000    
         3      9229   F  0.350000       110.000       180.000    
         3      9233   F  0.350000       110.000       0.00000    
         3      9237   F  0.350000       110.000       180.000    
         3      9241   F  0.350000       110.000       0.00000    
         3      9245   F  0.350000       110.000       180.000    
         3      9249   F  0.350000       110.000       0.00000    
         3      9253   F  0.350000       110.000       180.000    
         3      9257   F  0.350000       110.000       0.00000    
         3      9261   F  0.350000       110.000       180.000    
         3      9265   F  0.350000       110.000       0.00000    
         3      9269   F  0.350000       110.000       180.000    
         3      9273   F  0.350000       110.000       0.00000    
         3      9277   F  0.350000       110.000       180.000    
         3      9281   F  0.350000       110.000       0.00000    
         3      9285   F  0.350000       110.000       180.000    
         3      9289   F  0.350000       110.000       0.00000    
         3      9293   F  0.350000       110.000       180.000    
         3      9297   F  0.350000       110.000       0.00000    
         3      9301   F  0.350000       110.000       180.000    
         3      9305   F  0.350000       110.000       0.00000    
         3      9309   F  0.350000       110.000       180.000    
         3      9313   F  0.350000       110.000       0.00000    
         3      9317   F  0.350000       110.000       180.000    
         3      9321   F  0.350000       110.000       0.00000    
         3      9325   F  0.350000       110.000       180.000    
         3      9329   F  0.350000       110.000       0.00000    
         3      9333   F  0.350000       110.000       180.000    
         3      9337   F  0.350000       110.000       0.00000    
         3      9341   F  0.350000       110.000       180.000    
         3      9345   F  0.350000       110.000       0.00000    
         3      9349   F  0.350000       110.000       180.000    
         3      9353   F  0.350000       110.000       0.00000    
         3      9357   F  0.350000       110.000       180.000    
         3      9361   F  0.350000       110.000       0.00000    
         3      9365   F  0.350000       110.000       180.000    
         3      9369   F  0.350000       110.000       0.00000    
         3      9373   F  0.350000       110.000       180.000    
         3      9377   F  0.350000       110.000       0.00000    
         3      9381   F  0.350000       110.000       180.000    
         3      9385   F  0.350000       110.000       0.00000    
         3      9389   F  0.350000       110.000       180.000    
         3      9393   F  0.350000       110.000       0.00000    
         3      9397   F  0.350000       110.000       180.000    
         3      9401   F  0.350000       110.000       0.00000    
         3      9405   F  0.350000       110.000       180.000    
         3      9409   F  0.350000       110.000       0.00000    
         3      9413   F  0.350000       110.000       180.000    
         3      9417   F  0.350000       110.000       0.00000    
         3      9421   F  0.350000       110.000       180.000    
         3      9425   F  0.350000       110.000       0.00000    
         3      9429   F  0.350000       110.000       180.000    
         3      9433   F  0.350000       110.000       0.00000    
         3      9437   F  0.350000       110.000       180.000    
         3      9441   F  0.350000       110.000       0.00000    
         3      9445   F  0.350000       110.000       180.000    
         3      9449   F  0.350000       110.000       0.00000    
         3      9453   F  0.350000       110.000       180.000    
         3      9457   F  0.350000       110.000       0.00000    
         3      9461   F  0.350000       110.000       180.000    
         3      9465   F  0.350000       110.000       0.00000    
         3      9469   F  0.350000       110.000       180.000    
         3      9473   F  0.350000       110.000       0.00000    
         3      9477   F  0.350000       110.000       180.000    
         3      9481   F  0.350000       110.000       0.00000    
         3      9485   F  0.350000       110.000       180.000    
         3      9489   F  0.350000       110.000       0.00000    
         3      9493   F  0.350000       110.000       180.000    
         3      9497   F  0.350000       110.000       0.00000    
         3      9501   F  0.350000       110.000       180.000    
         3      9505   F  0.350000       110.000       0.00000    
         3      9509   F  0.350000       110.000       180.000    
         3      9513   F  0.350000       110.000       0.00000    
         3      9517   F  0.350000       110.000       180.000    
         3      9521   F  0.350000       110.000       0.00000    
         3      9525   F  0.350000       110.000       180.000    
         3      9529   F  0.350000       110.000       0.00000    
         3      9533   F  0.350000       110.000       180.000    
         3      9537   F  0.350000       110.000       0.00000    
         3      9541   F  0.350000       110.000       180.000    
         3      9545   F  0.350000       110.000       0.00000    
         3      9549   F  0.350000       110.000       180.000    
         3      9553   F  0.350000       110.000       0.00000    
         3      9557   F  0.350000       110.000       180.000    
         3      9561   F  0.350000       110.000       0.00000    
         3      9565   F  0.350000       110.000       180.000    
         3      9569   F  0.350000       110.000       0.00000    
         3      9573   F  0.350000       110.000       180.000    
         3      9577   F  0.350000       110.000       0.00000    
         3      9581   F  0.350000       110.000       180.000    
         3      9585   F  0.350000       110.000       0.00000    
         3      9589   F  0.350000       110.000       180.000    
         3      9593   F  0.350000       110.000       0.00000    
         3      9597   F  0.350000       110.000       180.000    
         3      9601   F  0.350000       110.000       0.00000    
         3      9605   F  0.350000       110.000       180.000    
         3      9609   F  0.350000       110.000       0.00000    
         3      9613   F  0.350000       110.000       180.000    
         3      9617   F  0.350000       110.000       0.00000    
         3      9621   F  0.350000       110.000       180.000    
         3      9625   F  0.350000       110.000       0.00000    
         3      9629   F  0.350000       110.000       180.000    
         3      9633   F  0.350000       110.000       0.00000    
         3      9637   F  0.350000       110.000       180.000    
         3      9641   F  0.350000       110.000       0.00000    
         3      9645   F  0.350000       110.000       180.000    
         3      9649   F  0.350000       110.000       0.00000    
         3      9653   F  0.350000       110.000       180.000    
         3      9657   F  0.350000       110.000       0.00000    
         3      9661   F  0.350000       110.000       180.000    
         3      9665   F  0.350000       110.000       0.00000    
         3      9669   F  0.350000       110.000       180.000    
         3      9673   F  0.350000       110.000       0.00000    
         3      9677   F  0.350000       110.000       180.000    
         3      9681   F  0.350000       110.000       0.00000    
         3      9685   F  0.350000       110.000       180.000    
         3      9689   F  0.350000       110.000       0.00000    
         3      9693   F  0.350000       110.000       180.000    
         3      9697   F  0.350000       110.000       0.00000    
         3      9701   F  0.350000       110.000       180.000    
         3      9705   F  0.350000       110.000       0.00000    
         3      9709   F  0.350000       110.000       180.000    
         3      9713   F  0.350000       110.000       0.00000    
         3      9717   F  0.350000       110.000       180.000    
         3      9721   F  0.350000       110.000       0.00000    
         3      9725   F  0.350000       110.000       180.000    
         3      9729   F  0.350000       110.000       0.00000    
         3      9733   F  0.350000       110.000       180.000    
         3      9737   F  0.350000       110.000       0.00000    
         3      9741   F  0.350000       110.000       180.000    
         3      9745   F  0.350000       110.000       0.00000    
         3      9749   F  0.350000       110.000       180.000    
         3      9753   F  0.350000       110.000       0.00000    
         3      9757   F  0.350000       110.000       180.000    
         3      9761   F  0.350000       110.000       0.00000    
         3      9765   F  0.350000       110.000       180.000    
         3      9769   F  0.350000       110.000       0.00000    
         3      9773   F  0.350000       110.000       180.000    
         3      9777   F  0.350000       110.000       0.00000    
         3      9781   F  0.350000       110.000       180.000    
         3      9785   F  0.350000       110.000       0.00000    
         3      9789   F  0.350000       110.000       180.000    
         3      9793   F  0.350000       110.000       0.00000    
         3      9797   F  0.350000       110.000       180.000    
         3      9801   F  0.350000       110.000       0.00000    
         3      9805   F  0.350000       110.000       180.000    
         3      9809   F  0.350000       110.000       0.00000    
         3      9813   F  0.350000       110.000       180.000    
         3      9817   F  0.350000       110.000       0.00000    
         3      9821   F  0.350000       110.000       180.000    
         3      9825   F  0.350000       110.000       0.00000    
         3      9829   F  0.350000       110.000       180.000    
         3      9833   F  0.350000       110.000       0.00000    
         3      9837   F  0.350000       110.000       180.000    
         3      9841   F  0.350000       110.000       0.00000    
         3      9845   F  0.350000       110.000       180.000    
         3      9849   F  0.350000       110.000       0.00000    
         3      9853   F  0.350000       110.000       180.000    
         3      9857   F  0.350000       110.000       0.00000    
         3      9861   F  0.350000       110.000       180.000    
         3      9865   F  0.350000       110.000       0.00000    
         3      9869   F  0.350000       110.000       180.000    
         3      9873   F  0.350000       110.000       0.00000    
         3      9877   F  0.350000       110.000       180.000    
         3      9881   F  0.350000       110.000       0.00000    
         3      9885   F  0.350000       110.000       180.000    
         3      9889   F  0.350000       110.000       0.00000    
         3      9893   F  0.350000       110.000       180.000    
         3      9897   F  0.350000       110.000       0.00000    
         3      9901   F  0.350000       110.000       180.000    
         3      9905   F  0.350000       110.000       0.00000    
         3      9909   F  0.350000       110.000       180.000    
         3      9913   F  0.350000       110.000       0.00000    
         3      9917   F  0.350000       110.000       180.000    
         3      9921   F  0.350000       110.000       0.00000    
         3      9925   F  0.350000       110.000       180.000    
         3      9929   F  0.350000       110.000       0.00000    
         3      9933   F  0.350000       110.000       180.000    
         3      9937   F  0.350000       110.000       0.00000    
         3      9941   F  0.350000       110.000       180.000    
         3      9945   F  0.350000       110.000       0.00000    
         3      9949   F  0.350000       110.000       180.000    
         3      9953   F  0.350000       110.000       0.00000    
         3      9957   F  0.350000       110.000       180.000    
         3      9961   F  0.350000       110.000       0.00000    
         3      9965   F  0.350000       110.000       180.000    
         3      9969   F  0.350000       110.000       0.00000    
         3      9973   F  0.350000       110.000       180.000    
         3      9977   F  0.350000       110.000       0.00000    
         3      9981   F  0.350000       110.000       180.000    
         3      9985   F  0.350000       110.000       0.00000    
         3      9989   F  0.350000       110.000       180.000    
         3      9993   F  0.350000       110.000       0.00000    
         3      9997   F  0.350000       110.000       180.000    
        20        17        14        11        40        37        34        31
        60        57        54        51        80        77        74        71
       100        97        94        91       120       117       114       111
       140       137       134       131       160       157       154       151
       180       177       174       171       200       197       194       191
       220       217       214       211       240       237       234       231
       260       257       254       251       280       277       274       271
       300       297       294       291       320       317       314       311
       340       337       334       331       360       357       354       351
       380       377       374       371       400       397       394       391
       420       417       414       411       440       437       434       431
       460       457       454       451       480       477       474       471
       500       497       494       491       520       517       514       511
       540       537       534       531       560       557       554       551
       580       577       574       571       600       597       594       591
       620       617       614       611       640       637       634       631
       660       657       654       651       680       677       674       671
       700       697       694       691       720       717       714       711
       740       737       734       731       760       757       754       751
       780       777       774       771       800       797       794       791
       820       817       814       811       840       837       834       831
       860       857       854       851       880       877       874       871
       900       897       894       891       920       917       914       911
       940       937       934       931       960       957       954       951
       980       977       974       971      1000       997       994       991
      1020      1017      1014      1011      1040      1037      1034      1031
      1060      1057      1054      1051      1080      1077      1074      1071
      1100      1097      1094      1091      1120      1117      1114      1111
      1140      1137      1134      1131      1160      1157      1154      1151
      1180      1177      1174      1171      1200      1197      1194      1191
      1220      1217      1214      1211      1240      1237      1234      1231
      1260      1257      1254      1251      1280      1277      1274      1271
      1300      1297      1294      1291      1320      1317      1314      1311
      1340      1337      1334      1331      1360      1357      1354      1351
      1380      1377      1374      1371      1400      1397      1394      1391
      1420      1417      1414      1411      1440      1437      1434      1431
      1460      1457      1454      1451      1480      1477      1474      1471
      1500      1497      1494      1491      1520      1517      1514      1511
      1540      1537      1534      1531      1560      1557      1554      1551
      1580      1577      1574      1571      1600      1597      1594      1591
      1620      1617      1614      1611      1640      1637      1634      1631
      1660      1657      1654      1651      1680      1677      1674      1671
      1700      1697      1694      1691      1720      1717      1714      1711
      1740      1737      1734      1731      1760      1757      1754      1751
      1780      1777      1774      1771      1800      1797      1794      1791
      1820      1817      1814      1811      1840      1837      1834      1831
      1860      1857      1854      1851      1880      1877      1874      1871
      1900      1897      1894      1891      1920      1917      1914      1911
      1940      1937      1934      1931      1960      1957      1954      1951
      1980      1977      1974      1971      2000      1997      1994      1991
      2020      2017      2014      2011      2040      2037      2034      2031
      2060      2057      2054      2051      2080      2077      2074      2071
      2100      2097      2094      2091      2120      2117      2114      2111
      2140      2137      2134      2131      2160      2157      2154      2151
      2180      2177      2174      2171      2200      2197      2194      2191
      2220      2217      2214      2211      2240      2237      2234      2231
      2260      2257      2254      2251      2280      2277      2274      2271
      2300      2297      2294      2291      2320      2317      2314      2311
      2340      2337      2334      2331      2360      2357      2354      2351
      2380      2377      2374      2371      2400      2397      2394      2391
      2420      2417      2414      2411      2440      2437      2434      2431
      2460      2457      2454      2451      2480      2477      2474      2471
      2500      2497      2494      2491      2520      2517      2514      2511
      2540      2537      2534      2531      2560      2557      2554      2551
      2580      2577      2574      2571      2600      2597      2594      2591
      2620      2617      2614      2611      2640      2637      2634      2631
      2660      2657      2654      2651      2680      2677      2674      2671
      2700      2697      2694      2691      2720      2717      2714      2711
      2740      2737      2734      2731      2760      2757      2754      2751
      2780      2777      2774      2771      2800      2797      2794      2791
      2820      2817      2814      2811      2840      2837      2834      2831
      2860      2857      2854      2851      2880      2877      2874      2871
      2900      2897      2894      2891      2920      2917      2914      2911
      2940      2937      2934      2931      2960      2957      2954      2951
      2980      2977      2974      2971      3000      2997      2994      2991
      3020      3017      3014      3011      3040      3037      3034      3031
      3060      3057      3054      3051      3080      3077      3074      3071
      3100      3097      3094      3091      3120      3117      3114      3111
      3140      3137      3134      3131      3160      3157      3154      3151
      3180      3177      3174      3171      3200      3197      3194      3191
      3220      3217      3214      3211      3240      3237      3234      3231
      3260      3257      3254      3251      3280      3277      3274      3271
      3300      3297      3294      3291      3320      3317      3314      3311
      3340      3337      3334      3331      3360      3357      3354      3351
      3380      3377      3374      3371      3400      3397      3394      3391
      3420      3417      3414      3411      3440      3437      3434      3431
      3460      3457      3454      3451      3480      3477      3474      3471
      3500      3497      3494      3491      3520      3517      3514      3511
      3540      3537      3534      3531      3560      3557      3554      3551
      3580      3577      3574      3571      3600      3597      3594      3591
      3620      3617      3614      3611      3640      3637      3634      3631
      3660      3657      3654      3651      3680      3677      3674      3671
      3700      3697      3694      3691      3720      3717      3714      3711
      3740      3737      3734      3731      3760      3757      3754      3751
      3780      3777      3774      3771      3800      3797      3794      3791
      3820      3817      3814      3811      3840      3837      3834      3831
      3860      3857      3854      3851      3880      3877      3874      3871
      3900      3897      3894      3891      3920      3917      3914      3911
      3940      3937      3934      3931      3960      3957      3954      3951
      3980      3977      3974      3971      4000      3997      3994      3991
      4020      4017      4014      4011      4040      4037      4034      4031
      4060      4057      4054      4051      4080      4077      4074      4071
      4100      4097      4094      4091      4120      4117      4114      4111
      4140      4137      4134      4131      4160      4157      4154      4151
      4180      4177      4174      4171      4200      4197      4194      4191
      4220      4217      4214      4211      4240      4237      4234      4231
      4260      4257      4254      4251      4280      4277      4274      4271
      4300      4297      4294      4291      4320      4317      4314      4311
      4340      4337      4334      4331      4360      4357      4354      4351
      4380      4377      4374      4371      4400      4397      4394      4391
      4420      4417      4414      4411      4440      4437      4434      4431
      4460      4457      4454      4451      4480      4477      4474      4471
      4500      4497      4494      4491      4520      4517      4514      4511
      4540      4537      4534      4531      4560      4557      4554      4551
      4580      4577      4574      4571      4600      4597      4594      4591
      4620      4617      4614      4611      4640      4637      4634      4631
      4660      4657      4654      4651      4680      4677      4674      4671
      4700      4697      4694      4691      4720      4717      4714      4711
      4740      4737      4734      4731      4760      4757      4754      4751
      4780      4777      4774      4771      4800      4797      4794      4791
      4820      4817      4814      4811      4840      4837      4834      4831
      4860      4857      4854      4851      4880      4877      4874      4871
      4900      4897      4894      4891      4920      4917      4914      4911
      4940      4937      4934      4931      4960      4957      4954      4951
      4980      4977      4974      4971      5000      4997      4994      4991
      5020      5017      5014      5011      5040      5037      5034      5031
      5060      5057      5054      5051      5080      5077      5074      5071
      5100      5097      5094      5091      5120      5117      5114      5111
      5140      5137      5134      5131      5160      5157      5154      5151
      5180      5177      5174      5171      5200      5197      5194      5191
      5220      5217      5214      5211      5240      5237      5234      5231
      5260      5257      5254      5251      5280      5277      5274      5271
      5300      5297      5294      5291      5320      5317      5314      5311
      5340      5337      5334      5331      5360      5357      5354      5351
      5380      5377      5374      5371      5400      5397      5394      5391
      5420      5417      5414      5411      5440      5437      5434      5431
      5460      5457      5454      5451      5480      5477      5474      5471
      5500      5497      5494      5491      5520      5517      5514      5511
      5540      5537      5534      5531      5560      5557      5554      5551
      5580      5577      5574      5571      5600      5597      5594      5591
      5620      5617      5614      5611      5640      5637      5634      5631
      5660      5657      5654      5651      5680      5677      5674      5671
      5700      5697      5694      5691      5720      5717      5714      5711
      5740      5737      5734      5731      5760      5757      5754      5751
      5780      5777      5774      5771      5800      5797      5794      5791
      5813      5808      5801      5803      5814      5808      5801      5803
      5815      5810      5801      5803      5816      5810      5801      5803
      5829      5824      5817      5819      5830      5824      5817      5819
      5831      5826      5817      5819      5832      5826      5817      5819
      5845      5840      5833      5835      5846      5840      5833      5835
      5847      5842      5833      5835      5848      5842      5833      5835
      5861      5856      5849      5851      5862      5856      5849      5851
      5863      5858      5849      5851      5864      5858      5849      5851
      5877      5872      5865      5867      5878      5872      5865      5867
      5879      5874      5865      5867      5880      5874      5865      5867
      5893      5888      5881      5883      5894      5888      5881      5883
      5895      5890      5881      5883      5896      5890      5881      5883
      5909      5904      5897      5899      5910      5904      5897      5899
      5911      5906      5897      5899      5912      5906      5897      5899
      5925      5920      5913      5915      5926      5920      5913      5915
      5927      5922      5913      5915      5928      5922      5913      5915
      5941      5936      5929      5931      5942      5936      5929      5931
      5943      5938      5929      5931      5944      5938      5929      5931
      5957      5952      5945      5947      5958      5952      5945      5947
      5959      5954      5945      5947      5960      5954      5945      5947
      5973      5968      5961      5963      5974      5968      5961      5963
      5975      5970      5961      5963      5976      5970      5961      5963
      5989      5984      5977      5979      5990      5984      5977      5979
      5991      5986      5977      5979      5992      5986      5977      5979
      6005      6000      5993      5995      6006      6000      5993      5995
      6007      6002      5993      5995      6008      6002      5993      5995
      6021      6016      6009      6011      6022      6016      6009      6011
      6023      6018      6009      6011      6024      6018      6009      6011
      6037      6032      6025      6027      6038      6032      6025      6027
      6039      6034      6025      6027      6040      6034      6025      6027
      6053      6048      6041      6043      6054      6048      6041      6043
      6055      6050      6041      6043      6056      6050      6041      6043
      6069      6064      6057      6059      6070      6064      6057      6059
      6071      6066      6057      6059      6072      6066      6057      6059
      6085      6080      6073      6075      6086      6080      6073      6075
      6087      6082      6073      6075      6088      6082      6073      6075
      6101      6096      6089      6091      6102      6096      6089      6091
      6103      6098      6089      6091      6104      6098      6089      6091
      6117      6112      6105      6107      6118      6112      6105      6107
      6119      6114      6105      6107      6120      6114      6105      6107
      6133      6128      6121      6123      6134      6128      6121      6123
      6135      6130      6121      6123      6136      6130      6121      6123
      6149      6144      6137      6139      6150      6144      6137      6139
      6151      6146      6137      6139      6152      6146      6137      6139
      6165      6160      6153      6155      6166      6160      6153      6155
      6167      6162      6153      6155      6168      6162      6153      6155
      6181      6176      6169      6171      6182      6176      6169      6171
      6183      6178      6169      6171      6184      6178      6169      6171
      6197      6192      6185      6187      6198      6192      6185      6187
      6199      6194      6185      6187      6200      6194      6185      6187
      6213      6208      6201      6203      6214      6208      6201      6203
      6215      6210      6201      6203      6216      6210      6201      6203
      6229      6224      6217      6219      6230      6224      6217      6219
      6231      6226      6217      6219      6232      6226      6217      6219
      6245      6240      6233      6235      6246      6240      6233      6235
      6247      6242      6233      6235      6248      6242      6233      6235
      6261      6256      6249      6251      6262      6256      6249      6251
      6263      6258      6249      6251      6264      6258      6249      6251
      6277      6272      6265      6267      6278      6272      6265      6267
      6279      6274      6265      6267      6280      6274      6265      6267
      6293      6288      6281      6283      6294      6288      6281      6283
      6295      6290      6281      6283      6296      6290      6281      6283
      6309      6304      6297      6299      6310      6304      6297      6299
      6311      6306      6297      6299      6312      6306      6297      6299
      6325      6320      6313      6315      6326      6320      6313      6315
      6327      6322      6313      6315      6328      6322      6313      6315
      6341      6336      6329      6331      6342      6336      6329      6331
      6343      6338      6329      6331      6344      6338      6329      6331
      6357      6352      6345      6347      6358      6352      6345      6347
      6359      6354      6345      6347      6360      6354      6345      6347
      6373      6368      6361      6363      6374      6368      6361      6363
      6375      6370      6361      6363      6376      6370      6361      6363
      6389      6384      6377      6379      6390      6384      6377      6379
      6391      6386      6377      6379      6392      6386      6377      6379
      6405      6400      6393      6395      6406      6400      6393      6395
      6407      6402      6393      6395      6408      6402      6393      6395
      6421      6416      6409      6411      6422      6416      6409      6411
      6423      6418      6409      6411      6424      6418      6409      6411
      6437      6432      6425      6427      6438      6432      6425      6427
      6439      6434      6425      6427      6440      6434      6425      6427
      6453      6448      6441      6443      6454      6448      6441      6443
      6455      6450      6441      6443      6456      6450      6441      6443
      6469      6464      6457      6459      6470      6464      6457      6459
      6471      6466      6457      6459      6472      6466      6457      6459
      6485      6480      6473      6475      6486      6480      6473      6475
      6487      6482      6473      6475      6488      6482      6473      6475
      6501      6496      6489      6491      6502      6496      6489      6491
      6503      6498      6489      6491      6504      6498      6489      6491
      6517      6512      6505      6507      6518      6512      6505      6507
      6519      6514      6505      6507      6520      6514      6505      6507
      6533      6528      6521      6523      6534      6528      6521      6523
      6535      6530      6521      6523      6536      6530      6521      6523
      6549      6544      6537      6539      6550      6544      6537      6539
      6551      6546      6537      6539      6552      6546      6537      6539
      6565      6560      6553      6555      6566      6560      6553      6555
      6567      6562      6553      6555      6568      6562      6553      6555
      6581      6576      6569      6571      6582      6576      6569      6571
      6583      6578      6569      6571      6584      6578      6569      6571
      6597      6592      6585      6587      6598      6592      6585      6587
      6599      6594      6585      6587      6600      6594      6585      6587
      6613      6608      6601      6603      6614      6608      6601      6603
      6615      6610      6601      6603      6616      6610      6601      6603
      6629      6624      6617      6619      6630      6624      6617      6619
      6631      6626      6617      6619      6632      6626      6617      6619
      6645      6640      6633      6635      6646      6640      6633      6635
      6647      6642      6633      6635      6648      6642      6633      6635
      6661      6656      6649      6651      6662      6656      6649      6651
      6663      6658      6649      6651      6664      6658      6649      6651
      6677      6672      6665      6667      6678      6672      6665      6667
      6679      6674      6665      6667      6680      6674      6665      6667
      6693      6688      6681      6683      6694      6688      6681      6683
      6695      6690      6681      6683      6696      6690      6681      6683
      6709      6704      6697      6699      6710      6704      6697      6699
      6711      6706      6697      6699      6712      6706      6697      6699
      6725      6720      6713      6715      6726      6720      6713      6715
      6727      6722      6713      6715      6728      6722      6713      6715
      6741      6736      6729      6731      6742      6736      6729      6731
      6743      6738      6729      6731      6744      6738      6729      6731
      6757      6752      6745      6747      6758      6752      6745      6747
      6759      6754      6745      6747      6760      6754      6745      6747
      6773      6768      6761      6763      6774      6768      6761      6763
      6775      6770      6761      6763      6776      6770      6761      6763
      6789      6784      6777      6779      6790      6784      6777      6779
      6791      6786      6777      6779      6792      6786      6777      6779
      6805      6800      6793      6795      6806      6800      6793      6795
      6807      6802      6793      6795      6808      6802      6793      6795
      6821      6816      6809      6811      6822      6816      6809      6811
      6823      6818      6809      6811      6824      6818      6809      6811
      6837      6832      6825      6827      6838      6832      6825      6827
      6839      6834      6825      6827      6840      6834      6825      6827
      6853      6848      6841      6843      6854      6848      6841      6843
      6855      6850      6841      6843      6856      6850      6841      6843
      6869      6864      6857      6859      6870      6864      6857      6859
      6871      6866      6857      6859      6872      6866      6857      6859
      6885      6880      6873      6875      6886      6880      6873      6875
      6887      6882      6873      6875      6888      6882      6873      6875
      6901      6896      6889      6891      6902      6896      6889      6891
      6903      6898      6889      6891      6904      6898      6889      6891
      6917      6912      6905      6907      6918      6912      6905      6907
      6919      6914      6905      6907      6920      6914      6905      6907
      6933      6928      6921      6923      6934      6928      6921      6923
      6935      6930      6921      6923      6936      6930      6921      6923
      6949      6944      6937      6939      6950      6944      6937      6939
      6951      6946      6937      6939      6952      6946      6937      6939
      6965      6960      6953      6955      6966      6960      6953      6955
      6967      6962      6953      6955      6968      6962      6953      6955
      6981      6976      6969      6971      6982      6976      6969      6971
      6983      6978      6969      6971      6984      6978      6969      6971
      6997      6992      6985      6987      6998      6992      6985      6987
      6999      6994      6985      6987      7000      6994      6985      6987
      7013      7008      7001      7003      7014      7008      7001      7003
      7015      7010      7001      7003      7016      7010      7001      7003
      7029      7024      7017      7019      7030      7024      7017      7019
      7031      7026      7017      7019      7032      7026      7017      7019
      7045      7040      7033      7035      7046      7040      7033      7035
      7047      7042      7033      7035      7048      7042      7033      7035
      7061      7056      7049      7051      7062      7056      7049      7051
      7063      7058      7049      7051      7064      7058      7049      7051
      7077      7072      7065      7067      7078      7072      7065      7067
      7079      7074      7065      7067      7080      7074      7065      7067
      7093      7088      7081      7083      7094      7088      7081      7083
      7095      7090      7081      7083      7096      7090      7081      7083
      7109      7104      7097      7099      7110      7104      7097      7099
      7111      7106      7097      7099      7112      7106      7097      7099
      7125      7120      7113      7115      7126      7120      7113      7115
      7127      7122      7113      7115      7128      7122      7113      7115
      7141      7136      7129      7131      7142      7136      7129      7131
      7143      7138      7129      7131      7144      7138      7129      7131
      7157      7152      7145      7147      7158      7152      7145      7147
      7159      7154      7145      7147      7160      7154      7145      7147
      7173      7168      7161      7163      7174      7168      7161      7163
      7175      7170      7161      7163      7176      7170      7161      7163
      7189      7184      7177      7179      7190      7184      7177      7179
      7191      7186      7177      7179      7192      7186      7177      7179
      7205      7200      7193      7195      7206      7200      7193      7195
      7207      7202      7193      7195      7208      7202      7193      7195
      7221      7216      7209      7211      7222      7216      7209      7211
      7223      7218      7209      7211      7224      7218      7209      7211
      7237      7232      7225      7227      7238      7232      7225      7227
      7239      7234      7225      7227      7240      7234      7225      7227
      7260      7257      7254      7251      7280      7277      7274      7271
      7300      7297      7294      7291      7320      7317      7314      7311
      7340      7337      7334      7331      7360      7357      7354      7351
      7380      7377      7374      7371      7400      7397      7394      7391
      7420      7417      7414      7411      7440      7437      7434      7431
      7460      7457      7454      7451      7480      7477      7474      7471
      7500      7497      7494      7491      7520      7517      7514      7511
      7540      7537      7534      7531      7560      7557      7554      7551
      7580      7577      7574      7571      7600      7597      7594      7591
      7620      7617      7614      7611      7640      7637      7634      7631
      7660      7657      7654      7651      7680      7677      7674      7671
      7700      7697      7694      7691      7720      7717      7714      7711
      7740      7737      7734      7731      7760      7757      7754      7751
      7780      7777      7774      7771      7800      7797      7794      7791
      7820      7817      7814      7811      7840      7837      7834      7831
      7860      7857      7854      7851      7880      7877      7874      7871
      7900      7897      7894      7891      7920      7917      7914      7911
      7940      7937      7934      7931      7960      7957      7954      7951
      7980      7977      7974      7971      8000      7997      7994      7991
      8020      8017      8014      8011      8040      8037      8034      8031
      8060      8057      8054      8051      8080      8077      8074      8071
      8100      8097      8094      8091      8120      8117      8114      8111
      8140      8137      8134      8131      8160      8157      8154      8151
      8180      8177      8174      8171      8200      8197      8194      8191
      8220      8217      8214      8211      8240      8237      8234      8231
      8260      8257      8254      8251      8280      8277      8274      8271
      8300      8297      8294      8291      8320      8317      8314      8311
      8340      8337      8334      8331      8360      8357      8354      8351
      8380      8377      8374      8371      8400      8397      8394      8391
      8420      8417      8414      8411      8440      8437      8434      8431
      8460      8457      8454      8451      8480      8477      8474      8471
      8500      8497      8494      8491      8520      8517      8514      8511
      8540      8537      8534      8531      8560      8557      8554      8551
      8580      8577      8574      8571      8600      8597      8594      8591
      8620      8617      8614      8611      8640      8637      8634      8631
      8660      8657      8654      8651      8680      8677      8674      8671
      8700      8697      8694      8691      8720      8717      8714      8711
      8740      8737      8734      8731      8760      8757      8754      8751
      8780      8777      8774      8771      8800      8797      8794      8791
      8820      8817      8814      8811      8840      8837      8834      8831
      8860      8857      8854      8851      8880      8877      8874      8871
      8900      8897      8894      8891      8920      8917      8914      8911
      8940      8937      8934      8931      8960      8957      8954      8951
      8980      8977      8974      8971      9000      8997      8994      8991
      9020      9017      9014      9011      9040      9037      9034      9031
      9060      9057      9054      9051      9080      9077      9074      9071
      9100      9097      9094      9091      9120      9117      9114      9111
      9140      9137      9134      9131      9160      9157      9154      9151
      9180      9177      9174      9171      9200      9197      9194      9191
      9220      9217      9214      9211      9240      9237      9234      9231
      9260      9257      9254      9251      9280      9277      9274      9271
      9300      9297      9294      9291      9320      9317      9314      9311
      9340      9337      9334      9331      9360      9357      9354      9351
      9380      9377      9374      9371      9400      9397      9394      9391
      9420      9417      9414      9411      9440      9437      9434      9431
      9460      9457      9454      9451      9480      9477      9474      9471
      9500      9497      9494      9491      9520      9517      9514      9511
      9540      9537      9534      9531      9560      9557      9554      9551
      9580      9577      9574      9571      9600      9597      9594      9591
      9620      9617      9614      9611      9640      9637      9634      9631
      9660      9657      9654      9651      9680      9677      9674      9671
      9700      9697      9694      9691      9720      9717      9714      9711
      9740      9737      9734      9731      9760      9757      9754      9751
      9780      9777      9774      9771      9800      9797      9794      9791
      9820      9817      9814      9811      9840      9837      9834      9831
      9860      9857      9854      9851      9880      9877      9874      9871
      9900      9897      9894      9891      9920      9917      9914      9911
      9940      9937      9934      9931      9960      9957      9954      9951
      9980      9977      9974      9971     10000      9997      9994      9991
     10020     10017     10014     10011     10040     10037     10034     10031
     10060     10057     10054     10051     10080     10077     10074     10071
     10100     10097     10094     10091     10120     10117     10114     10111
     10140     10137     10134     10131     10160     10157     10154     10151
     10180     10177     10174     10171     10200     10197     10194     10191
     10220     10217     10214     10211     10240     10237     10234     10231
     10260     10257     10254     10251     10280     10277     10274     10271
     10300     10297     10294     10291     10320     10317     10314     10311
     10340     10337     10334     10331     10360     10357     10354     10351
     10380     10377     10374     10371     10400     10397     10394     10391
     10420     10417     10414     10411     10440     10437     10434     10431
     10460     10457     10454     10451     10480     10477     10474     10471
     10500     10497     10494     10491     10520     10517     10514     10511
     10540     10537     10534     10531     10560     10557     10554     10551
     10580     10577     10574     10571     10600     10597     10594     10591
     10620     10617     10614     10611     10640     10637     10634     10631
     10660     10657     10654     10651     10680     10677     10674     10671
     10700     10697     10694     10691     10720     10717     10714     10711
     10740     10737     10734     10731     10760     10757     10754     10751
     10780     10777     10774     10771     10800     10797     10794     10791
     10820     10817     10814     10811     10840     10837     10834     10831
     10860     10857     10854     10851     10880     10877     10874     10871
     10900     10897     10894     10891     10920     10917     10914     10911
     10940     10937     10934     10931     10960     10957     10954     10951
     10980     10977     10974     10971     11000     10997     10994     10991
     11020     11017     11014     11011     11040     11037     11034     11031
     11060     11057     11054     11051     11080     11077     11074     11071
     11100     11097     11094     11091     11120     11117     11114     11111
     11140     11137     11134     11131     11160     11157     11154     11151
     11180     11177     11174     11171     11200     11197     11194     11191
     11220     11217     11214     11211     11240     11237     11234     11231
     11260     11257     11254     11251     11280     11277     11274     11271
     11300     11297     11294     11291     11320     11317     11314     11311
     11340     11337     11334     11331     11360     11357     11354     11351
     11380     11377     11374     11371     11400     11397     11394     11391
     11420     11417     11414     11411     11440     11437     11434     11431
     11453     11448     11441     11450     11454     11448     11441     11450
     11455     11450     11441     11452     11456     11450     11441     11452
     11469     11464     11457     11466     11470     11464     11457     11466
     11471     11466     11457     11468     11472     11466     11457     11468
     11485     11480     11473     11482     11486     11480     11473     11482
     11487     11482     11473     11484     11488     11482     11473     11484
     11501     11496     11489     11498     11502     11496     11489     11498
     11503     11498     11489     11500     11504     11498     11489     11500
     11517     11512     11505     11514     11518     11512     11505     11514
     11519     11514     11505     11516     11520     11514     11505     11516
     11533     11528     11521     11530     11534     11528     11521     11530
     11535     11530     11521     11532     11536     11530     11521     11532
     11549     11544     11537     11546     11550     11544     11537     11546
     11551     11546     11537     11548     11552     11546     11537     11548
     11565     11560     11553     11562     11566     11560     11553     11562
     11567     11562     11553     11564     11568     11562     11553     11564
     11581     11576     11569     11578     11582     11576     11569     11578
     11583     11578     11569     11580     11584     11578     11569     11580
     11597     11592     11585     11594     11598     11592     11585     11594
     11599     11594     11585     11596     11600     11594     11585     11596
     11613     11608     11601     11610     11614     11608     11601     11610
     11615     11610     11601     11612     11616     11610     11601     11612
     11629     11624     11617     11626     11630     11624     11617     11626
     11631     11626     11617     11628     11632     11626     11617     11628
     11645     11640     11633     11642     11646     11640     11633     11642
     11647     11642     11633     11644     11648     11642     11633     11644
     11661     11656     11649     11658     11662     11656     11649     11658
     11663     11658     11649     11660     11664     11658     11649     11660
     11677     11672     11665     11674     11678     11672     11665     11674
     11679     11674     11665     11676     11680     11674     11665     11676
     11693     11688     11681     11690     11694     11688     11681     11690
     11695     11690     11681     11692     11696     11690     11681     11692
     11709     11704     11697     11706     11710     11704     11697     11706
     11711     11706     11697     11708     11712     11706     11697     11708
     11725     11720     11713     11722     11726     11720     11713     11722
     11727     11722     11713     11724     11728     11722     11713     11724
     11741     11736     11729     11738     11742     11736     11729     11738
     11743     11738     11729     11740     11744     11738     11729     11740
     11757     11752     11745     11754     11758     11752     11745     11754
     11759     11754     11745     11756     11760     11754     11745     11756
     11773     11768     11761     11770     11774     11768     11761     11770
     11775     11770     11761     11772     11776     11770     11761     11772
     11789     11784     11777     11786     11790     11784     11777     11786
     11791     11786     11777     11788     11792     11786     11777     11788
     11805     11800     11793     11802     11806     11800     11793     11802
     11807     11802     11793     11804     11808     11802     11793     11804
     11821     11816     11809     11818     11822     11816     11809     11818
     11823     11818     11809     11820     11824     11818     11809     11820
     11837     11832     11825     11834     11838     11832     11825     11834
     11839     11834     11825     11836     11840     11834     11825     11836
     11853     11848     11841     11850     11854     11848     11841     11850
     11855     11850     11841     11852     11856     11850     11841     11852
     11869     11864     11857     11866     11870     11864     11857     11866
     11871     11866     11857     11868     11872     11866     11857     11868
     11885     11880     11873     11882     11886     11880     11873     11882
     11887     11882     11873     11884     11888     11882     11873     11884
     11901     11896     11889     11898     11902     11896     11889     11898
     11903     11898     11889     11900     11904     11898     11889     11900
     11917     11912     11905     11914     11918     11912     11905     11914
     11919     11914     11905     11916     11920     11914     11905     11916
     11933     11928     11921     11930     11934     11928     11921     11930
     11935     11930     11921     11932     11936     11930     11921     11932
     11949     11944     11937     11946     11950     11944     11937     11946
     11951     11946     11937     11948     11952     11946     11937     11948
     11965     11960     11953     11962     11966     11960     11953     11962
     11967     11962     11953     11964     11968     11962     11953     11964
     11981     11976     11969     11978     11982     11976     11969     11978
     11983     11978     11969     11980     11984     11978     11969     11980
     11997     11992     11985     11994     11998     11992     11985     11994
     11999     11994     11985     11996     12000     11994     11985     11996
     12013     12008     12001     12010     12014     12008     12001     12010
     12015     12010     12001     12012     12016     12010     12001     12012
     12029     12024     12017     12026     12030     12024     12017     12026
     12031     12026     12017     12028     12032     12026     12017     12028
     12045     12040     12033     12042     12046     12040     12033     12042
     12047     12042     12033     12044     12048     12042     12033     12044
     12061     12056     12049     12058     12062     12056     12049     12058
     12063     12058     12049     12060     12064     12058     12049     12060
     12077     12072     12065     12074     12078     12072     12065     12074
     12079     12074     12065     12076     12080     12074     12065     12076
     12093     12088     12081     12090     12094     12088     12081     12090
     12095     12090     12081     12092     12096     12090     12081     12092
     12109     12104     12097     12106     12110     12104     12097     12106
     12111     12106     12097     12108     12112     12106     12097     12108
     12125     12120     12113     12122     12126     12120     12113     12122
     12127     12122     12113     12124     12128     12122     12113     12124
     12141     12136     12129     12138     12142     12136     12129     12138
     12143     12138     12129     12140     12144     12138     12129     12140
     12157     12152     12145     12154     12158     12152     12145     12154
     12159     12154     12145     12156     12160     12154     12145     12156
     12173     12168     12161     12170     12174     12168     12161     12170
     12175     12170     12161     12172     12176     12170     12161     12172
     12189     12184     12177     12186     12190     12184     12177     12186
     12191     12186     12177     12188     12192     12186     12177     12188
     12205     12200     12193     12202     12206     12200     12193     12202
     12207     12202     12193     12204     12208     12202     12193     12204
     12221     12216     12209     12218     12222     12216     12209     12218
     12223     12218     12209     12220     12224     12218     12209     12220
     12237     12232     12225     12234     12238     12232     12225     12234
     12239     12234     12225     12236     12240     12234     12225     12236
     12253     12248     12241     12250     12254     12248     12241     12250
     12255     12250     12241     12252     12256     12250     12241     12252
     12269     12264     12257     12266     12270     12264     12257     12266
     12271     12266     12257     12268     12272     12266     12257     12268
     12285     12280     12273     12282     12286     12280     12273     12282
     12287     12282     12273     12284     12288     12282     12273     12284
     12301     12296     12289     12298     12302     12296     12289     12298
     12303     12298     12289     12300     12304     12298     12289     12300
     12317     12312     12305     12314     12318     12312     12305     12314
     12319     12314     12305     12316     12320     12314     12305     12316
     12333     12328     12321     12330     12334     12328     12321     12330
     12335     12330     12321     12332     12336     12330     12321     12332
     12349     12344     12337     12346     12350     12344     12337     12346
     12351     12346     12337     12348     12352     12346     12337     12348
     12365     12360     12353     12362     12366     12360     12353     12362
     12367     12362     12353     12364     12368     12362     12353     12364
     12381     12376     12369     12378     12382     12376     12369     12378
     12383     12378     12369     12380     12384     12378     12369     12380
     12397     12392     12385     12394     12398     12392     12385     12394
     12399     12394     12385     12396     12400     12394     12385     12396
     12413     12408     12401     12410     12414     12408     12401     12410
     12415     12410     12401     12412     12416     12410     12401     12412
     12429     12424     12417     12426     12430     12424     12417     12426
     12431     12426     12417     12428     12432     12426     12417     12428
     12445     12440     12433     12442     12446     12440     12433     12442
     12447     12442     12433     12444     12448     12442     12433     12444
     12461     12456     12449     12458     12462     12456     12449     12458
     12463     12458     12449     12460     12464     12458     12449     12460
     12477     12472     12465     12474     12478     12472     12465     12474
     12479     12474     12465     12476     12480     12474     12465     12476
     12493     12488     12481     12490     12494     12488     12481     12490
     12495     12490     12481     12492     12496     12490     12481     12492
     12509     12504     12497     12506     12510     12504     12497     12506
     12511     12506     12497     12508     12512     12506     12497     12508
     12525     12520     12513     12522     12526     12520     12513     12522
     12527     12522     12513     12524     12528     12522     12513     12524
     12541     12536     12529     12538     12542     12536     12529     12538
     12543     12538     12529     12540     12544     12538     12529     12540
     12557     12552     12545     12554     12558     12552     12545     12554
     12559     12554     12545     12556     12560     12554     12545     12556
     12573     12568     12561     12570     12574     12568     12561     12570
     12575     12570     12561     12572     12576     12570     12561     12572
     12589     12584     12577     12586     12590     12584     12577     12586
     12591     12586     12577     12588     12592     12586     12577     12588
     12605     12600     12593     12602     12606     12600     12593     12602
     12607     12602     12593     12604     12608     12602     12593     12604
     12621     12616     12609     12618     12622     12616     12609     12618
     12623     12618     12609     12620     12624     12618     12609     12620
     12637     12632     12625     12634     12638     12632     12625     12634
     12639     12634     12625     12636     12640     12634     12625     12636
     12653     12648     12641     12650     12654     12648     12641     12650
     12655     12650     12641     12652     12656     12650     12641     12652
     12669     12664     12657     12666     12670     12664     12657     12666
     12671     12666     12657     12668     12672     12666     12657     12668
     12685     12680     12673     12682     12686     12680     12673     12682
     12687     12682     12673     12684     12688     12682     12673     12684
     12701     12696     12689     12698     12702     12696     12689     12698
     12703     12698     12689     12700     12704     12698     12689     12700
     12717     12712     12705     12714     12718     12712     12705     12714
     12719     12714     12705     12716     12720     12714     12705     12716
     12733     12728     12721     12730     12734     12728     12721     12730
     12735     12730     12721     12732     12736     12730     12721     12732
     12749     12744     12737     12746     12750     12744     12737     12746
     12751     12746     12737     12748     12752     12746     12737     12748
     12765     12760     12753     12762     12766     12760     12753     12762
     12767     12762     12753     12764     12768     12762     12753     12764
     12781     12776     12769     12778     12782     12776     12769     12778
     12783     12778     12769     12780     12784     12778     12769     12780
     12797     12792     12785     12794     12798     12792     12785     12794
     12799     12794     12785     12796     12800     12794     12785     12796
     12813     12808     12801     12810     12814     12808     12801     12810
     12815     12810     12801     12812     12816     12810     12801     12812
     12829     12824     12817     12826     12830     12824     12817     12826
     12831     12826     12817     12828     12832     12826     12817     12828
     12845     12840     12833     12842     12846     12840     12833     12842
     12847     12842     12833     12844     12848     12842     12833     12844
     12861     12856     12849     12858     12862     12856     12849     12858
     12863     12858     12849     12860     12864     12858     12849     12860
     12877     12872     12865     12874     12878     12872     12865     12874
     12879     12874     12865     12876     12880     12874     12865     12876
     12893     12888     12881     12890     12894     12888     12881     12890
     12895     12890     12881     12892     12896     12890     12881     12892
     12909     12904     12897     12906     12910     12904     12897     12906
     12911     12906     12897     12908     12912     12906     12897     12908
     12925     12920     12913     12922     12926     12920     12913     12922
     12927     12922     12913     12924     12928     12922     12913     12924
     12941     12936     12929     12938     12942     12936     12929     12938
     12943     12938     12929     12940     12944     12938     12929     12940
     12957     12952     12945     12954     12958     12952     12945     12954
     12959     12954     12945     12956     12960     12954     12945     12956
     12973     12968     12961     12970     12974     12968     12961     12970
     12975     12970     12961     12972     12976     12970     12961     12972
     12989     12984     12977     12986     12990     12984     12977     12986
     12991     12986     12977     12988     12992     12986     12977     12988
     13005     13000     12993     13002     13006     13000     12993     13002
     13007     13002     12993     13004     13008     13002     12993     13004
     13021     13016     13009     13018     13022     13016     13009     13018
     13023     13018     13009     13020     13024     13018     13009     13020
     13037     13032     13025     13034     13038     13032     13025     13034
     13039     13034     13025     13036     13040     13034     13025     13036
     13053     13048     13041     13050     13054     13048     13041     13050
     13055     13050     13041     13052     13056     13050     13041     13052
     13069     13064     13057     13066     13070     13064     13057     13066
     13071     13066     13057     13068     13072     13066     13057     13068
     13085     13080     13073     13082     13086     13080     13073     13082
     13087     13082     13073     13084     13088     13082     13073     13084
     13101     13096     13089     13098     13102     13096     13089     13098
     13103     13098     13089     13100     13104     13098     13089     13100
     13117     13112     13105     13114     13118     13112     13105     13114
     13119     13114     13105     13116     13120     13114     13105     13116
     13133     13128     13121     13130     13134     13128     13121     13130
     13135     13130     13121     13132     13136     13130     13121     13132
     13149     13144     13137     13146     13150     13144     13137     13146
     13151     13146     13137     13148     13152     13146     13137     13148
     13165     13160     13153     13162     13166     13160     13153     13162
     13167     13162     13153     13164     13168     13162     13153     13164
     13181     13176     13169     13178     13182     13176     13169     13178
     13183     13178     13169     13180     13184     13178     13169     13180
     13197     13192     13185     13194     13198     13192     13185     13194
     13199     13194     13185     13196     13200     13194     13185     13196
     13213     13208     13201     13210     13214     13208     13201     13210
     13215     13210     13201     13212     13216     13210     13201     13212
     13229     13224     13217     13226     13230     13224     13217     13226
     13231     13226     13217     13228     13232     13226     13217     13228
     13245     13240     13233     13242     13246     13240     13233     13242
     13247     13242     13233     13244     13248     13242     13233     13244
     13261     13256     13249     13258     13262     13256     13249     13258
     13263     13258     13249     13260     13264     13258     13249     13260
     13277     13272     13265     13274     13278     13272     13265     13274
     13279     13274     13265     13276     13280     13274     13265     13276
     13293     13288     13281     13290     13294     13288     13281     13290
     13295     13290     13281     13292     13296     13290     13281     13292
     13309     13304     13297     13306     13310     13304     13297     13306
     13311     13306     13297     13308     13312     13306     13297     13308
     13325     13320     13313     13322     13326     13320     13313     13322
     13327     13322     13313     13324     13328     13322     13313     13324
     13341     13336     13329     13338     13342     13336     13329     13338
     13343     13338     13329     13340     13344     13338     13329     13340
     13357     13352     13345     13354     13358     13352     13345     13354
     13359     13354     13345     13356     13360     13354     13345     13356
     13373     13368     13361     13370     13374     13368     13361     13370
     13375     13370     13361     13372     13376     13370     13361     13372
     13389     13384     13377     13386     13390     13384     13377     13386
     13391     13386     13377     13388     13392     13386     13377     13388
     13405     13400     13393     13402     13406     13400     13393     13402
     13407     13402     13393     13404     13408     13402     13393     13404
     13421     13416     13409     13418     13422     13416     13409     13418
     13423     13418     13409     13420     13424     13418     13409     13420
     13437     13432     13425     13434     13438     13432     13425     13434
     13439     13434     13425     13436     13440     13434     13425     13436
     13453     13448     13441     13450     13454     13448     13441     13450
     13455     13450     13441     13452     13456     13450     13441     13452
     13469     13464     13457     13466     13470     13464     13457     13466
     13471     13466     13457     13468     13472     13466     13457     13468
     13485     13480     13473     13482     13486     13480     13473     13482
     13487     13482     13473     13484     13488     13482     13473     13484
     13501     13496     13489     13498     13502     13496     13489     13498
     13503     13498     13489     13500     13504     13498     13489     13500
     13517     13512     13505     13514     13518     13512     13505     13514
     13519     13514     13505     13516     13520     13514     13505     13516
     13533     13528     13521     13530     13534     13528     13521     13530
     13535     13530     13521     13532     13536     13530     13521     13532
     13549     13544     13537     13546     13550     13544     13537     13546
     13551     13546     13537     13548     13552     13546     13537     13548
     13565     13560     13553     13562     13566     13560     13553     13562
     13567     13562     13553     13564     13568     13562     13553     13564
     13581     13576     13569     13578     13582     13576     13569     13578
     13583     13578     13569     13580     13584     13578     13569     13580
     13597     13592     13585     13594     13598     13592     13585     13594
     13599     13594     13585     13596     13600     13594     13585     13596
     13613     13608     13601     13610     13614     13608     13601     13610
     13615     13610     13601     13612     13616     13610     13601     13612
     13629     13624     13617     13626     13630     13624     13617     13626
     13631     13626     13617     13628     13632     13626     13617     13628
     13645     13640     13633     13642     13646     13640     13633     13642
     13647     13642     13633     13644     13648     13642     13633     13644
     13661     13656     13649     13658     13662     13656     13649     13658
     13663     13658     13649     13660     13664     13658     13649     13660
     13677     13672     13665     13674     13678     13672     13665     13674
     13679     13674     13665     13676     13680     13674     13665     13676
     13693     13688     13681     13690     13694     13688     13681     13690
     13695     13690     13681     13692     13696     13690     13681     13692
     13709     13704     13697     13706     13710     13704     13697     13706
     13711     13706     13697     13708     13712     13706     13697     13708
     13725     13720     13713     13722     13726     13720     13713     13722
     13727     13722     13713     13724     13728     13722     13713     13724
     13741     13736     13729     13738     13742     13736     13729     13738
     13743     13738     13729     13740     13744     13738     13729     13740
     13757     13752     13745     13754     13758     13752     13745     13754
     13759     13754     13745     13756     13760     13754     13745     13756
     13773     13768     13761     13770     13774     13768     13761     13770
     13775     13770     13761     13772     13776     13770     13761     13772
     13789     13784     13777     13786     13790     13784     13777     13786
     13791     13786     13777     13788     13792     13786     13777     13788
     13805     13800     13793     13802     13806     13800     13793     13802
     13807     13802     13793     13804     13808     13802     13793     13804
     13821     13816     13809     13818     13822     13816     13809     13818
     13823     13818     13809     13820     13824     13818     13809     13820
     13837     13832     13825     13834     13838     13832     13825     13834
     13839     13834     13825     13836     13840     13834     13825     13836
     13853     13848     13841     13850     13854     13848     13841     13850
     13855     13850     13841     13852     13856     13850     13841     13852
     13869     13864     13857     13866     13870     13864     13857     13866
     13871     13866     13857     13868     13872     13866     13857     13868
     13885     13880     13873     13882     13886     13880     13873     13882
     13887     13882     13873     13884     13888     13882     13873     13884
     13901     13896     13889     13898     13902     13896     13889     13898
     13903     13898     13889     13900     13904     13898     13889     13900
     13917     13912     13905     13914     13918     13912     13905     13914
     13919     13914     13905     13916     13920     13914     13905     13916
     13933     13928     13921     13930     13934     13928     13921     13930
     13935     13930     13921     13932     13936     13930     13921     13932
     13949     13944     13937     13946     13950     13944     13937     13946
     13951     13946     13937     13948     13952     13946     13937     13948
     13965     13960     13953     13962     13966     13960     13953     13962
     13967     13962     13953     13964     13968     13962     13953     13964
     13981     13976     13969     13978     13982     13976     13969     13978
     13983     13978     13969     13980     13984     13978     13969     13980
     13997     13992     13985     13994     13998     13992     13985     13994
     13999     13994     13985     13996     14000     13994     13985     13996
     14013     14008     14001     14010     14014     14008     14001     14010
     14015     14010     14001     14012     14016     14010     14001     14012
     14029     14024     14017     14026     14030     14024     14017     14026
     14031     14026     14017     14028     14032     14026     14017     14028
     14045     14040     14033     14042     14046     14040     14033     14042
     14047     14042     14033     14044     14048     14042     14033     14044
     14061     14056     14049     14058     14062     14056     14049     14058
     14063     14058     14049     14060     14064     14058     14049     14060
     14077     14072     14065     14074     14078     14072     14065     14074
     14079     14074     14065     14076     14080     14074     14065     14076
     14093     14088     14081     14090     14094     14088     14081     14090
     14095     14090     14081     14092     14096     14090     14081     14092
     14109     14104     14097     14106     14110     14104     14097     14106
     14111     14106     14097     14108     14112     14106     14097     14108
     14125     14120     14113     14122     14126     14120     14113     14122
     14127     14122     14113     14124     14128     14122     14113     14124
     14141     14136     14129     14138     14142     14136     14129     14138
     14143     14138     14129     14140     14144     14138     14129     14140
     14157     14152     14145     14154     14158     14152     14145     14154
     14159     14154     14145     14156     14160     14154     14145     14156
     14173     14168     14161     14170     14174     14168     14161     14170
     14175     14170     14161     14172     14176     14170     14161     14172
     14189     14184     14177     14186     14190     14184     14177     14186
     14191     14186     14177     14188     14192     14186     14177     14188
     14205     14200     14193     14202     14206     14200     14193     14202
     14207     14202     14193     14204     14208     14202     14193     14204
     14221     14216     14209     14218     14222     14216     14209     14218
     14223     14218     14209     14220     14224     14218     14209     14220
     14237     14232     14225     14234     14238     14232     14225     14234
     14239     14234     14225     14236     14240     14234     14225     14236
     14253     14248     14241     14250     14254     14248     14241     14250
     14255     14250     14241     14252     14256     14250     14241     14252
     14269     14264     14257     14266     14270     14264     14257     14266
     14271     14266     14257     14268     14272     14266     14257     14268
     14285     14280     14273     14282     14286     14280     14273     14282
     14287     14282     14273     14284     14288     14282     14273     14284
     14301     14296     14289     14298     14302     14296     14289     14298
     14303     14298     14289     14300     14304     14298     14289     14300
     14317     14312     14305     14314     14318     14312     14305     14314
     14319     14314     14305     14316     14320     14314     14305     14316
     14333     14328     14321     14330     14334     14328     14321     14330
     14335     14330     14321     14332     14336     14330     14321     14332
     14349     14344     14337     14346     14350     14344     14337     14346
     14351     14346     14337     14348     14352     14346     14337     14348
     14365     14360     14353     14362     14366     14360     14353     14362
     14367     14362     14353     14364     14368     14362     14353     14364
     14381     14376     14369     14378     14382     14376     14369     14378
     14383     14378     14369     14380     14384     14378     14369     14380
     14397     14392     14385     14394     14398     14392     14385     14394
     14399     14394     14385     14396     14400     14394     14385     14396
     14413     14408     14401     14410     14414     14408     14401     14410
     14415     14410     14401     14412     14416     14410     14401     14412
     14429     14424     14417     14426     14430     14424     14417     14426
     14431     14426     14417     14428     14432     14426     14417     14428
     14445     14440     14433     14442     14446     14440     14433     14442
     14447     14442     14433     14444     14448     14442     14433     14444
     14461     14456     14449     14458     14462     14456     14449     14458
     14463     14458     14449     14460     14464     14458     14449     14460
     14477     14472     14465     14474     14478     14472     14465     14474
     14479     14474     14465     14476     14480     14474     14465     14476
     14493     14488     14481     14490     14494     14488     14481     14490
     14495     14490     14481     14492     14496     14490     14481     14492
     14509     14504     14497     14506     14510     14504     14497     14506
     14511     14506     14497     14508     14512     14506     14497     14508
     14525     14520     14513     14522     14526     14520     14513     14522
     14527     14522     14513     14524     14528     14522     14513     14524
     14541     14536     14529     14538     14542     14536     14529     14538
     14543     14538     14529     14540     14544     14538     14529     14540
     14557     14552     14545     14554     14558     14552     14545     14554
     14559     14554     14545     14556     14560     14554     14545     14556
     14573     14568     14561     14570     14574     14568     14561     14570
     14575     14570     14561     14572     14576     14570     14561     14572
     14589     14584     14577     14586     14590     14584     14577     14586
     14591     14586     14577     14588     14592     14586     14577     14588
     14605     14600     14593     14602     14606     14600     14593     14602
     14607     14602     14593     14604     14608     14602     14593     14604
     14621     14616     14609     14618     14622     14616     14609     14618
     14623     14618     14609     14620     14624     14618     14609     14620
     14637     14632     14625     14634     14638     14632     14625     14634
     14639     14634     14625     14636     14640     14634     14625     14636
     14653     14648     14641     14650     14654     14648     14641     14650
     14655     14650     14641     14652     14656     14650     14641     14652
     14669     14664     14657     14666     14670     14664     14657     14666
     14671     14666     14657     14668     14672     14666     14657     14668
     14685     14680     14673     14682     14686     14680     14673     14682
     14687     14682     14673     14684     14688     14682     14673     14684
     14701     14696     14689     14698     14702     14696     14689     14698
     14703     14698     14689     14700     14704     14698     14689     14700
     14717     14712     14705     14714     14718     14712     14705     14714
     14719     14714     14705     14716     14720     14714     14705     14716
     14733     14728     14721     14730     14734     14728     14721     14730
     14735     14730     14721     14732     14736     14730     14721     14732
     14749     14744     14737     14746     14750     14744     14737     14746
     14751     14746     14737     14748     14752     14746     14737     14748
     14765     14760     14753     14762     14766     14760     14753     14762
     14767     14762     14753     14764     14768     14762     14753     14764
     14781     14776     14769     14778     14782     14776     14769     14778
     14783     14778     14769     14780     14784     14778     14769     14780
     14797     14792     14785     14794     14798     14792     14785     14794
     14799     14794     14785     14796     14800     14794     14785     14796
     14814     14810     14801     14803     14815     14810     14801     14803
     14816     14812     14801     14810     14817     14812     14801     14810
     14831     14827     14818     14820     14832     14827     14818     14820
     14833     14829     14818     14827     14834     14829     14818     14827
     14848     14844     14835     14837     14849     14844     14835     14837
     14850     14846     14835     14844     14851     14846     14835     14844
     14865     14861     14852     14854     14866     14861     14852     14854
     14867     14863     14852     14861     14868     14863     14852     14861
     14882     14878     14869     14871     14883     14878     14869     14871
     14884     14880     14869     14878     14885     14880     14869     14878
     14899     14895     14886     14888     14900     14895     14886     14888
     14901     14897     14886     14895     14902     14897     14886     14895
     14916     14912     14903     14905     14917     14912     14903     14905
     14918     14914     14903     14912     14919     14914     14903     14912
     14933     14929     14920     14922     14934     14929     14920     14922
     14935     14931     14920     14929     14936     14931     14920     14929
     14950     14946     14937     14939     14951     14946     14937     14939
     14952     14948     14937     14946     14953     14948     14937     14946
     14967     14963     14954     14956     14968     14963     14954     14956
     14969     14965     14954     14963     14970     14965     14954     14963
     14984     14980     14971     14973     14985     14980     14971     14973
     14986     14982     14971     14980     14987     14982     14971     14980
     15001     14997     14988     14990     15002     14997     14988     14990
     15003     14999     14988     14997     15004     14999     14988     14997
     15018     15014     15005     15007     15019     15014     15005     15007
     15020     15016     15005     15014     15021     15016     15005     15014
     15035     15031     15022     15024     15036     15031     15022     15024
     15037     15033     15022     15031     15038     15033     15022     15031
     15052     15048     15039     15041     15053     15048     15039     15041
     15054     15050     15039     15048     15055     15050     15039     15048
     15069     15065     15056     15058     15070     15065     15056     15058
     15071     15067     15056     15065     15072     15067     15056     15065
     15086     15082     15073     15075     15087     15082     15073     15075
     15088     15084     15073     15082     15089     15084     15073     15082
     15103     15099     15090     15092     15104     15099     15090     15092
     15105     15101     15090     15099     15106     15101     15090     15099
     15120     15116     15107     15109     15121     15116     15107     15109
     15122     15118     15107     15116     15123     15118     15107     15116
     15137     15133     15124     15126     15138     15133     15124     15126
     15139     15135     15124     15133     15140     15135     15124     15133
     15154     15150     15141     15143     15155     15150     15141     15143
     15156     15152     15141     15150     15157     15152     15141     15150
     15171     15167     15158     15160     15172     15167     15158     15160
     15173     15169     15158     15167     15174     15169     15158     15167
     15188     15184     15175     15177     15189     15184     15175     15177
     15190     15186     15175     15184     15191     15186     15175     15184
     15205     15201     15192     15194     15206     15201     15192     15194
     15207     15203     15192     15201     15208     15203     15192     15201
     15222     15218     15209     15211     15223     15218     15209     15211
     15224     15220     15209     15218     15225     15220     15209     15218
     15239     15235     15226     15228     15240     15235     15226     15228
     15241     15237     15226     15235     15242     15237     15226     15235
     15256     15252     15243     15245     15257     15252     15243     15245
     15258     15254     15243     15252     15259     15254     15243     15252
     15273     15269     15260     15262     15274     15269     15260     15262
     15275     15271     15260     15269     15276     15271     15260     15269
     15290     15286     15277     15279     15291     15286     15277     15279
     15292     15288     15277     15286     15293     15288     15277     15286
     15307     15303     15294     15296     15308     15303     15294     15296
     15309     15305     15294     15303     15310     15305     15294     15303
     15324     15320     15311     15313     15325     15320     15311     15313
     15326     15322     15311     15320     15327     15322     15311     15320
     15341     15337     15328     15330     15342     15337     15328     15330
     15343     15339     15328     15337     15344     15339     15328     15337
     15358     15354     15345     15347     15359     15354     15345     15347
     15360     15356     15345     15354     15361     15356     15345     15354
     15375     15371     15362     15364     15376     15371     15362     15364
     15377     15373     15362     15371     15378     15373     15362     15371
     15392     15388     15379     15381     15393     15388     15379     15381
     15394     15390     15379     15388     15395     15390     15379     15388
     15409     15405     15396     15398     15410     15405     15396     15398
     15411     15407     15396     15405     15412     15407     15396     15405
     15426     15422     15413     15415     15427     15422     15413     15415
     15428     15424     15413     15422     15429     15424     15413     15422
     15443     15439     15430     15432     15444     15439     15430     15432
     15445     15441     15430     15439     15446     15441     15430     15439
     15460     15456     15447     15449     15461     15456     15447     15449
     15462     15458     15447     15456     15463     15458     15447     15456
     15477     15473     15464     15466     15478     15473     15464     15466
     15479     15475     15464     15473     15480     15475     15464     15473
     15494     15490     15481     15483     15495     15490     15481     15483
     15496     15492     15481     15490     15497     15492     15481     15490
     15511     15507     15498     15500     15512     15507     15498     15500
     15513     15509     15498     15507     15514     15509     15498     15507
     15528     15524     15515     15517     15529     15524     15515     15517
     15530     15526     15515     15524     15531     15526     15515     15524
     15545     15541     15532     15534     15546     15541     15532     15534
     15547     15543     15532     15541     15548     15543     15532     15541
     15562     15558     15549     15551     15563     15558     15549     15551
     15564     15560     15549     15558     15565     15560     15549     15558
     15579     15575     15566     15568     15580     15575     15566     15568
     15581     15577     15566     15575     15582     15577     15566     15575
     15596     15592     15583     15585     15597     15592     15583     15585
     15598     15594     15583     15592     15599     15594     15583     15592
     15613     15609     15600     15602     15614     15609     15600     15602
     15615     15611     15600     15609     15616     15611     15600     15609
     15630     15626     15617     15619     15631     15626     15617     15619
     15632     15628     15617     15626     15633     15628     15617     15626
     15647     15643     15634     15636     15648     15643     15634     15636
     15649     15645     15634     15643     15650     15645     15634     15643
     15664     15660     15651     15653     15665     15660     15651     15653
     15666     15662     15651     15660     15667     15662     15651     15660
     15681     15677     15668     15670     15682     15677     15668     15670
     15683     15679     15668     15677     15684     15679     15668     15677
     15698     15694     15685     15687     15699     15694     15685     15687
     15700     15696     15685     15694     15701     15696     15685     15694
     15715     15711     15702     15704     15716     15711     15702     15704
     15717     15713     15702     15711     15718     15713     15702     15711
     15732     15728     15719     15721     15733     15728     15719     15721
     15734     15730     15719     15728     15735     15730     15719     15728
     15749     15745     15736     15738     15750     15745     15736     15738
     15751     15747     15736     15745     15752     15747     15736     15745
     15766     15762     15753     15755     15767     15762     15753     15755
     15768     15764     15753     15762     15769     15764     15753     15762
     15783     15779     15770     15772     15784     15779     15770     15772
     15785     15781     15770     15779     15786     15781     15770     15779
     15800     15796     15787     15789     15801     15796     15787     15789
     15802     15798     15787     15796     15803     15798     15787     15796
     15817     15813     15804     15806     15818     15813     15804     15806
     15819     15815     15804     15813     15820     15815     15804     15813
     15834     15830     15821     15823     15835     15830     15821     15823
     15836     15832     15821     15830     15837     15832     15821     15830
     15851     15847     15838     15840     15852     15847     15838     15840
     15853     15849     15838     15847     15854     15849     15838     15847
     15868     15864     15855     15857     15869     15864     15855     15857
     15870     15866     15855     15864     15871     15866     15855     15864
     15885     15881     15872     15874     15886     15881     15872     15874
     15887     15883     15872     15881     15888     15883     15872     15881
     15902     15898     15889     15891     15903     15898     15889     15891
     15904     15900     15889     15898     15905     15900     15889     15898
     15919     15915     15906     15908     15920     15915     15906     15908
     15921     15917     15906     15915     15922     15917     15906     15915
     15936     15932     15923     15925     15937     15932     15923     15925
     15938     15934     15923     15932     15939     15934     15923     15932
     15953     15949     15940     15942     15954     15949     15940     15942
     15955     15951     15940     15949     15956     15951     15940     15949
     15970     15966     15957     15959     15971     15966     15957     15959
     15972     15968     15957     15966     15973     15968     15957     15966
     15987     15983     15974     15976     15988     15983     15974     15976
     15989     15985     15974     15983     15990     15985     15974     15983
     16004     16000     15991     15993     16005     16000     15991     15993
     16006     16002     15991     16000     16007     16002     15991     16000
     16021     16017     16008     16010     16022     16017     16008     16010
     16023     16019     16008     16017     16024     16019     16008     16017
     16038     16034     16025     16027     16039     16034     16025     16027
     16040     16036     16025     16034     16041     16036     16025     16034
     16055     16051     16042     16044     16056     16051     16042     16044
     16057     16053     16042     16051     16058     16053     16042     16051
     16072     16068     16059     16061     16073     16068     16059     16061
     16074     16070     16059     16068     16075     16070     16059     16068
     16089     16085     16076     16078     16090     16085     16076     16078
     16091     16087     16076     16085     16092     16087     16076     16085
     16106     16102     16093     16095     16107     16102     16093     16095
     16108     16104     16093     16102     16109     16104     16093     16102
     16123     16119     16110     16112     16124     16119     16110     16112
     16125     16121     16110     16119     16126     16121     16110     16119
     16140     16136     16127     16129     16141     16136     16127     16129
     16142     16138     16127     16136     16143     16138     16127     16136
     16157     16153     16144     16146     16158     16153     16144     16146
     16159     16155     16144     16153     16160     16155     16144     16153
     16174     16170     16161     16163     16175     16170     16161     16163
     16176     16172     16161     16170     16177     16172     16161     16170
     16191     16187     16178     16180     16192     16187     16178     16180
     16193     16189     16178     16187     16194     16189     16178     16187
     16208     16204     16195     16197     16209     16204     16195     16197
     16210     16206     16195     16204     16211     16206     16195     16204
     16225     16221     16212     16214     16226     16221     16212     16214
     16227     16223     16212     16221     16228     16223     16212     16221
     16242     16238     16229     16231     16243     16238     16229     16231
     16244     16240     16229     16238     16245     16240     16229     16238
     16259     16255     16246     16248     16260     16255     16246     16248
     16261     16257     16246     16255     16262     16257     16246     16255
     16276     16272     16263     16265     16277     16272     16263     16265
     16278     16274     16263     16272     16279     16274     16263     16272
     16293     16289     16280     16282     16294     16289     16280     16282
     16295     16291     16280     16289     16296     16291     16280     16289
     16310     16306     16297     16299     16311     16306     16297     16299
     16312     16308     16297     16306     16313     16308     16297     16306
     16327     16323     16314     16316     16328     16323     16314     16316
     16329     16325     16314     16323     16330     16325     16314     16323
     16344     16340     16331     16333     16345     16340     16331     16333
     16346     16342     16331     16340     16347     16342     16331     16340
     16361     16357     16348     16350     16362     16357     16348     16350
     16363     16359     16348     16357     16364     16359     16348     16357
     16378     16374     16365     16367     16379     16374     16365     16367
     16380     16376     16365     16374     16381     16376     16365     16374
     16395     16391     16382     16384     16396     16391     16382     16384
     16397     16393     16382     16391     16398     16393     16382     16391
     16412     16408     16399     16401     16413     16408     16399     16401
     16414     16410     16399     16408     16415     16410     16399     16408
     16429     16425     16416     16418     16430     16425     16416     16418
     16431     16427     16416     16425     16432     16427     16416     16425
     16446     16442     16433     16435     16447     16442     16433     16435
     16448     16444     16433     16442     16449     16444     16433     16442
     16463     16459     16450     16452     16464     16459     16450     16452
     16465     16461     16450     16459     16466     16461     16450     16459
     16480     16476     16467     16469     16481     16476     16467     16469
     16482     16478     16467     16476     16483     16478     16467     16476
     16497     16493     16484     16486     16498     16493     16484     16486
     16499     16495     16484     16493     16500     16495     16484     16493
     16514     16510     16501     16503     16515     16510     16501     16503
     16516     16512     16501     16510     16517     16512     16501     16510
     16531     16527     16518     16520     16532     16527     16518     16520
     16533     16529     16518     16527     16534     16529     16518     16527
     16548     16544     16535     16537     16549     16544     16535     16537
     16550     16546     16535     16544     16551     16546     16535     16544
     16565     16561     16552     16554     16566     16561     16552     16554
     16567     16563     16552     16561     16568     16563     16552     16561
     16582     16578     16569     16571     16583     16578     16569     16571
     16584     16580     16569     16578     16585     16580     16569     16578
     16599     16595     16586     16588     16600     16595     16586     16588
     16601     16597     16586     16595     16602     16597     16586     16595
     16616     16612     16603     16605     16617     16612     16603     16605
     16618     16614     16603     16612     16619     16614     16603     16612
     16633     16629     16620     16622     16634     16629     16620     16622
     16635     16631     16620     16629     16636     16631     16620     16629
     16650     16646     16637     16639     16651     16646     16637     16639
     16652     16648     16637     16646     16653     16648     16637     16646
     16667     16663     16654     16656     16668     16663     16654     16656
     16669     16665     16654     16663     16670     16665     16654     16663
     16684     16680     16671     16673     16685     16680     16671     16673
     16686     16682     16671     16680     16687     16682     16671     16680
     16701     16697     16688     16690     16702     16697     16688     16690
     16703     16699     16688     16697     16704     16699     16688     16697
     16718     16714     16705     16707     16719     16714     16705     16707
     16720     16716     16705     16714     16721     16716     16705     16714
     16735     16731     16722     16724     16736     16731     16722     16724
     16737     16733     16722     16731     16738     16733     16722     16731
     16752     16748     16739     16741     16753     16748     16739     16741
     16754     16750     16739     16748     16755     16750     16739     16748
     16769     16765     16756     16758     16770     16765     16756     16758
     16771     16767     16756     16765     16772     16767     16756     16765
     16786     16782     16773     16775     16787     16782     16773     16775
     16788     16784     16773     16782     16789     16784     16773     16782
     16803     16799     16790     16792     16804     16799     16790     16792
     16805     16801     16790     16799     16806     16801     16790     16799
     16820     16816     16807     16809     16821     16816     16807     16809
     16822     16818     16807     16816     16823     16818     16807     16816
     16837     16833     16824     16826     16838     16833     16824     16826
     16839     16835     16824     16833     16840     16835     16824     16833
     16854     16850     16841     16843     16855     16850     16841     16843
     16856     16852     16841     16850     16857     16852     16841     16850
     16871     16867     16858     16860     16872     16867     16858     16860
     16873     16869     16858     16867     16874     16869     16858     16867
     16888     16884     16875     16877     16889     16884     16875     16877
     16890     16886     16875     16884     16891     16886     16875     16884
     16905     16901     16892     16894     16906     16901     16892     16894
     16907     16903     16892     16901     16908     16903     16892     16901
     16922     16918     16909     16911     16923     16918     16909     16911
     16924     16920     16909     16918     16925     16920     16909     16918
     16939     16935     16926     16928     16940     16935     16926     16928
     16941     16937     16926     16935     16942     16937     16926     16935
     16956     16952     16943     16945     16957     16952     16943     16945
     16958     16954     16943     16952     16959     16954     16943     16952
     16973     16969     16960     16962     16974     16969     16960     16962
     16975     16971     16960     16969     16976     16971     16960     16969
     16990     16986     16977     16979     16991     16986     16977     16979
     16992     16988     16977     16986     16993     16988     16977     16986
     17007     17003     16994     16996     17008     17003     16994     16996
     17009     17005     16994     17003     17010     17005     16994     17003
     17024     17020     17011     17013     17025     17020     17011     17013
     17026     17022     17011     17020     17027     17022     17011     17020
     17041     17037     17028     17030     17042     17037     17028     17030
     17043     17039     17028     17037     17044     17039     17028     17037
     17058     17054     17045     17047     17059     17054     17045     17047
     17060     17056     17045     17054     17061     17056     17045     17054
     17075     17071     17062     17064     17076     17071     17062     17064
     17077     17073     17062     17071     17078     17073     17062     17071
     17092     17088     17079     17081     17093     17088     17079     17081
     17094     17090     17079     17088     17095     17090     17079     17088
     17109     17105     17096     17098     17110     17105     17096     17098
     17111     17107     17096     17105     17112     17107     17096     17105
     17126     17122     17113     17115     17127     17122     17113     17115
     17128     17124     17113     17122     17129     17124     17113     17122
     17143     17139     17130     17132     17144     17139     17130     17132
     17145     17141     17130     17139     17146     17141     17130     17139
     17160     17156     17147     17149     17161     17156     17147     17149
     17162     17158     17147     17156     17163     17158     17147     17156
     17177     17173     17164     17166     17178     17173     17164     17166
     17179     17175     17164     17173     17180     17175     17164     17173
     17194     17190     17181     17183     17195     17190     17181     17183
     17196     17192     17181     17190     17197     17192     17181     17190
     17211     17207     17198     17200     17212     17207     17198     17200
     17213     17209     17198     17207     17214     17209     17198     17207
     17228     17224     17215     17217     17229     17224     17215     17217
     17230     17226     17215     17224     17231     17226     17215     17224
     17245     17241     17232     17234     17246     17241     17232     17234
     17247     17243     17232     17241     17248     17243     17232     17241
     17262     17258     17249     17251     17263     17258     17249     17251
     17264     17260     17249     17258     17265     17260     17249     17258
     17279     17275     17266     17268     17280     17275     17266     17268
     17281     17277     17266     17275     17282     17277     17266     17275
     17296     17292     17283     17285     17297     17292     17283     17285
     17298     17294     17283     17292     17299     17294     17283     17292
     17313     17309     17300     17302     17314     17309     17300     17302
     17315     17311     17300     17309     17316     17311     17300     17309
     17330     17326     17317     17319     17331     17326     17317     17319
     17332     17328     17317     17326     17333     17328     17317     17326
     17347     17343     17334     17336     17348     17343     17334     17336
     17349     17345     17334     17343     17350     17345     17334     17343
     17364     17360     17351     17353     17365     17360     17351     17353
     17366     17362     17351     17360     17367     17362     17351     17360
     17381     17377     17368     17370     17382     17377     17368     17370
     17383     17379     17368     17377     17384     17379     17368     17377
     17398     17394     17385     17387     17399     17394     17385     17387
     17400     17396     17385     17394     17401     17396     17385     17394
     17415     17411     17402     17404     17416     17411     17402     17404
     17417     17413     17402     17411     17418     17413     17402     17411
     17432     17428     17419     17421     17433     17428     17419     17421
     17434     17430     17419     17428     17435     17430     17419     17428
     17449     17445     17436     17438     17450     17445     17436     17438
     17451     17447     17436     17445     17452     17447     17436     17445
     17466     17462     17453     17455     17467     17462     17453     17455
     17468     17464     17453     17462     17469     17464     17453     17462
     17483     17479     17470     17472     17484     17479     17470     17472
     17485     17481     17470     17479     17486     17481     17470     17479
     17500     17496     17487     17489     17501     17496     17487     17489
     17502     17498     17487     17496     17503     17498     17487     17496
     17517     17513     17504     17506     17518     17513     17504     17506
     17519     17515     17504     17513     17520     17515     17504     17513
     17534     17530     17521     17523     17535     17530     17521     17523
     17536     17532     17521     17530     17537     17532     17521     17530
     17551     17547     17538     17540     17552     17547     17538     17540
     17553     17549     17538     17547     17554     17549     17538     17547
     17568     17564     17555     17557     17569     17564     17555     17557
     17570     17566     17555     17564     17571     17566     17555     17564
     17585     17581     17572     17574     17586     17581     17572     17574
     17587     17583     17572     17581     17588     17583     17572     17581
     17602     17598     17589     17591     17603     17598     17589     17591
     17604     17600     17589     17598     17605     17600     17589     17598
     17619     17615     17606     17608     17620     17615     17606     17608
     17621     17617     17606     17615     17622     17617     17606     17615
     17636     17632     17623     17625     17637     17632     17623     17625
     17638     17634     17623     17632     17639     17634     17623     17632
     17653     17649     17640     17642     17654     17649     17640     17642
     17655     17651     17640     17649     17656     17651     17640     17649
     17670     17666     17657     17659     17671     17666     17657     17659
     17672     17668     17657     17666     17673     17668     17657     17666
     17687     17683     17674     17676     17688     17683     17674     17676
     17689     17685     17674     17683     17690     17685     17674     17683
     17704     17700     17691     17693     17705     17700     17691     17693
     17706     17702     17691     17700     17707     17702     17691     17700
     17721     17717     17708     17710     17722     17717     17708     17710
     17723     17719     17708     17717     17724     17719     17708     17717
     17738     17734     17725     17727     17739     17734     17725     17727
     17740     17736     17725     17734     17741     17736     17725     17734
     17755     17751     17742     17744     17756     17751     17742     17744
     17757     17753     17742     17751     17758     17753     17742     17751
     17772     17768     17759     17761     17773     17768     17759     17761
     17774     17770     17759     17768     17775     17770     17759     17768
     17789     17785     17776     17778     17790     17785     17776     17778
     17791     17787     17776     17785     17792     17787     17776     17785
     17806     17802     17793     17795     17807     17802     17793     17795
     17808     17804     17793     17802     17809     17804     17793     17802
     17823     17819     17810     17812     17824     17819     17810     17812
     17825     17821     17810     17819     17826     17821     17810     17819
     17840     17836     17827     17829     17841     17836     17827     17829
     17842     17838     17827     17836     17843     17838     17827     17836
     17857     17853     17844     17846     17858     17853     17844     17846
     17859     17855     17844     17853     17860     17855     17844     17853
     17874     17870     17861     17863     17875     17870     17861     17863
     17876     17872     17861     17870     17877     17872     17861     17870
     17891     17887     17878     17880     17892     17887     17878     17880
     17893     17889     17878     17887     17894     17889     17878     17887
     17908     17904     17895     17897     17909     17904     17895     17897
     17910     17906     17895     17904     17911     17906     17895     17904
     17925     17921     17912     17914     17926     17921     17912     17914
     17927     17923     17912     17921     17928     17923     17912     17921
     17942     17938     17929     17931     17943     17938     17929     17931
     17944     17940     17929     17938     17945     17940     17929     17938
     17959     17955     17946     17948     17960     17955     17946     17948
     17961     17957     17946     17955     17962     17957     17946     17955
     17976     17972     17963     17965     17977     17972     17963     17965
     17978     17974     17963     17972     17979     17974     17963     17972
     17993     17989     17980     17982     17994     17989     17980     17982
     17995     17991     17980     17989     17996     17991     17980     17989
     18010     18006     17997     17999     18011     18006     17997     17999
     18012     18008     17997     18006     18013     18008     17997     18006
     18027     18023     18014     18016     18028     18023     18014     18016
     18029     18025     18014     18023     18030     18025     18014     18023
     18044     18040     18031     18033     18045     18040     18031     18033
     18046     18042     18031     18040     18047     18042     18031     18040
     18061     18057     18048     18050     18062     18057     18048     18050
     18063     18059     18048     18057     18064     18059     18048     18057
     18078     18074     18065     18067     18079     18074     18065     18067
     18080     18076     18065     18074     18081     18076     18065     18074
     18095     18091     18082     18084     18096     18091     18082     18084
     18097     18093     18082     18091     18098     18093     18082     18091
     18112     18108     18099     18101     18113     18108     18099     18101
     18114     18110     18099     18108     18115     18110     18099     18108
     18129     18125     18116     18118     18130     18125     18116     18118
     18131     18127     18116     18125     18132     18127     18116     18125
     18146     18142     18133     18135     18147     18142     18133     18135
     18148     18144     18133     18142     18149     18144     18133     18142
     18163     18159     18150     18152     18164     18159     18150     18152
     18165     18161     18150     18159     18166     18161     18150     18159
     18180     18176     18167     18169     18181     18176     18167     18169
     18182     18178     18167     18176     18183     18178     18167     18176
     18197     18193     18184     18186     18198     18193     18184     18186
     18199     18195     18184     18193     18200     18195     18184     18193

       600 !NUMANISO
             395.273      -197.531      -11.9553    
             395.273      -197.531      -11.9553    
             395.273      -197.531      -11.9553    
             395.273      -197.531      -11.9553    
             395.273      -197.531      -11.9553    
             395.273      -197.531      -11.9553    
             395.273      -197.531      -11.9553    
             395.273      -197.531      -11.9553    
             395.273      -197.531      -11.9553    
             395.273      -197.531      -11.9553    
             395.273      -197.531      -11.9553    
             395.273      -197.531      -11.9553    
             395.273      -197.531      -11.9553    
             395.273      -197.531      -11.9553    
             395.273      -197.531      -11.9553    
             395.273      -197.531      -11.9553    
             395.273      -197.531      -11.9553    
             395.273      -197.531      -11.9553    
             395.273      -197.531      -11.9553    
             395.273      -197.531      -11.9553    
             395.273      -197.531      -11.9553    
             395.273      -197.531      -11.9553    
             395.273      -197.531      -11.9553    
             395.273      -197.531      -11.9553    
             395.273      -197.531      -11.9553    
             395.273      -197.531      -11.9553    
             395.273      -197.531      -11.9553    
             395.273      -197.531      -11.9553    
             395.273      -197.531      -11.9553    
             395.273      -197.531      -11.9553    
             395.273      -197.531      -11.9553    
             395.273      -197.531      -11.9553    
             395.273      -197.531      -11.9553    
             395.273      -197.531      -11.9553    
             395.273      -197.531      -11.9553    
             395.273      -197.531      -11.9553    
             395.273      -197.531      -11.9553    
             395.273      -197.531      -11.9553    
             395.273      -197.531      -11.9553    
             395.273      -197.531      -11.9553    
             395.273      -197.531      -11.9553    
             395.273      -197.531      -11.9553    
             395.273      -197.531      -11.9553    
             395.273      -197.531      -11.9553    
             395.273      -197.531      -11.9553    
             395.273      -197.531      -11.9553    
             395.273      -197.531      -11.9553    
             395.273      -197.531      -11.9553    
             395.273      -197.531      -11.9553    
             395.273      -197.531      -11.9553    
             395.273      -197.531      -11.9553    
             395.273      -197.531      -11.9553    
             395.273      -197.531      -11.9553    
             395.273      -197.531      -11.9553    
             395.273      -197.531      -11.9553    
             395.273      -197.531      -11.9553    
             395.273      -197.531      -11.9553    
             395.273      -197.531      -11.9553    
             395.273      -197.531      -11.9553    
             395.273      -197.531      -11.9553    
             395.273      -197.531      -11.9553    
             395.273      -197.531      -11.9553    
             395.273      -197.531      -11.9553    
             395.273      -197.531      -11.9553    
             395.273      -197.531      -11.9553    
             395.273      -197.531      -11.9553    
             395.273      -197.531      -11.9553    
             395.273      -197.531      -11.9553    
             395.273      -197.531      -11.9553    
             395.273      -197.531      -11.9553    
             395.273      -197.531      -11.9553    
             395.273      -197.531      -11.9553    
             395.273      -197.531      -11.9553    
             395.273      -197.531      -11.9553    
             395.273      -197.531      -11.9553    
             395.273      -197.531      -11.9553    
             395.273      -197.531      -11.9553    
             395.273      -197.531      -11.9553    
             395.273      -197.531      -11.9553    
             395.273      -197.531      -11.9553    
             395.273      -197.531      -11.9553    
             395.273      -197.531      -11.9553    
             395.273      -197.531      -11.9553    
             395.273      -197.531      -11.9553    
             395.273      -197.531      -11.9553    
             395.273      -197.531      -11.9553    
             395.273      -197.531      -11.9553    
             395.273      -197.531      -11.9553    
             395.273      -197.531      -11.9553    
             395.273      -197.531      -11.9553    
             395.273      -197.531      -11.9553    
             395.273      -197.531      -11.9553    
             395.273      -197.531      -11.9553    
             395.273      -197.531      -11.9553    
             395.273      -197.531      -11.9553    
             395.273      -197.531      -11.9553    
             395.273      -197.531      -11.9553    
             395.273      -197.531      -11.9553    
             395.273      -197.531      -11.9553    
             395.273      -197.531      -11.9553    
             395.273      -197.531      -11.9553    
             395.273      -197.531      -11.9553    
             395.273      -197.531      -11.9553    
             395.273      -197.531      -11.9553    
             395.273      -197.531      -11.9553    
             395.273      -197.531      -11.9553    
             395.273      -197.531      -11.9553    
             395.273      -197.531      -11.9553    
             395.273      -197.531      -11.9553    
             395.273      -197.531      -11.9553    
             395.273      -197.531      -11.9553    
             395.273      -197.531      -11.9553    
             395.273      -197.531      -11.9553    
             395.273      -197.531      -11.9553    
             395.273      -197.531      -11.9553    
             395.273      -197.531      -11.9553    
             395.273      -197.531      -11.9553    
             395.273      -197.531      -11.9553    
             395.273      -197.531      -11.9553    
             395.273      -197.531      -11.9553    
             395.273      -197.531      -11.9553    
             395.273      -197.531      -11.9553    
             395.273      -197.531      -11.9553    
             395.273      -197.531      -11.9553    
             395.273      -197.531      -11.9553    
             395.273      -197.531      -11.9553    
             395.273      -197.531      -11.9553    
             395.273      -197.531      -11.9553    
             395.273      -197.531      -11.9553    
             395.273      -197.531      -11.9553    
             395.273      -197.531      -11.9553    
             395.273      -197.531      -11.9553    
             395.273      -197.531      -11.9553    
             395.273      -197.531      -11.9553    
             395.273      -197.531      -11.9553    
             395.273      -197.531      -11.9553    
             395.273      -197.531      -11.9553    
             395.273      -197.531      -11.9553    
             395.273      -197.531      -11.9553    
             395.273      -197.531      -11.9553    
             395.273      -197.531      -11.9553    
             395.273      -197.531      -11.9553    
             395.273      -197.531      -11.9553    
             395.273      -197.531      -11.9553    
             395.273      -197.531      -11.9553    
             395.273      -197.531      -11.9553    
             395.273      -197.531      -11.9553    
             395.273      -197.531      -11.9553    
             395.273      -197.531      -11.9553    
             395.273      -197.531      -11.9553    
             395.273      -197.531      -11.9553    
             395.273      -197.531      -11.9553    
             395.273      -197.531      -11.9553    
             395.273      -197.531      -11.9553    
             395.273      -197.531      -11.9553    
             395.273      -197.531      -11.9553    
             395.273      -197.531      -11.9553    
             395.273      -197.531      -11.9553    
             395.273      -197.531      -11.9553    
             395.273      -197.531      -11.9553    
             395.273      -197.531      -11.9553    
             395.273      -197.531      -11.9553    
             395.273      -197.531      -11.9553    
             395.273      -197.531      -11.9553    
             395.273      -197.531      -11.9553    
             395.273      -197.531      -11.9553    
             395.273      -197.531      -11.9553    
             395.273      -197.531      -11.9553    
             395.273      -197.531      -11.9553    
             395.273      -197.531      -11.9553    
             395.273      -197.531      -11.9553    
             395.273      -197.531      -11.9553    
             395.273      -197.531      -11.9553    
             395.273      -197.531      -11.9553    
             395.273      -197.531      -11.9553    
             395.273      -197.531      -11.9553    
             395.273      -197.531      -11.9553    
             395.273      -197.531      -11.9553    
             395.273      -197.531      -11.9553    
             395.273      -197.531      -11.9553    
             512.453      -102.604      -77.3205    
             205.601      -205.516       27.7492    
             512.453      -102.604      -77.3205    
             205.601      -205.516       27.7492    
             512.453      -102.604      -77.3205    
             205.601      -205.516       27.7492    
             512.453      -102.604      -77.3205    
             205.601      -205.516       27.7492    
             512.453      -102.604      -77.3205    
             205.601      -205.516       27.7492    
             512.453      -102.604      -77.3205    
             205.601      -205.516       27.7492    
             512.453      -102.604      -77.3205    
             205.601      -205.516       27.7492    
             512.453      -102.604      -77.3205    
             205.601      -205.516       27.7492    
             512.453      -102.604      -77.3205    
             205.601      -205.516       27.7492    
             512.453      -102.604      -77.3205    
             205.601      -205.516       27.7492    
             512.453      -102.604      -77.3205    
             205.601      -205.516       27.7492    
             512.453      -102.604      -77.3205    
             205.601      -205.516       27.7492    
             512.453      -102.604      -77.3205    
             205.601      -205.516       27.7492    
             512.453      -102.604      -77.3205    
             205.601      -205.516       27.7492    
             512.453      -102.604      -77.3205    
             205.601      -205.516       27.7492    
             512.453      -102.604      -77.3205    
             205.601      -205.516       27.7492    
             512.453      -102.604      -77.3205    
             205.601      -205.516       27.7492    
             512.453      -102.604      -77.3205    
             205.601      -205.516       27.7492    
             512.453      -102.604      -77.3205    
             205.601      -205.516       27.7492    
             512.453      -102.604      -77.3205    
             205.601      -205.516       27.7492    
             512.453      -102.604      -77.3205    
             205.601      -205.516       27.7492    
             512.453      -102.604      -77.3205    
             205.601      -205.516       27.7492    
             512.453      -102.604      -77.3205    
             205.601      -205.516       27.7492    
             512.453      -102.604      -77.3205    
             205.601      -205.516       27.7492    
             512.453      -102.604      -77.3205    
             205.601      -205.516       27.7492    
             512.453      -102.604      -77.3205    
             205.601      -205.516       27.7492    
             512.453      -102.604      -77.3205    
             205.601      -205.516       27.7492    
             512.453      -102.604      -77.3205    
             205.601      -205.516       27.7492    
             512.453      -102.604      -77.3205    
             205.601      -205.516       27.7492    
             512.453      -102.604      -77.3205    
             205.601      -205.516       27.7492    
             512.453      -102.604      -77.3205    
             205.601      -205.516       27.7492    
             512.453      -102.604      -77.3205    
             205.601      -205.516       27.7492    
             512.453      -102.604      -77.3205    
             205.601      -205.516       27.7492    
             512.453      -102.604      -77.3205    
             205.601      -205.516       27.7492    
             512.453      -102.604      -77.3205    
             205.601      -205.516       27.7492    
             512.453      -102.604      -77.3205    
             205.601      -205.516       27.7492    
             512.453      -102.604      -77.3205    
             205.601      -205.516       27.7492    
             512.453      -102.604      -77.3205    
             205.601      -205.516       27.7492    
             512.453      -102.604      -77.3205    
             205.601      -205.516       27.7492    
             512.453      -102.604      -77.3205    
             205.601      -205.516       27.7492    
             512.453      -102.604      -77.3205    
             205.601      -205.516       27.7492    
             512.453      -102.604      -77.3205    
             205.601      -205.516       27.7492    
             512.453      -102.604      -77.3205    
             205.601      -205.516       27.7492    
             512.453      -102.604      -77.3205    
             205.601      -205.516       27.7492    
             512.453      -102.604      -77.3205    
             205.601      -205.516       27.7492    
             512.453      -102.604      -77.3205    
             205.601      -205.516       27.7492    
             512.453      -102.604      -77.3205    
             205.601      -205.516       27.7492    
             512.453      -102.604      -77.3205    
             205.601      -205.516       27.7492    
             512.453      -102.604      -77.3205    
             205.601      -205.516       27.7492    
             512.453      -102.604      -77.3205    
             205.601      -205.516       27.7492    
             512.453      -102.604      -77.3205    
             205.601      -205.516       27.7492    
             512.453      -102.604      -77.3205    
             205.601      -205.516       27.7492    
             512.453      -102.604      -77.3205    
             205.601      -205.516       27.7492    
             512.453      -102.604      -77.3205    
             205.601      -205.516       27.7492    
             512.453      -102.604      -77.3205    
             205.601      -205.516       27.7492    
             512.453      -102.604      -77.3205    
             205.601      -205.516       27.7492    
             512.453      -102.604      -77.3205    
             205.601      -205.516       27.7492    
             512.453      -102.604      -77.3205    
             205.601      -205.516       27.7492    
             512.453      -102.604      -77.3205    
             205.601      -205.516       27.7492    
             512.453      -102.604      -77.3205    
             205.601      -205.516       27.7492    
             512.453      -102.604      -77.3205    
             205.601      -205.516       27.7492    
             512.453      -102.604      -77.3205    
             205.601      -205.516       27.7492    
             512.453      -102.604      -77.3205    
             205.601      -205.516       27.7492    
             512.453      -102.604      -77.3205    
             205.601      -205.516       27.7492    
             512.453      -102.604      -77.3205    
             205.601      -205.516       27.7492    
             512.453      -102.604      -77.3205    
             205.601      -205.516       27.7492    
             512.453      -102.604      -77.3205    
             205.601      -205.516       27.7492    
             512.453      -102.604      -77.3205    
             205.601      -205.516       27.7492    
             512.453      -102.604      -77.3205    
             205.601      -205.516       27.7492    
             512.453      -102.604      -77.3205    
             205.601      -205.516       27.7492    
             512.453      -102.604      -77.3205    
             205.601      -205.516       27.7492    
             512.453      -102.604      -77.3205    
             205.601      -205.516       27.7492    
             512.453      -102.604      -77.3205    
             205.601      -205.516       27.7492    
             512.453      -102.604      -77.3205    
             205.601      -205.516       27.7492    
             512.453      -102.604      -77.3205    
             205.601      -205.516       27.7492    
             512.453      -102.604      -77.3205    
             205.601      -205.516       27.7492    
             512.453      -102.604      -77.3205    
             205.601      -205.516       27.7492    
             512.453      -102.604      -77.3205    
             205.601      -205.516       27.7492    
             512.453      -102.604      -77.3205    
             205.601      -205.516       27.7492    
             512.453      -102.604      -77.3205    
             205.601      -205.516       27.7492    
             512.453      -102.604      -77.3205    
             205.601      -205.516       27.7492    
             512.453      -102.604      -77.3205    
             205.601      -205.516       27.7492    
             512.453      -102.604      -77.3205    
             205.601      -205.516       27.7492    
             512.453      -102.604      -77.3205    
             205.601      -205.516       27.7492    
             512.453      -102.604      -77.3205    
             205.601      -205.516       27.7492    
             512.453      -102.604      -77.3205    
             205.601      -205.516       27.7492    
             512.453      -102.604      -77.3205    
             205.601      -205.516       27.7492    
             512.453      -102.604      -77.3205    
             205.601      -205.516       27.7492    
             512.453      -102.604      -77.3205    
             205.601      -205.516       27.7492    
             512.453      -102.604      -77.3205    
             205.601      -205.516       27.7492    
             512.453      -102.604      -77.3205    
             205.601      -205.516       27.7492    
             512.453      -102.604      -77.3205    
             205.601      -205.516       27.7492    
             512.453      -102.604      -77.3205    
             205.601      -205.516       27.7492    
             512.453      -102.604      -77.3205    
             205.601      -205.516       27.7492    
             512.453      -102.604      -77.3205    
             205.601      -205.516       27.7492    
             512.453      -102.604      -77.3205    
             205.601      -205.516       27.7492    
             512.453      -102.604      -77.3205    
             205.601      -205.516       27.7492    
             512.453      -102.604      -77.3205    
             205.601      -205.516       27.7492    
             512.453      -102.604      -77.3205    
             205.601      -205.516       27.7492    
             512.453      -102.604      -77.3205    
             205.601      -205.516       27.7492    
             512.453      -102.604      -77.3205    
             205.601      -205.516       27.7492    
             512.453      -102.604      -77.3205    
             205.601      -205.516       27.7492    
             512.453      -102.604      -77.3205    
             205.601      -205.516       27.7492    
             512.453      -102.604      -77.3205    
             205.601      -205.516       27.7492    
             512.453      -102.604      -77.3205    
             205.601      -205.516       27.7492    
             512.453      -102.604      -77.3205    
             205.601      -205.516       27.7492    
             512.453      -102.604      -77.3205    
             205.601      -205.516       27.7492    
             512.453      -102.604      -77.3205    
             205.601      -205.516       27.7492    
             512.453      -102.604      -77.3205    
             205.601      -205.516       27.7492    
             512.453      -102.604      -77.3205    
             205.601      -205.516       27.7492    
             512.453      -102.604      -77.3205    
             205.601      -205.516       27.7492    
             512.453      -102.604      -77.3205    
             205.601      -205.516       27.7492    
             512.453      -102.604      -77.3205    
             205.601      -205.516       27.7492    
             512.453      -102.604      -77.3205    
             205.601      -205.516       27.7492    
             512.453      -102.604      -77.3205    
             205.601      -205.516       27.7492    
             512.453      -102.604      -77.3205    
             205.601      -205.516       27.7492    
             512.453      -102.604      -77.3205    
             205.601      -205.516       27.7492    
             512.453      -102.604      -77.3205    
             205.601      -205.516       27.7492    
             512.453      -102.604      -77.3205    
             205.601      -205.516       27.7492    
             512.453      -102.604      -77.3205    
             205.601      -205.516       27.7492    
             512.453      -102.604      -77.3205    
             205.601      -205.516       27.7492    
             512.453      -102.604      -77.3205    
             205.601      -205.516       27.7492    
             512.453      -102.604      -77.3205    
             205.601      -205.516       27.7492    
             512.453      -102.604      -77.3205    
             205.601      -205.516       27.7492    
             512.453      -102.604      -77.3205    
             205.601      -205.516       27.7492    
             512.453      -102.604      -77.3205    
             205.601      -205.516       27.7492    
             512.453      -102.604      -77.3205    
             205.601      -205.516       27.7492    
             512.453      -102.604      -77.3205    
             205.601      -205.516       27.7492    
             512.453      -102.604      -77.3205    
             205.601      -205.516       27.7492    
             512.453      -102.604      -77.3205    
             205.601      -205.516       27.7492    
             512.453      -102.604      -77.3205    
             205.601      -205.516       27.7492    
             512.453      -102.604      -77.3205    
             205.601      -205.516       27.7492    
             512.453      -102.604      -77.3205    
             205.601      -205.516       27.7492    
             512.453      -102.604      -77.3205    
             205.601      -205.516       27.7492    
             512.453      -102.604      -77.3205    
             205.601      -205.516       27.7492    
             512.453      -102.604      -77.3205    
             205.601      -205.516       27.7492    
             512.453      -102.604      -77.3205    
             205.601      -205.516       27.7492    
             512.453      -102.604      -77.3205    
             205.601      -205.516       27.7492    
             512.453      -102.604      -77.3205    
             205.601      -205.516       27.7492    
             512.453      -102.604      -77.3205    
             205.601      -205.516       27.7492    
             512.453      -102.604      -77.3205    
             205.601      -205.516       27.7492    
             512.453      -102.604      -77.3205    
             205.601      -205.516       27.7492    
             512.453      -102.604      -77.3205    
             205.601      -205.516       27.7492    
             512.453      -102.604      -77.3205    
             205.601      -205.516       27.7492    
             512.453      -102.604      -77.3205    
             205.601      -205.516       27.7492    
             512.453      -102.604      -77.3205    
             205.601      -205.516       27.7492    
             512.453      -102.604      -77.3205    
             205.601      -205.516       27.7492    
             512.453      -102.604      -77.3205    
             205.601      -205.516       27.7492    
             512.453      -102.604      -77.3205    
             205.601      -205.516       27.7492    
             512.453      -102.604      -77.3205    
             205.601      -205.516       27.7492    
             512.453      -102.604      -77.3205    
             205.601      -205.516       27.7492    
             512.453      -102.604      -77.3205    
             205.601      -205.516       27.7492    
             512.453      -102.604      -77.3205    
             205.601      -205.516       27.7492    
             512.453      -102.604      -77.3205    
             205.601      -205.516       27.7492    
             512.453      -102.604      -77.3205    
             205.601      -205.516       27.7492    
             512.453      -102.604      -77.3205    
             205.601      -205.516       27.7492    
             512.453      -102.604      -77.3205    
             205.601      -205.516       27.7492    
             512.453      -102.604      -77.3205    
             205.601      -205.516       27.7492    
             512.453      -102.604      -77.3205    
             205.601      -205.516       27.7492    
             512.453      -102.604      -77.3205    
             205.601      -205.516       27.7492    
             512.453      -102.604      -77.3205    
             205.601      -205.516       27.7492    
             512.453      -102.604      -77.3205    
             205.601      -205.516       27.7492    
             512.453      -102.604      -77.3205    
             205.601      -205.516       27.7492    
             512.453      -102.604      -77.3205    
             205.601      -205.516       27.7492    
             512.453      -102.604      -77.3205    
             205.601      -205.516       27.7492    
             512.453      -102.604      -77.3205    
             205.601      -205.516       27.7492    
             512.453      -102.604      -77.3205    
             205.601      -205.516       27.7492    
             512.453      -102.604      -77.3205    
             205.601      -205.516       27.7492    
             512.453      -102.604      -77.3205    
             205.601      -205.516       27.7492    
             512.453      -102.604      -77.3205    
             205.601      -205.516       27.7492    
             512.453      -102.604      -77.3205    
             205.601      -205.516       27.7492    
             512.453      -102.604      -77.3205    
             205.601      -205.516       27.7492    
             512.453      -102.604      -77.3205    
             205.601      -205.516       27.7492    
             512.453      -102.604      -77.3205    
             205.601      -205.516       27.7492    
             512.453      -102.604      -77.3205    
             205.601      -205.516       27.7492    
             512.453      -102.604      -77.3205    
             205.601      -205.516       27.7492    
             512.453      -102.604      -77.3205    
             205.601      -205.516       27.7492    
             512.453      -102.604      -77.3205    
             205.601      -205.516       27.7492    
             512.453      -102.604      -77.3205    
             205.601      -205.516       27.7492    
             512.453      -102.604      -77.3205    
             205.601      -205.516       27.7492    
             512.453      -102.604      -77.3205    
             205.601      -205.516       27.7492    
             512.453      -102.604      -77.3205    
             205.601      -205.516       27.7492    
             512.453      -102.604      -77.3205    
             205.601      -205.516       27.7492    
             512.453      -102.604      -77.3205    
             205.601      -205.516       27.7492    
             512.453      -102.604      -77.3205    
             205.601      -205.516       27.7492    
             512.453      -102.604      -77.3205    
             205.601      -205.516       27.7492    
             512.453      -102.604      -77.3205    
             205.601      -205.516       27.7492    
             512.453      -102.604      -77.3205    
             205.601      -205.516       27.7492    
             512.453      -102.604      -77.3205    
             205.601      -205.516       27.7492    
             512.453      -102.604      -77.3205    
             205.601      -205.516       27.7492    
             512.453      -102.604      -77.3205    
             205.601      -205.516       27.7492    
             512.453      -102.604      -77.3205    
             205.601      -205.516       27.7492    
             512.453      -102.604      -77.3205    
             205.601      -205.516       27.7492    
             512.453      -102.604      -77.3205    
             205.601      -205.516       27.7492    
             512.453      -102.604      -77.3205    
             205.601      -205.516       27.7492    
             512.453      -102.604      -77.3205    
             205.601      -205.516       27.7492    
             512.453      -102.604      -77.3205    
             205.601      -205.516       27.7492    
             512.453      -102.604      -77.3205    
             205.601      -205.516       27.7492    
             512.453      -102.604      -77.3205    
             205.601      -205.516       27.7492    
             512.453      -102.604      -77.3205    
             205.601      -205.516       27.7492    
             512.453      -102.604      -77.3205    
             205.601      -205.516       27.7492    
             512.453      -102.604      -77.3205    
             205.601      -205.516       27.7492    
             512.453      -102.604      -77.3205    
             205.601      -205.516       27.7492    
             512.453      -102.604      -77.3205    
             205.601      -205.516       27.7492    
             512.453      -102.604      -77.3205    
             205.601      -205.516       27.7492    
             512.453      -102.604      -77.3205    
             205.601      -205.516       27.7492    
             512.453      -102.604      -77.3205    
             205.601      -205.516       27.7492    
             512.453      -102.604      -77.3205    
             205.601      -205.516       27.7492    
             512.453      -102.604      -77.3205    
             205.601      -205.516       27.7492    
             512.453      -102.604      -77.3205    
             205.601      -205.516       27.7492    
      5808      5801      5813      5814      5810      5801      5815      5816
      5824      5817      5829      5830      5826      5817      5831      5832
      5840      5833      5845      5846      5842      5833      5847      5848
      5856      5849      5861      5862      5858      5849      5863      5864
      5872      5865      5877      5878      5874      5865      5879      5880
      5888      5881      5893      5894      5890      5881      5895      5896
      5904      5897      5909      5910      5906      5897      5911      5912
      5920      5913      5925      5926      5922      5913      5927      5928
      5936      5929      5941      5942      5938      5929      5943      5944
      5952      5945      5957      5958      5954      5945      5959      5960
      5968      5961      5973      5974      5970      5961      5975      5976
      5984      5977      5989      5990      5986      5977      5991      5992
      6000      5993      6005      6006      6002      5993      6007      6008
      6016      6009      6021      6022      6018      6009      6023      6024
      6032      6025      6037      6038      6034      6025      6039      6040
      6048      6041      6053      6054      6050      6041      6055      6056
      6064      6057      6069      6070      6066      6057      6071      6072
      6080      6073      6085      6086      6082      6073      6087      6088
      6096      6089      6101      6102      6098      6089      6103      6104
      6112      6105      6117      6118      6114      6105      6119      6120
      6128      6121      6133      6134      6130      6121      6135      6136
      6144      6137      6149      6150      6146      6137      6151      6152
      6160      6153      6165      6166      6162      6153      6167      6168
      6176      6169      6181      6182      6178      6169      6183      6184
      6192      6185      6197      6198      6194      6185      6199      6200
      6208      6201      6213      6214      6210      6201      6215      6216
      6224      6217      6229      6230      6226      6217      6231      6232
      6240      6233      6245      6246      6242      6233      6247      6248
      6256      6249      6261      6262      6258      6249      6263      6264
      6272      6265      6277      6278      6274      6265      6279      6280
      6288      6281      6293      6294      6290      6281      6295      6296
      6304      6297      6309      6310      6306      6297      6311      6312
      6320      6313      6325      6326      6322      6313      6327      6328
      6336      6329      6341      6342      6338      6329      6343      6344
      6352      6345      6357      6358      6354      6345      6359      6360
      6368      6361      6373      6374      6370      6361      6375      6376
      6384      6377      6389      6390      6386      6377      6391      6392
      6400      6393      6405      6406      6402      6393      6407      6408
      6416      6409      6421      6422      6418      6409      6423      6424
      6432      6425      6437      6438      6434      6425      6439      6440
      6448      6441      6453      6454      6450      6441      6455      6456
      6464      6457      6469      6470      6466      6457      6471      6472
      6480      6473      6485      6486      6482      6473      6487      6488
      6496      6489      6501      6502      6498      6489      6503      6504
      6512      6505      6517      6518      6514      6505      6519      6520
      6528      6521      6533      6534      6530      6521      6535      6536
      6544      6537      6549      6550      6546      6537      6551      6552
      6560      6553      6565      6566      6562      6553      6567      6568
      6576      6569      6581      6582      6578      6569      6583      6584
      6592      6585      6597      6598      6594      6585      6599      6600
      6608      6601      6613      6614      6610      6601      6615      6616
      6624      6617      6629      6630      6626      6617      6631      6632
      6640      6633      6645      6646      6642      6633      6647      6648
      6656      6649      6661      6662      6658      6649      6663      6664
      6672      6665      6677      6678      6674      6665      6679      6680
      6688      6681      6693      6694      6690      6681      6695      6696
      6704      6697      6709      6710      6706      6697      6711      6712
      6720      6713      6725      6726      6722      6713      6727      6728
      6736      6729      6741      6742      6738      6729      6743      6744
      6752      6745      6757      6758      6754      6745      6759      6760
      6768      6761      6773      6774      6770      6761      6775      6776
      6784      6777      6789      6790      6786      6777      6791      6792
      6800      6793      6805      6806      6802      6793      6807      6808
      6816      6809      6821      6822      6818      6809      6823      6824
      6832      6825      6837      6838      6834      6825      6839      6840
      6848      6841      6853      6854      6850      6841      6855      6856
      6864      6857      6869      6870      6866      6857      6871      6872
      6880      6873      6885      6886      6882      6873      6887      6888
      6896      6889      6901      6902      6898      6889      6903      6904
      6912      6905      6917      6918      6914      6905      6919      6920
      6928      6921      6933      6934      6930      6921      6935      6936
      6944      6937      6949      6950      6946      6937      6951      6952
      6960      6953      6965      6966      6962      6953      6967      6968
      6976      6969      6981      6982      6978      6969      6983      6984
      6992      6985      6997      6998      6994      6985      6999      7000
      7008      7001      7013      7014      7010      7001      7015      7016
      7024      7017      7029      7030      7026      7017      7031      7032
      7040      7033      7045      7046      7042      7033      7047      7048
      7056      7049      7061      7062      7058      7049      7063      7064
      7072      7065      7077      7078      7074      7065      7079      7080
      7088      7081      7093      7094      7090      7081      7095      7096
      7104      7097      7109      7110      7106      7097      7111      7112
      7120      7113      7125      7126      7122      7113      7127      7128
      7136      7129      7141      7142      7138      7129      7143      7144
      7152      7145      7157      7158      7154      7145      7159      7160
      7168      7161      7173      7174      7170      7161      7175      7176
      7184      7177      7189      7190      7186      7177      7191      7192
      7200      7193      7205      7206      7202      7193      7207      7208
      7216      7209      7221      7222      7218      7209      7223      7224
      7232      7225      7237      7238      7234      7225      7239      7240
     11448     11441     11453     11454     11450     11441     11455     11456
     11464     11457     11469     11470     11466     11457     11471     11472
     11480     11473     11485     11486     11482     11473     11487     11488
     11496     11489     11501     11502     11498     11489     11503     11504
     11512     11505     11517     11518     11514     11505     11519     11520
     11528     11521     11533     11534     11530     11521     11535     11536
     11544     11537     11549     11550     11546     11537     11551     11552
     11560     11553     11565     11566     11562     11553     11567     11568
     11576     11569     11581     11582     11578     11569     11583     11584
     11592     11585     11597     11598     11594     11585     11599     11600
     11608     11601     11613     11614     11610     11601     11615     11616
     11624     11617     11629     11630     11626     11617     11631     11632
     11640     11633     11645     11646     11642     11633     11647     11648
     11656     11649     11661     11662     11658     11649     11663     11664
     11672     11665     11677     11678     11674     11665     11679     11680
     11688     11681     11693     11694     11690     11681     11695     11696
     11704     11697     11709     11710     11706     11697     11711     11712
     11720     11713     11725     11726     11722     11713     11727     11728
     11736     11729     11741     11742     11738     11729     11743     11744
     11752     11745     11757     11758     11754     11745     11759     11760
     11768     11761     11773     11774     11770     11761     11775     11776
     11784     11777     11789     11790     11786     11777     11791     11792
     11800     11793     11805     11806     11802     11793     11807     11808
     11816     11809     11821     11822     11818     11809     11823     11824
     11832     11825     11837     11838     11834     11825     11839     11840
     11848     11841     11853     11854     11850     11841     11855     11856
     11864     11857     11869     11870     11866     11857     11871     11872
     11880     11873     11885     11886     11882     11873     11887     11888
     11896     11889     11901     11902     11898     11889     11903     11904
     11912     11905     11917     11918     11914     11905     11919     11920
     11928     11921     11933     11934     11930     11921     11935     11936
     11944     11937     11949     11950     11946     11937     11951     11952
     11960     11953     11965     11966     11962     11953     11967     11968
     11976     11969     11981     11982     11978     11969     11983     11984
     11992     11985     11997     11998     11994     11985     11999     12000
     12008     12001     12013     12014     12010     12001     12015     12016
     12024     12017     12029     12030     12026     12017     12031     12032
     12040     12033     12045     12046     12042     12033     12047     12048
     12056     12049     12061     12062     12058     12049     12063     12064
     12072     12065     12077     12078     12074     12065     12079     12080
     12088     12081     12093     12094     12090     12081     12095     12096
     12104     12097     12109     12110     12106     12097     12111     12112
     12120     12113     12125     12126     12122     12113     12127     12128
     12136     12129     12141     12142     12138     12129     12143     12144
     12152     12145     12157     12158     12154     12145     12159     12160
     12168     12161     12173     12174     12170     12161     12175     12176
     12184     12177     12189     12190     12186     12177     12191     12192
     12200     12193     12205     12206     12202     12193     12207     12208
     12216     12209     12221     12222     12218     12209     12223     12224
     12232     12225     12237     12238     12234     12225     12239     12240
     12248     12241     12253     12254     12250     12241     12255     12256
     12264     12257     12269     12270     12266     12257     12271     12272
     12280     12273     12285     12286     12282     12273     12287     12288
     12296     12289     12301     12302     12298     12289     12303     12304
     12312     12305     12317     12318     12314     12305     12319     12320
     12328     12321     12333     12334     12330     12321     12335     12336
     12344     12337     12349     12350     12346     12337     12351     12352
     12360     12353     12365     12366     12362     12353     12367     12368
     12376     12369     12381     12382     12378     12369     12383     12384
     12392     12385     12397     12398     12394     12385     12399     12400
     12408     12401     12413     12414     12410     12401     12415     12416
     12424     12417     12429     12430     12426     12417     12431     12432
     12440     12433     12445     12446     12442     12433     12447     12448
     12456     12449     12461     12462     12458     12449     12463     12464
     12472     12465     12477     12478     12474     12465     12479     12480
     12488     12481     12493     12494     12490     12481     12495     12496
     12504     12497     12509     12510     12506     12497     12511     12512
     12520     12513     12525     12526     12522     12513     12527     12528
     12536     12529     12541     12542     12538     12529     12543     12544
     12552     12545     12557     12558     12554     12545     12559     12560
     12568     12561     12573     12574     12570     12561     12575     12576
     12584     12577     12589     12590     12586     12577     12591     12592
     12600     12593     12605     12606     12602     12593     12607     12608
     12616     12609     12621     12622     12618     12609     12623     12624
     12632     12625     12637     12638     12634     12625     12639     12640
     12648     12641     12653     12654     12650     12641     12655     12656
     12664     12657     12669     12670     12666     12657     12671     12672
     12680     12673     12685     12686     12682     12673     12687     12688
     12696     12689     12701     12702     12698     12689     12703     12704
     12712     12705     12717     12718     12714     12705     12719     12720
     12728     12721     12733     12734     12730     12721     12735     12736
     12744     12737     12749     12750     12746     12737     12751     12752
     12760     12753     12765     12766     12762     12753     12767     12768
     12776     12769     12781     12782     12778     12769     12783     12784
     12792     12785     12797     12798     12794     12785     12799     12800
     12808     12801     12813     12814     12810     12801     12815     12816
     12824     12817     12829     12830     12826     12817     12831     12832
     12840     12833     12845     12846     12842     12833     12847     12848
     12856     12849     12861     12862     12858     12849     12863     12864
     12872     12865     12877     12878     12874     12865     12879     12880
     12888     12881     12893     12894     12890     12881     12895     12896
     12904     12897     12909     12910     12906     12897     12911     12912
     12920     12913     12925     12926     12922     12913     12927     12928
     12936     12929     12941     12942     12938     12929     12943     12944
     12952     12945     12957     12958     12954     12945     12959     12960
     12968     12961     12973     12974     12970     12961     12975     12976
     12984     12977     12989     12990     12986     12977     12991     12992
     13000     12993     13005     13006     13002     12993     13007     13008
     13016     13009     13021     13022     13018     13009     13023     13024
     13032     13025     13037     13038     13034     13025     13039     13040
     13048     13041     13053     13054     13050     13041     13055     13056
     13064     13057     13069     13070     13066     13057     13071     13072
     13080     13073     13085     13086     13082     13073     13087     13088
     13096     13089     13101     13102     13098     13089     13103     13104
     13112     13105     13117     13118     13114     13105     13119     13120
     13128     13121     13133     13134     13130     13121     13135     13136
     13144     13137     13149     13150     13146     13137     13151     13152
     13160     13153     13165     13166     13162     13153     13167     13168
     13176     13169     13181     13182     13178     13169     13183     13184
     13192     13185     13197     13198     13194     13185     13199     13200
     13208     13201     13213     13214     13210     13201     13215     13216
     13224     13217     13229     13230     13226     13217     13231     13232
     13240     13233     13245     13246     13242     13233     13247     13248
     13256     13249     13261     13262     13258     13249     13263     13264
     13272     13265     13277     13278     13274     13265     13279     13280
     13288     13281     13293     13294     13290     13281     13295     13296
     13304     13297     13309     13310     13306     13297     13311     13312
     13320     13313     13325     13326     13322     13313     13327     13328
     13336     13329     13341     13342     13338     13329     13343     13344
     13352     13345     13357     13358     13354     13345     13359     13360
     13368     13361     13373     13374     13370     13361     13375     13376
     13384     13377     13389     13390     13386     13377     13391     13392
     13400     13393     13405     13406     13402     13393     13407     13408
     13416     13409     13421     13422     13418     13409     13423     13424
     13432     13425     13437     13438     13434     13425     13439     13440
     13448     13441     13453     13454     13450     13441     13455     13456
     13464     13457     13469     13470     13466     13457     13471     13472
     13480     13473     13485     13486     13482     13473     13487     13488
     13496     13489     13501     13502     13498     13489     13503     13504
     13512     13505     13517     13518     13514     13505     13519     13520
     13528     13521     13533     13534     13530     13521     13535     13536
     13544     13537     13549     13550     13546     13537     13551     13552
     13560     13553     13565     13566     13562     13553     13567     13568
     13576     13569     13581     13582     13578     13569     13583     13584
     13592     13585     13597     13598     13594     13585     13599     13600
     13608     13601     13613     13614     13610     13601     13615     13616
     13624     13617     13629     13630     13626     13617     13631     13632
     13640     13633     13645     13646     13642     13633     13647     13648
     13656     13649     13661     13662     13658     13649     13663     13664
     13672     13665     13677     13678     13674     13665     13679     13680
     13688     13681     13693     13694     13690     13681     13695     13696
     13704     13697     13709     13710     13706     13697     13711     13712
     13720     13713     13725     13726     13722     13713     13727     13728
     13736     13729     13741     13742     13738     13729     13743     13744
     13752     13745     13757     13758     13754     13745     13759     13760
     13768     13761     13773     13774     13770     13761     13775     13776
     13784     13777     13789     13790     13786     13777     13791     13792
     13800     13793     13805     13806     13802     13793     13807     13808
     13816     13809     13821     13822     13818     13809     13823     13824
     13832     13825     13837     13838     13834     13825     13839     13840
     13848     13841     13853     13854     13850     13841     13855     13856
     13864     13857     13869     13870     13866     13857     13871     13872
     13880     13873     13885     13886     13882     13873     13887     13888
     13896     13889     13901     13902     13898     13889     13903     13904
     13912     13905     13917     13918     13914     13905     13919     13920
     13928     13921     13933     13934     13930     13921     13935     13936
     13944     13937     13949     13950     13946     13937     13951     13952
     13960     13953     13965     13966     13962     13953     13967     13968
     13976     13969     13981     13982     13978     13969     13983     13984
     13992     13985     13997     13998     13994     13985     13999     14000
     14008     14001     14013     14014     14010     14001     14015     14016
     14024     14017     14029     14030     14026     14017     14031     14032
     14040     14033     14045     14046     14042     14033     14047     14048
     14056     14049     14061     14062     14058     14049     14063     14064
     14072     14065     14077     14078     14074     14065     14079     14080
     14088     14081     14093     14094     14090     14081     14095     14096
     14104     14097     14109     14110     14106     14097     14111     14112
     14120     14113     14125     14126     14122     14113     14127     14128
     14136     14129     14141     14142     14138     14129     14143     14144
     14152     14145     14157     14158     14154     14145     14159     14160
     14168     14161     14173     14174     14170     14161     14175     14176
     14184     14177     14189     14190     14186     14177     14191     14192
     14200     14193     14205     14206     14202     14193     14207     14208
     14216     14209     14221     14222     14218     14209     14223     14224
     14232     14225     14237     14238     14234     14225     14239     14240
     14248     14241     14253     14254     14250     14241     14255     14256
     14264     14257     14269     14270     14266     14257     14271     14272
     14280     14273     14285     14286     14282     14273     14287     14288
     14296     14289     14301     14302     14298     14289     14303     14304
     14312     14305     14317     14318     14314     14305     14319     14320
     14328     14321     14333     14334     14330     14321     14335     14336
     14344     14337     14349     14350     14346     14337     14351     14352
     14360     14353     14365     14366     14362     14353     14367     14368
     14376     14369     14381     14382     14378     14369     14383     14384
     14392     14385     14397     14398     14394     14385     14399     14400
     14408     14401     14413     14414     14410     14401     14415     14416
     14424     14417     14429     14430     14426     14417     14431     14432
     14440     14433     14445     14446     14442     14433     14447     14448
     14456     14449     14461     14462     14458     14449     14463     14464
     14472     14465     14477     14478     14474     14465     14479     14480
     14488     14481     14493     14494     14490     14481     14495     14496
     14504     14497     14509     14510     14506     14497     14511     14512
     14520     14513     14525     14526     14522     14513     14527     14528
     14536     14529     14541     14542     14538     14529     14543     14544
     14552     14545     14557     14558     14554     14545     14559     14560
     14568     14561     14573     14574     14570     14561     14575     14576
     14584     14577     14589     14590     14586     14577     14591     14592
     14600     14593     14605     14606     14602     14593     14607     14608
     14616     14609     14621     14622     14618     14609     14623     14624
     14632     14625     14637     14638     14634     14625     14639     14640
     14648     14641     14653     14654     14650     14641     14655     14656
     14664     14657     14669     14670     14666     14657     14671     14672
     14680     14673     14685     14686     14682     14673     14687     14688
     14696     14689     14701     14702     14698     14689     14703     14704
     14712     14705     14717     14718     14714     14705     14719     14720
     14728     14721     14733     14734     14730     14721     14735     14736
     14744     14737     14749     14750     14746     14737     14751     14752
     14760     14753     14765     14766     14762     14753     14767     14768
     14776     14769     14781     14782     14778     14769     14783     14784
     14792     14785     14797     14798     14794     14785     14799     14800

         0 !NCRTERM: cross-terms

