PSF EXT CMAP CHEQ DRUDE XPLOR

         4 !NTITLE
*~~~~~~~~~~~~~~~~~~~~~~~~~~~~~~~~~~~~~~~~~~~~~~~~~~~~~~~~~~~~~~~~~~~~~~~        
*~ MINIMIZATION OF PACKMOL STRUCTURE                                            
*~~~~~~~~~~~~~~~~~~~~~~~~~~~~~~~~~~~~~~~~~~~~~~~~~~~~~~~~~~~~~~~~~~~~~~~        
*  DATE:     5/15/25     16:21:12      CREATED BY USER: marta                   

     19878 !NATOM
         1 IM1H     1        IM1H     C1       CD33F     2.48500       11.6110           0  -1.18100       1.10000    
         2 IM1H     1        IM1H     DC1      DRUD     -2.66700      0.400000           0   0.00000       0.00000    
         3 IM1H     1        IM1H     H1       HDA3A    0.135000       1.00800           0   0.00000       0.00000    
         4 IM1H     1        IM1H     H2       HDA3A    0.135000       1.00800           0   0.00000       0.00000    
         5 IM1H     1        IM1H     H3       HDA3A    0.135000       1.00800           0   0.00000       0.00000    
         6 IM1H     1        IM1H     N1       ND2R5C    2.35720       13.6070           0 -0.803000       1.00000    
         7 IM1H     1        IM1H     DN1      DRUD     -2.19920      0.400000           0   0.00000       0.00000    
         8 IM1H     1        IM1H     C2       CD2R5D    2.44700       11.6110           0  -1.08300       1.10000    
         9 IM1H     1        IM1H     DC2      DRUD     -2.55400      0.400000           0   0.00000       0.00000    
        10 IM1H     1        IM1H     H4       HDR5D    0.195000       1.00800           0   0.00000       0.00000    
        11 IM1H     1        IM1H     C3       CD2R5D    2.50700       11.6110           0  -1.08300       1.10000    
        12 IM1H     1        IM1H     DC3      DRUD     -2.55400      0.400000           0   0.00000       0.00000    
        13 IM1H     1        IM1H     H5       HDR5D    0.192000       1.00800           0   0.00000       0.00000    
        14 IM1H     1        IM1H     C4       CD2R5E    2.72410       11.6110           0  -1.25300       1.20000    
        15 IM1H     1        IM1H     DC4      DRUD     -2.74710      0.400000           0   0.00000       0.00000    
        16 IM1H     1        IM1H     H6       HDR5E    0.203000       1.00800           0   0.00000       0.00000    
        17 IM1H     1        IM1H     N2       ND2R5C    2.04220       13.6070           0 -0.803000       1.00000    
        18 IM1H     1        IM1H     DN2      DRUD     -2.19920      0.400000           0   0.00000       0.00000    
        19 IM1H     1        IM1H     H7       HDP1A    0.363000       1.00800           0   0.00000       0.00000    
        20 IM1H     1        IM1H     LPN21    LPD       0.00000       0.00000          -1   0.00000       0.00000    
        21 IM1H     2        IM1H     C1       CD33F     2.48500       11.6110           0  -1.18100       1.10000    
        22 IM1H     2        IM1H     DC1      DRUD     -2.66700      0.400000           0   0.00000       0.00000    
        23 IM1H     2        IM1H     H1       HDA3A    0.135000       1.00800           0   0.00000       0.00000    
        24 IM1H     2        IM1H     H2       HDA3A    0.135000       1.00800           0   0.00000       0.00000    
        25 IM1H     2        IM1H     H3       HDA3A    0.135000       1.00800           0   0.00000       0.00000    
        26 IM1H     2        IM1H     N1       ND2R5C    2.35720       13.6070           0 -0.803000       1.00000    
        27 IM1H     2        IM1H     DN1      DRUD     -2.19920      0.400000           0   0.00000       0.00000    
        28 IM1H     2        IM1H     C2       CD2R5D    2.44700       11.6110           0  -1.08300       1.10000    
        29 IM1H     2        IM1H     DC2      DRUD     -2.55400      0.400000           0   0.00000       0.00000    
        30 IM1H     2        IM1H     H4       HDR5D    0.195000       1.00800           0   0.00000       0.00000    
        31 IM1H     2        IM1H     C3       CD2R5D    2.50700       11.6110           0  -1.08300       1.10000    
        32 IM1H     2        IM1H     DC3      DRUD     -2.55400      0.400000           0   0.00000       0.00000    
        33 IM1H     2        IM1H     H5       HDR5D    0.192000       1.00800           0   0.00000       0.00000    
        34 IM1H     2        IM1H     C4       CD2R5E    2.72410       11.6110           0  -1.25300       1.20000    
        35 IM1H     2        IM1H     DC4      DRUD     -2.74710      0.400000           0   0.00000       0.00000    
        36 IM1H     2        IM1H     H6       HDR5E    0.203000       1.00800           0   0.00000       0.00000    
        37 IM1H     2        IM1H     N2       ND2R5C    2.04220       13.6070           0 -0.803000       1.00000    
        38 IM1H     2        IM1H     DN2      DRUD     -2.19920      0.400000           0   0.00000       0.00000    
        39 IM1H     2        IM1H     H7       HDP1A    0.363000       1.00800           0   0.00000       0.00000    
        40 IM1H     2        IM1H     LPN21    LPD       0.00000       0.00000          -1   0.00000       0.00000    
        41 IM1H     3        IM1H     C1       CD33F     2.48500       11.6110           0  -1.18100       1.10000    
        42 IM1H     3        IM1H     DC1      DRUD     -2.66700      0.400000           0   0.00000       0.00000    
        43 IM1H     3        IM1H     H1       HDA3A    0.135000       1.00800           0   0.00000       0.00000    
        44 IM1H     3        IM1H     H2       HDA3A    0.135000       1.00800           0   0.00000       0.00000    
        45 IM1H     3        IM1H     H3       HDA3A    0.135000       1.00800           0   0.00000       0.00000    
        46 IM1H     3        IM1H     N1       ND2R5C    2.35720       13.6070           0 -0.803000       1.00000    
        47 IM1H     3        IM1H     DN1      DRUD     -2.19920      0.400000           0   0.00000       0.00000    
        48 IM1H     3        IM1H     C2       CD2R5D    2.44700       11.6110           0  -1.08300       1.10000    
        49 IM1H     3        IM1H     DC2      DRUD     -2.55400      0.400000           0   0.00000       0.00000    
        50 IM1H     3        IM1H     H4       HDR5D    0.195000       1.00800           0   0.00000       0.00000    
        51 IM1H     3        IM1H     C3       CD2R5D    2.50700       11.6110           0  -1.08300       1.10000    
        52 IM1H     3        IM1H     DC3      DRUD     -2.55400      0.400000           0   0.00000       0.00000    
        53 IM1H     3        IM1H     H5       HDR5D    0.192000       1.00800           0   0.00000       0.00000    
        54 IM1H     3        IM1H     C4       CD2R5E    2.72410       11.6110           0  -1.25300       1.20000    
        55 IM1H     3        IM1H     DC4      DRUD     -2.74710      0.400000           0   0.00000       0.00000    
        56 IM1H     3        IM1H     H6       HDR5E    0.203000       1.00800           0   0.00000       0.00000    
        57 IM1H     3        IM1H     N2       ND2R5C    2.04220       13.6070           0 -0.803000       1.00000    
        58 IM1H     3        IM1H     DN2      DRUD     -2.19920      0.400000           0   0.00000       0.00000    
        59 IM1H     3        IM1H     H7       HDP1A    0.363000       1.00800           0   0.00000       0.00000    
        60 IM1H     3        IM1H     LPN21    LPD       0.00000       0.00000          -1   0.00000       0.00000    
        61 IM1H     4        IM1H     C1       CD33F     2.48500       11.6110           0  -1.18100       1.10000    
        62 IM1H     4        IM1H     DC1      DRUD     -2.66700      0.400000           0   0.00000       0.00000    
        63 IM1H     4        IM1H     H1       HDA3A    0.135000       1.00800           0   0.00000       0.00000    
        64 IM1H     4        IM1H     H2       HDA3A    0.135000       1.00800           0   0.00000       0.00000    
        65 IM1H     4        IM1H     H3       HDA3A    0.135000       1.00800           0   0.00000       0.00000    
        66 IM1H     4        IM1H     N1       ND2R5C    2.35720       13.6070           0 -0.803000       1.00000    
        67 IM1H     4        IM1H     DN1      DRUD     -2.19920      0.400000           0   0.00000       0.00000    
        68 IM1H     4        IM1H     C2       CD2R5D    2.44700       11.6110           0  -1.08300       1.10000    
        69 IM1H     4        IM1H     DC2      DRUD     -2.55400      0.400000           0   0.00000       0.00000    
        70 IM1H     4        IM1H     H4       HDR5D    0.195000       1.00800           0   0.00000       0.00000    
        71 IM1H     4        IM1H     C3       CD2R5D    2.50700       11.6110           0  -1.08300       1.10000    
        72 IM1H     4        IM1H     DC3      DRUD     -2.55400      0.400000           0   0.00000       0.00000    
        73 IM1H     4        IM1H     H5       HDR5D    0.192000       1.00800           0   0.00000       0.00000    
        74 IM1H     4        IM1H     C4       CD2R5E    2.72410       11.6110           0  -1.25300       1.20000    
        75 IM1H     4        IM1H     DC4      DRUD     -2.74710      0.400000           0   0.00000       0.00000    
        76 IM1H     4        IM1H     H6       HDR5E    0.203000       1.00800           0   0.00000       0.00000    
        77 IM1H     4        IM1H     N2       ND2R5C    2.04220       13.6070           0 -0.803000       1.00000    
        78 IM1H     4        IM1H     DN2      DRUD     -2.19920      0.400000           0   0.00000       0.00000    
        79 IM1H     4        IM1H     H7       HDP1A    0.363000       1.00800           0   0.00000       0.00000    
        80 IM1H     4        IM1H     LPN21    LPD       0.00000       0.00000          -1   0.00000       0.00000    
        81 IM1H     5        IM1H     C1       CD33F     2.48500       11.6110           0  -1.18100       1.10000    
        82 IM1H     5        IM1H     DC1      DRUD     -2.66700      0.400000           0   0.00000       0.00000    
        83 IM1H     5        IM1H     H1       HDA3A    0.135000       1.00800           0   0.00000       0.00000    
        84 IM1H     5        IM1H     H2       HDA3A    0.135000       1.00800           0   0.00000       0.00000    
        85 IM1H     5        IM1H     H3       HDA3A    0.135000       1.00800           0   0.00000       0.00000    
        86 IM1H     5        IM1H     N1       ND2R5C    2.35720       13.6070           0 -0.803000       1.00000    
        87 IM1H     5        IM1H     DN1      DRUD     -2.19920      0.400000           0   0.00000       0.00000    
        88 IM1H     5        IM1H     C2       CD2R5D    2.44700       11.6110           0  -1.08300       1.10000    
        89 IM1H     5        IM1H     DC2      DRUD     -2.55400      0.400000           0   0.00000       0.00000    
        90 IM1H     5        IM1H     H4       HDR5D    0.195000       1.00800           0   0.00000       0.00000    
        91 IM1H     5        IM1H     C3       CD2R5D    2.50700       11.6110           0  -1.08300       1.10000    
        92 IM1H     5        IM1H     DC3      DRUD     -2.55400      0.400000           0   0.00000       0.00000    
        93 IM1H     5        IM1H     H5       HDR5D    0.192000       1.00800           0   0.00000       0.00000    
        94 IM1H     5        IM1H     C4       CD2R5E    2.72410       11.6110           0  -1.25300       1.20000    
        95 IM1H     5        IM1H     DC4      DRUD     -2.74710      0.400000           0   0.00000       0.00000    
        96 IM1H     5        IM1H     H6       HDR5E    0.203000       1.00800           0   0.00000       0.00000    
        97 IM1H     5        IM1H     N2       ND2R5C    2.04220       13.6070           0 -0.803000       1.00000    
        98 IM1H     5        IM1H     DN2      DRUD     -2.19920      0.400000           0   0.00000       0.00000    
        99 IM1H     5        IM1H     H7       HDP1A    0.363000       1.00800           0   0.00000       0.00000    
       100 IM1H     5        IM1H     LPN21    LPD       0.00000       0.00000          -1   0.00000       0.00000    
       101 IM1H     6        IM1H     C1       CD33F     2.48500       11.6110           0  -1.18100       1.10000    
       102 IM1H     6        IM1H     DC1      DRUD     -2.66700      0.400000           0   0.00000       0.00000    
       103 IM1H     6        IM1H     H1       HDA3A    0.135000       1.00800           0   0.00000       0.00000    
       104 IM1H     6        IM1H     H2       HDA3A    0.135000       1.00800           0   0.00000       0.00000    
       105 IM1H     6        IM1H     H3       HDA3A    0.135000       1.00800           0   0.00000       0.00000    
       106 IM1H     6        IM1H     N1       ND2R5C    2.35720       13.6070           0 -0.803000       1.00000    
       107 IM1H     6        IM1H     DN1      DRUD     -2.19920      0.400000           0   0.00000       0.00000    
       108 IM1H     6        IM1H     C2       CD2R5D    2.44700       11.6110           0  -1.08300       1.10000    
       109 IM1H     6        IM1H     DC2      DRUD     -2.55400      0.400000           0   0.00000       0.00000    
       110 IM1H     6        IM1H     H4       HDR5D    0.195000       1.00800           0   0.00000       0.00000    
       111 IM1H     6        IM1H     C3       CD2R5D    2.50700       11.6110           0  -1.08300       1.10000    
       112 IM1H     6        IM1H     DC3      DRUD     -2.55400      0.400000           0   0.00000       0.00000    
       113 IM1H     6        IM1H     H5       HDR5D    0.192000       1.00800           0   0.00000       0.00000    
       114 IM1H     6        IM1H     C4       CD2R5E    2.72410       11.6110           0  -1.25300       1.20000    
       115 IM1H     6        IM1H     DC4      DRUD     -2.74710      0.400000           0   0.00000       0.00000    
       116 IM1H     6        IM1H     H6       HDR5E    0.203000       1.00800           0   0.00000       0.00000    
       117 IM1H     6        IM1H     N2       ND2R5C    2.04220       13.6070           0 -0.803000       1.00000    
       118 IM1H     6        IM1H     DN2      DRUD     -2.19920      0.400000           0   0.00000       0.00000    
       119 IM1H     6        IM1H     H7       HDP1A    0.363000       1.00800           0   0.00000       0.00000    
       120 IM1H     6        IM1H     LPN21    LPD       0.00000       0.00000          -1   0.00000       0.00000    
       121 IM1H     7        IM1H     C1       CD33F     2.48500       11.6110           0  -1.18100       1.10000    
       122 IM1H     7        IM1H     DC1      DRUD     -2.66700      0.400000           0   0.00000       0.00000    
       123 IM1H     7        IM1H     H1       HDA3A    0.135000       1.00800           0   0.00000       0.00000    
       124 IM1H     7        IM1H     H2       HDA3A    0.135000       1.00800           0   0.00000       0.00000    
       125 IM1H     7        IM1H     H3       HDA3A    0.135000       1.00800           0   0.00000       0.00000    
       126 IM1H     7        IM1H     N1       ND2R5C    2.35720       13.6070           0 -0.803000       1.00000    
       127 IM1H     7        IM1H     DN1      DRUD     -2.19920      0.400000           0   0.00000       0.00000    
       128 IM1H     7        IM1H     C2       CD2R5D    2.44700       11.6110           0  -1.08300       1.10000    
       129 IM1H     7        IM1H     DC2      DRUD     -2.55400      0.400000           0   0.00000       0.00000    
       130 IM1H     7        IM1H     H4       HDR5D    0.195000       1.00800           0   0.00000       0.00000    
       131 IM1H     7        IM1H     C3       CD2R5D    2.50700       11.6110           0  -1.08300       1.10000    
       132 IM1H     7        IM1H     DC3      DRUD     -2.55400      0.400000           0   0.00000       0.00000    
       133 IM1H     7        IM1H     H5       HDR5D    0.192000       1.00800           0   0.00000       0.00000    
       134 IM1H     7        IM1H     C4       CD2R5E    2.72410       11.6110           0  -1.25300       1.20000    
       135 IM1H     7        IM1H     DC4      DRUD     -2.74710      0.400000           0   0.00000       0.00000    
       136 IM1H     7        IM1H     H6       HDR5E    0.203000       1.00800           0   0.00000       0.00000    
       137 IM1H     7        IM1H     N2       ND2R5C    2.04220       13.6070           0 -0.803000       1.00000    
       138 IM1H     7        IM1H     DN2      DRUD     -2.19920      0.400000           0   0.00000       0.00000    
       139 IM1H     7        IM1H     H7       HDP1A    0.363000       1.00800           0   0.00000       0.00000    
       140 IM1H     7        IM1H     LPN21    LPD       0.00000       0.00000          -1   0.00000       0.00000    
       141 IM1H     8        IM1H     C1       CD33F     2.48500       11.6110           0  -1.18100       1.10000    
       142 IM1H     8        IM1H     DC1      DRUD     -2.66700      0.400000           0   0.00000       0.00000    
       143 IM1H     8        IM1H     H1       HDA3A    0.135000       1.00800           0   0.00000       0.00000    
       144 IM1H     8        IM1H     H2       HDA3A    0.135000       1.00800           0   0.00000       0.00000    
       145 IM1H     8        IM1H     H3       HDA3A    0.135000       1.00800           0   0.00000       0.00000    
       146 IM1H     8        IM1H     N1       ND2R5C    2.35720       13.6070           0 -0.803000       1.00000    
       147 IM1H     8        IM1H     DN1      DRUD     -2.19920      0.400000           0   0.00000       0.00000    
       148 IM1H     8        IM1H     C2       CD2R5D    2.44700       11.6110           0  -1.08300       1.10000    
       149 IM1H     8        IM1H     DC2      DRUD     -2.55400      0.400000           0   0.00000       0.00000    
       150 IM1H     8        IM1H     H4       HDR5D    0.195000       1.00800           0   0.00000       0.00000    
       151 IM1H     8        IM1H     C3       CD2R5D    2.50700       11.6110           0  -1.08300       1.10000    
       152 IM1H     8        IM1H     DC3      DRUD     -2.55400      0.400000           0   0.00000       0.00000    
       153 IM1H     8        IM1H     H5       HDR5D    0.192000       1.00800           0   0.00000       0.00000    
       154 IM1H     8        IM1H     C4       CD2R5E    2.72410       11.6110           0  -1.25300       1.20000    
       155 IM1H     8        IM1H     DC4      DRUD     -2.74710      0.400000           0   0.00000       0.00000    
       156 IM1H     8        IM1H     H6       HDR5E    0.203000       1.00800           0   0.00000       0.00000    
       157 IM1H     8        IM1H     N2       ND2R5C    2.04220       13.6070           0 -0.803000       1.00000    
       158 IM1H     8        IM1H     DN2      DRUD     -2.19920      0.400000           0   0.00000       0.00000    
       159 IM1H     8        IM1H     H7       HDP1A    0.363000       1.00800           0   0.00000       0.00000    
       160 IM1H     8        IM1H     LPN21    LPD       0.00000       0.00000          -1   0.00000       0.00000    
       161 IM1H     9        IM1H     C1       CD33F     2.48500       11.6110           0  -1.18100       1.10000    
       162 IM1H     9        IM1H     DC1      DRUD     -2.66700      0.400000           0   0.00000       0.00000    
       163 IM1H     9        IM1H     H1       HDA3A    0.135000       1.00800           0   0.00000       0.00000    
       164 IM1H     9        IM1H     H2       HDA3A    0.135000       1.00800           0   0.00000       0.00000    
       165 IM1H     9        IM1H     H3       HDA3A    0.135000       1.00800           0   0.00000       0.00000    
       166 IM1H     9        IM1H     N1       ND2R5C    2.35720       13.6070           0 -0.803000       1.00000    
       167 IM1H     9        IM1H     DN1      DRUD     -2.19920      0.400000           0   0.00000       0.00000    
       168 IM1H     9        IM1H     C2       CD2R5D    2.44700       11.6110           0  -1.08300       1.10000    
       169 IM1H     9        IM1H     DC2      DRUD     -2.55400      0.400000           0   0.00000       0.00000    
       170 IM1H     9        IM1H     H4       HDR5D    0.195000       1.00800           0   0.00000       0.00000    
       171 IM1H     9        IM1H     C3       CD2R5D    2.50700       11.6110           0  -1.08300       1.10000    
       172 IM1H     9        IM1H     DC3      DRUD     -2.55400      0.400000           0   0.00000       0.00000    
       173 IM1H     9        IM1H     H5       HDR5D    0.192000       1.00800           0   0.00000       0.00000    
       174 IM1H     9        IM1H     C4       CD2R5E    2.72410       11.6110           0  -1.25300       1.20000    
       175 IM1H     9        IM1H     DC4      DRUD     -2.74710      0.400000           0   0.00000       0.00000    
       176 IM1H     9        IM1H     H6       HDR5E    0.203000       1.00800           0   0.00000       0.00000    
       177 IM1H     9        IM1H     N2       ND2R5C    2.04220       13.6070           0 -0.803000       1.00000    
       178 IM1H     9        IM1H     DN2      DRUD     -2.19920      0.400000           0   0.00000       0.00000    
       179 IM1H     9        IM1H     H7       HDP1A    0.363000       1.00800           0   0.00000       0.00000    
       180 IM1H     9        IM1H     LPN21    LPD       0.00000       0.00000          -1   0.00000       0.00000    
       181 IM1H     10       IM1H     C1       CD33F     2.48500       11.6110           0  -1.18100       1.10000    
       182 IM1H     10       IM1H     DC1      DRUD     -2.66700      0.400000           0   0.00000       0.00000    
       183 IM1H     10       IM1H     H1       HDA3A    0.135000       1.00800           0   0.00000       0.00000    
       184 IM1H     10       IM1H     H2       HDA3A    0.135000       1.00800           0   0.00000       0.00000    
       185 IM1H     10       IM1H     H3       HDA3A    0.135000       1.00800           0   0.00000       0.00000    
       186 IM1H     10       IM1H     N1       ND2R5C    2.35720       13.6070           0 -0.803000       1.00000    
       187 IM1H     10       IM1H     DN1      DRUD     -2.19920      0.400000           0   0.00000       0.00000    
       188 IM1H     10       IM1H     C2       CD2R5D    2.44700       11.6110           0  -1.08300       1.10000    
       189 IM1H     10       IM1H     DC2      DRUD     -2.55400      0.400000           0   0.00000       0.00000    
       190 IM1H     10       IM1H     H4       HDR5D    0.195000       1.00800           0   0.00000       0.00000    
       191 IM1H     10       IM1H     C3       CD2R5D    2.50700       11.6110           0  -1.08300       1.10000    
       192 IM1H     10       IM1H     DC3      DRUD     -2.55400      0.400000           0   0.00000       0.00000    
       193 IM1H     10       IM1H     H5       HDR5D    0.192000       1.00800           0   0.00000       0.00000    
       194 IM1H     10       IM1H     C4       CD2R5E    2.72410       11.6110           0  -1.25300       1.20000    
       195 IM1H     10       IM1H     DC4      DRUD     -2.74710      0.400000           0   0.00000       0.00000    
       196 IM1H     10       IM1H     H6       HDR5E    0.203000       1.00800           0   0.00000       0.00000    
       197 IM1H     10       IM1H     N2       ND2R5C    2.04220       13.6070           0 -0.803000       1.00000    
       198 IM1H     10       IM1H     DN2      DRUD     -2.19920      0.400000           0   0.00000       0.00000    
       199 IM1H     10       IM1H     H7       HDP1A    0.363000       1.00800           0   0.00000       0.00000    
       200 IM1H     10       IM1H     LPN21    LPD       0.00000       0.00000          -1   0.00000       0.00000    
       201 IM1H     11       IM1H     C1       CD33F     2.48500       11.6110           0  -1.18100       1.10000    
       202 IM1H     11       IM1H     DC1      DRUD     -2.66700      0.400000           0   0.00000       0.00000    
       203 IM1H     11       IM1H     H1       HDA3A    0.135000       1.00800           0   0.00000       0.00000    
       204 IM1H     11       IM1H     H2       HDA3A    0.135000       1.00800           0   0.00000       0.00000    
       205 IM1H     11       IM1H     H3       HDA3A    0.135000       1.00800           0   0.00000       0.00000    
       206 IM1H     11       IM1H     N1       ND2R5C    2.35720       13.6070           0 -0.803000       1.00000    
       207 IM1H     11       IM1H     DN1      DRUD     -2.19920      0.400000           0   0.00000       0.00000    
       208 IM1H     11       IM1H     C2       CD2R5D    2.44700       11.6110           0  -1.08300       1.10000    
       209 IM1H     11       IM1H     DC2      DRUD     -2.55400      0.400000           0   0.00000       0.00000    
       210 IM1H     11       IM1H     H4       HDR5D    0.195000       1.00800           0   0.00000       0.00000    
       211 IM1H     11       IM1H     C3       CD2R5D    2.50700       11.6110           0  -1.08300       1.10000    
       212 IM1H     11       IM1H     DC3      DRUD     -2.55400      0.400000           0   0.00000       0.00000    
       213 IM1H     11       IM1H     H5       HDR5D    0.192000       1.00800           0   0.00000       0.00000    
       214 IM1H     11       IM1H     C4       CD2R5E    2.72410       11.6110           0  -1.25300       1.20000    
       215 IM1H     11       IM1H     DC4      DRUD     -2.74710      0.400000           0   0.00000       0.00000    
       216 IM1H     11       IM1H     H6       HDR5E    0.203000       1.00800           0   0.00000       0.00000    
       217 IM1H     11       IM1H     N2       ND2R5C    2.04220       13.6070           0 -0.803000       1.00000    
       218 IM1H     11       IM1H     DN2      DRUD     -2.19920      0.400000           0   0.00000       0.00000    
       219 IM1H     11       IM1H     H7       HDP1A    0.363000       1.00800           0   0.00000       0.00000    
       220 IM1H     11       IM1H     LPN21    LPD       0.00000       0.00000          -1   0.00000       0.00000    
       221 IM1H     12       IM1H     C1       CD33F     2.48500       11.6110           0  -1.18100       1.10000    
       222 IM1H     12       IM1H     DC1      DRUD     -2.66700      0.400000           0   0.00000       0.00000    
       223 IM1H     12       IM1H     H1       HDA3A    0.135000       1.00800           0   0.00000       0.00000    
       224 IM1H     12       IM1H     H2       HDA3A    0.135000       1.00800           0   0.00000       0.00000    
       225 IM1H     12       IM1H     H3       HDA3A    0.135000       1.00800           0   0.00000       0.00000    
       226 IM1H     12       IM1H     N1       ND2R5C    2.35720       13.6070           0 -0.803000       1.00000    
       227 IM1H     12       IM1H     DN1      DRUD     -2.19920      0.400000           0   0.00000       0.00000    
       228 IM1H     12       IM1H     C2       CD2R5D    2.44700       11.6110           0  -1.08300       1.10000    
       229 IM1H     12       IM1H     DC2      DRUD     -2.55400      0.400000           0   0.00000       0.00000    
       230 IM1H     12       IM1H     H4       HDR5D    0.195000       1.00800           0   0.00000       0.00000    
       231 IM1H     12       IM1H     C3       CD2R5D    2.50700       11.6110           0  -1.08300       1.10000    
       232 IM1H     12       IM1H     DC3      DRUD     -2.55400      0.400000           0   0.00000       0.00000    
       233 IM1H     12       IM1H     H5       HDR5D    0.192000       1.00800           0   0.00000       0.00000    
       234 IM1H     12       IM1H     C4       CD2R5E    2.72410       11.6110           0  -1.25300       1.20000    
       235 IM1H     12       IM1H     DC4      DRUD     -2.74710      0.400000           0   0.00000       0.00000    
       236 IM1H     12       IM1H     H6       HDR5E    0.203000       1.00800           0   0.00000       0.00000    
       237 IM1H     12       IM1H     N2       ND2R5C    2.04220       13.6070           0 -0.803000       1.00000    
       238 IM1H     12       IM1H     DN2      DRUD     -2.19920      0.400000           0   0.00000       0.00000    
       239 IM1H     12       IM1H     H7       HDP1A    0.363000       1.00800           0   0.00000       0.00000    
       240 IM1H     12       IM1H     LPN21    LPD       0.00000       0.00000          -1   0.00000       0.00000    
       241 IM1H     13       IM1H     C1       CD33F     2.48500       11.6110           0  -1.18100       1.10000    
       242 IM1H     13       IM1H     DC1      DRUD     -2.66700      0.400000           0   0.00000       0.00000    
       243 IM1H     13       IM1H     H1       HDA3A    0.135000       1.00800           0   0.00000       0.00000    
       244 IM1H     13       IM1H     H2       HDA3A    0.135000       1.00800           0   0.00000       0.00000    
       245 IM1H     13       IM1H     H3       HDA3A    0.135000       1.00800           0   0.00000       0.00000    
       246 IM1H     13       IM1H     N1       ND2R5C    2.35720       13.6070           0 -0.803000       1.00000    
       247 IM1H     13       IM1H     DN1      DRUD     -2.19920      0.400000           0   0.00000       0.00000    
       248 IM1H     13       IM1H     C2       CD2R5D    2.44700       11.6110           0  -1.08300       1.10000    
       249 IM1H     13       IM1H     DC2      DRUD     -2.55400      0.400000           0   0.00000       0.00000    
       250 IM1H     13       IM1H     H4       HDR5D    0.195000       1.00800           0   0.00000       0.00000    
       251 IM1H     13       IM1H     C3       CD2R5D    2.50700       11.6110           0  -1.08300       1.10000    
       252 IM1H     13       IM1H     DC3      DRUD     -2.55400      0.400000           0   0.00000       0.00000    
       253 IM1H     13       IM1H     H5       HDR5D    0.192000       1.00800           0   0.00000       0.00000    
       254 IM1H     13       IM1H     C4       CD2R5E    2.72410       11.6110           0  -1.25300       1.20000    
       255 IM1H     13       IM1H     DC4      DRUD     -2.74710      0.400000           0   0.00000       0.00000    
       256 IM1H     13       IM1H     H6       HDR5E    0.203000       1.00800           0   0.00000       0.00000    
       257 IM1H     13       IM1H     N2       ND2R5C    2.04220       13.6070           0 -0.803000       1.00000    
       258 IM1H     13       IM1H     DN2      DRUD     -2.19920      0.400000           0   0.00000       0.00000    
       259 IM1H     13       IM1H     H7       HDP1A    0.363000       1.00800           0   0.00000       0.00000    
       260 IM1H     13       IM1H     LPN21    LPD       0.00000       0.00000          -1   0.00000       0.00000    
       261 IM1H     14       IM1H     C1       CD33F     2.48500       11.6110           0  -1.18100       1.10000    
       262 IM1H     14       IM1H     DC1      DRUD     -2.66700      0.400000           0   0.00000       0.00000    
       263 IM1H     14       IM1H     H1       HDA3A    0.135000       1.00800           0   0.00000       0.00000    
       264 IM1H     14       IM1H     H2       HDA3A    0.135000       1.00800           0   0.00000       0.00000    
       265 IM1H     14       IM1H     H3       HDA3A    0.135000       1.00800           0   0.00000       0.00000    
       266 IM1H     14       IM1H     N1       ND2R5C    2.35720       13.6070           0 -0.803000       1.00000    
       267 IM1H     14       IM1H     DN1      DRUD     -2.19920      0.400000           0   0.00000       0.00000    
       268 IM1H     14       IM1H     C2       CD2R5D    2.44700       11.6110           0  -1.08300       1.10000    
       269 IM1H     14       IM1H     DC2      DRUD     -2.55400      0.400000           0   0.00000       0.00000    
       270 IM1H     14       IM1H     H4       HDR5D    0.195000       1.00800           0   0.00000       0.00000    
       271 IM1H     14       IM1H     C3       CD2R5D    2.50700       11.6110           0  -1.08300       1.10000    
       272 IM1H     14       IM1H     DC3      DRUD     -2.55400      0.400000           0   0.00000       0.00000    
       273 IM1H     14       IM1H     H5       HDR5D    0.192000       1.00800           0   0.00000       0.00000    
       274 IM1H     14       IM1H     C4       CD2R5E    2.72410       11.6110           0  -1.25300       1.20000    
       275 IM1H     14       IM1H     DC4      DRUD     -2.74710      0.400000           0   0.00000       0.00000    
       276 IM1H     14       IM1H     H6       HDR5E    0.203000       1.00800           0   0.00000       0.00000    
       277 IM1H     14       IM1H     N2       ND2R5C    2.04220       13.6070           0 -0.803000       1.00000    
       278 IM1H     14       IM1H     DN2      DRUD     -2.19920      0.400000           0   0.00000       0.00000    
       279 IM1H     14       IM1H     H7       HDP1A    0.363000       1.00800           0   0.00000       0.00000    
       280 IM1H     14       IM1H     LPN21    LPD       0.00000       0.00000          -1   0.00000       0.00000    
       281 IM1H     15       IM1H     C1       CD33F     2.48500       11.6110           0  -1.18100       1.10000    
       282 IM1H     15       IM1H     DC1      DRUD     -2.66700      0.400000           0   0.00000       0.00000    
       283 IM1H     15       IM1H     H1       HDA3A    0.135000       1.00800           0   0.00000       0.00000    
       284 IM1H     15       IM1H     H2       HDA3A    0.135000       1.00800           0   0.00000       0.00000    
       285 IM1H     15       IM1H     H3       HDA3A    0.135000       1.00800           0   0.00000       0.00000    
       286 IM1H     15       IM1H     N1       ND2R5C    2.35720       13.6070           0 -0.803000       1.00000    
       287 IM1H     15       IM1H     DN1      DRUD     -2.19920      0.400000           0   0.00000       0.00000    
       288 IM1H     15       IM1H     C2       CD2R5D    2.44700       11.6110           0  -1.08300       1.10000    
       289 IM1H     15       IM1H     DC2      DRUD     -2.55400      0.400000           0   0.00000       0.00000    
       290 IM1H     15       IM1H     H4       HDR5D    0.195000       1.00800           0   0.00000       0.00000    
       291 IM1H     15       IM1H     C3       CD2R5D    2.50700       11.6110           0  -1.08300       1.10000    
       292 IM1H     15       IM1H     DC3      DRUD     -2.55400      0.400000           0   0.00000       0.00000    
       293 IM1H     15       IM1H     H5       HDR5D    0.192000       1.00800           0   0.00000       0.00000    
       294 IM1H     15       IM1H     C4       CD2R5E    2.72410       11.6110           0  -1.25300       1.20000    
       295 IM1H     15       IM1H     DC4      DRUD     -2.74710      0.400000           0   0.00000       0.00000    
       296 IM1H     15       IM1H     H6       HDR5E    0.203000       1.00800           0   0.00000       0.00000    
       297 IM1H     15       IM1H     N2       ND2R5C    2.04220       13.6070           0 -0.803000       1.00000    
       298 IM1H     15       IM1H     DN2      DRUD     -2.19920      0.400000           0   0.00000       0.00000    
       299 IM1H     15       IM1H     H7       HDP1A    0.363000       1.00800           0   0.00000       0.00000    
       300 IM1H     15       IM1H     LPN21    LPD       0.00000       0.00000          -1   0.00000       0.00000    
       301 IM1H     16       IM1H     C1       CD33F     2.48500       11.6110           0  -1.18100       1.10000    
       302 IM1H     16       IM1H     DC1      DRUD     -2.66700      0.400000           0   0.00000       0.00000    
       303 IM1H     16       IM1H     H1       HDA3A    0.135000       1.00800           0   0.00000       0.00000    
       304 IM1H     16       IM1H     H2       HDA3A    0.135000       1.00800           0   0.00000       0.00000    
       305 IM1H     16       IM1H     H3       HDA3A    0.135000       1.00800           0   0.00000       0.00000    
       306 IM1H     16       IM1H     N1       ND2R5C    2.35720       13.6070           0 -0.803000       1.00000    
       307 IM1H     16       IM1H     DN1      DRUD     -2.19920      0.400000           0   0.00000       0.00000    
       308 IM1H     16       IM1H     C2       CD2R5D    2.44700       11.6110           0  -1.08300       1.10000    
       309 IM1H     16       IM1H     DC2      DRUD     -2.55400      0.400000           0   0.00000       0.00000    
       310 IM1H     16       IM1H     H4       HDR5D    0.195000       1.00800           0   0.00000       0.00000    
       311 IM1H     16       IM1H     C3       CD2R5D    2.50700       11.6110           0  -1.08300       1.10000    
       312 IM1H     16       IM1H     DC3      DRUD     -2.55400      0.400000           0   0.00000       0.00000    
       313 IM1H     16       IM1H     H5       HDR5D    0.192000       1.00800           0   0.00000       0.00000    
       314 IM1H     16       IM1H     C4       CD2R5E    2.72410       11.6110           0  -1.25300       1.20000    
       315 IM1H     16       IM1H     DC4      DRUD     -2.74710      0.400000           0   0.00000       0.00000    
       316 IM1H     16       IM1H     H6       HDR5E    0.203000       1.00800           0   0.00000       0.00000    
       317 IM1H     16       IM1H     N2       ND2R5C    2.04220       13.6070           0 -0.803000       1.00000    
       318 IM1H     16       IM1H     DN2      DRUD     -2.19920      0.400000           0   0.00000       0.00000    
       319 IM1H     16       IM1H     H7       HDP1A    0.363000       1.00800           0   0.00000       0.00000    
       320 IM1H     16       IM1H     LPN21    LPD       0.00000       0.00000          -1   0.00000       0.00000    
       321 IM1H     17       IM1H     C1       CD33F     2.48500       11.6110           0  -1.18100       1.10000    
       322 IM1H     17       IM1H     DC1      DRUD     -2.66700      0.400000           0   0.00000       0.00000    
       323 IM1H     17       IM1H     H1       HDA3A    0.135000       1.00800           0   0.00000       0.00000    
       324 IM1H     17       IM1H     H2       HDA3A    0.135000       1.00800           0   0.00000       0.00000    
       325 IM1H     17       IM1H     H3       HDA3A    0.135000       1.00800           0   0.00000       0.00000    
       326 IM1H     17       IM1H     N1       ND2R5C    2.35720       13.6070           0 -0.803000       1.00000    
       327 IM1H     17       IM1H     DN1      DRUD     -2.19920      0.400000           0   0.00000       0.00000    
       328 IM1H     17       IM1H     C2       CD2R5D    2.44700       11.6110           0  -1.08300       1.10000    
       329 IM1H     17       IM1H     DC2      DRUD     -2.55400      0.400000           0   0.00000       0.00000    
       330 IM1H     17       IM1H     H4       HDR5D    0.195000       1.00800           0   0.00000       0.00000    
       331 IM1H     17       IM1H     C3       CD2R5D    2.50700       11.6110           0  -1.08300       1.10000    
       332 IM1H     17       IM1H     DC3      DRUD     -2.55400      0.400000           0   0.00000       0.00000    
       333 IM1H     17       IM1H     H5       HDR5D    0.192000       1.00800           0   0.00000       0.00000    
       334 IM1H     17       IM1H     C4       CD2R5E    2.72410       11.6110           0  -1.25300       1.20000    
       335 IM1H     17       IM1H     DC4      DRUD     -2.74710      0.400000           0   0.00000       0.00000    
       336 IM1H     17       IM1H     H6       HDR5E    0.203000       1.00800           0   0.00000       0.00000    
       337 IM1H     17       IM1H     N2       ND2R5C    2.04220       13.6070           0 -0.803000       1.00000    
       338 IM1H     17       IM1H     DN2      DRUD     -2.19920      0.400000           0   0.00000       0.00000    
       339 IM1H     17       IM1H     H7       HDP1A    0.363000       1.00800           0   0.00000       0.00000    
       340 IM1H     17       IM1H     LPN21    LPD       0.00000       0.00000          -1   0.00000       0.00000    
       341 IM1H     18       IM1H     C1       CD33F     2.48500       11.6110           0  -1.18100       1.10000    
       342 IM1H     18       IM1H     DC1      DRUD     -2.66700      0.400000           0   0.00000       0.00000    
       343 IM1H     18       IM1H     H1       HDA3A    0.135000       1.00800           0   0.00000       0.00000    
       344 IM1H     18       IM1H     H2       HDA3A    0.135000       1.00800           0   0.00000       0.00000    
       345 IM1H     18       IM1H     H3       HDA3A    0.135000       1.00800           0   0.00000       0.00000    
       346 IM1H     18       IM1H     N1       ND2R5C    2.35720       13.6070           0 -0.803000       1.00000    
       347 IM1H     18       IM1H     DN1      DRUD     -2.19920      0.400000           0   0.00000       0.00000    
       348 IM1H     18       IM1H     C2       CD2R5D    2.44700       11.6110           0  -1.08300       1.10000    
       349 IM1H     18       IM1H     DC2      DRUD     -2.55400      0.400000           0   0.00000       0.00000    
       350 IM1H     18       IM1H     H4       HDR5D    0.195000       1.00800           0   0.00000       0.00000    
       351 IM1H     18       IM1H     C3       CD2R5D    2.50700       11.6110           0  -1.08300       1.10000    
       352 IM1H     18       IM1H     DC3      DRUD     -2.55400      0.400000           0   0.00000       0.00000    
       353 IM1H     18       IM1H     H5       HDR5D    0.192000       1.00800           0   0.00000       0.00000    
       354 IM1H     18       IM1H     C4       CD2R5E    2.72410       11.6110           0  -1.25300       1.20000    
       355 IM1H     18       IM1H     DC4      DRUD     -2.74710      0.400000           0   0.00000       0.00000    
       356 IM1H     18       IM1H     H6       HDR5E    0.203000       1.00800           0   0.00000       0.00000    
       357 IM1H     18       IM1H     N2       ND2R5C    2.04220       13.6070           0 -0.803000       1.00000    
       358 IM1H     18       IM1H     DN2      DRUD     -2.19920      0.400000           0   0.00000       0.00000    
       359 IM1H     18       IM1H     H7       HDP1A    0.363000       1.00800           0   0.00000       0.00000    
       360 IM1H     18       IM1H     LPN21    LPD       0.00000       0.00000          -1   0.00000       0.00000    
       361 IM1H     19       IM1H     C1       CD33F     2.48500       11.6110           0  -1.18100       1.10000    
       362 IM1H     19       IM1H     DC1      DRUD     -2.66700      0.400000           0   0.00000       0.00000    
       363 IM1H     19       IM1H     H1       HDA3A    0.135000       1.00800           0   0.00000       0.00000    
       364 IM1H     19       IM1H     H2       HDA3A    0.135000       1.00800           0   0.00000       0.00000    
       365 IM1H     19       IM1H     H3       HDA3A    0.135000       1.00800           0   0.00000       0.00000    
       366 IM1H     19       IM1H     N1       ND2R5C    2.35720       13.6070           0 -0.803000       1.00000    
       367 IM1H     19       IM1H     DN1      DRUD     -2.19920      0.400000           0   0.00000       0.00000    
       368 IM1H     19       IM1H     C2       CD2R5D    2.44700       11.6110           0  -1.08300       1.10000    
       369 IM1H     19       IM1H     DC2      DRUD     -2.55400      0.400000           0   0.00000       0.00000    
       370 IM1H     19       IM1H     H4       HDR5D    0.195000       1.00800           0   0.00000       0.00000    
       371 IM1H     19       IM1H     C3       CD2R5D    2.50700       11.6110           0  -1.08300       1.10000    
       372 IM1H     19       IM1H     DC3      DRUD     -2.55400      0.400000           0   0.00000       0.00000    
       373 IM1H     19       IM1H     H5       HDR5D    0.192000       1.00800           0   0.00000       0.00000    
       374 IM1H     19       IM1H     C4       CD2R5E    2.72410       11.6110           0  -1.25300       1.20000    
       375 IM1H     19       IM1H     DC4      DRUD     -2.74710      0.400000           0   0.00000       0.00000    
       376 IM1H     19       IM1H     H6       HDR5E    0.203000       1.00800           0   0.00000       0.00000    
       377 IM1H     19       IM1H     N2       ND2R5C    2.04220       13.6070           0 -0.803000       1.00000    
       378 IM1H     19       IM1H     DN2      DRUD     -2.19920      0.400000           0   0.00000       0.00000    
       379 IM1H     19       IM1H     H7       HDP1A    0.363000       1.00800           0   0.00000       0.00000    
       380 IM1H     19       IM1H     LPN21    LPD       0.00000       0.00000          -1   0.00000       0.00000    
       381 IM1H     20       IM1H     C1       CD33F     2.48500       11.6110           0  -1.18100       1.10000    
       382 IM1H     20       IM1H     DC1      DRUD     -2.66700      0.400000           0   0.00000       0.00000    
       383 IM1H     20       IM1H     H1       HDA3A    0.135000       1.00800           0   0.00000       0.00000    
       384 IM1H     20       IM1H     H2       HDA3A    0.135000       1.00800           0   0.00000       0.00000    
       385 IM1H     20       IM1H     H3       HDA3A    0.135000       1.00800           0   0.00000       0.00000    
       386 IM1H     20       IM1H     N1       ND2R5C    2.35720       13.6070           0 -0.803000       1.00000    
       387 IM1H     20       IM1H     DN1      DRUD     -2.19920      0.400000           0   0.00000       0.00000    
       388 IM1H     20       IM1H     C2       CD2R5D    2.44700       11.6110           0  -1.08300       1.10000    
       389 IM1H     20       IM1H     DC2      DRUD     -2.55400      0.400000           0   0.00000       0.00000    
       390 IM1H     20       IM1H     H4       HDR5D    0.195000       1.00800           0   0.00000       0.00000    
       391 IM1H     20       IM1H     C3       CD2R5D    2.50700       11.6110           0  -1.08300       1.10000    
       392 IM1H     20       IM1H     DC3      DRUD     -2.55400      0.400000           0   0.00000       0.00000    
       393 IM1H     20       IM1H     H5       HDR5D    0.192000       1.00800           0   0.00000       0.00000    
       394 IM1H     20       IM1H     C4       CD2R5E    2.72410       11.6110           0  -1.25300       1.20000    
       395 IM1H     20       IM1H     DC4      DRUD     -2.74710      0.400000           0   0.00000       0.00000    
       396 IM1H     20       IM1H     H6       HDR5E    0.203000       1.00800           0   0.00000       0.00000    
       397 IM1H     20       IM1H     N2       ND2R5C    2.04220       13.6070           0 -0.803000       1.00000    
       398 IM1H     20       IM1H     DN2      DRUD     -2.19920      0.400000           0   0.00000       0.00000    
       399 IM1H     20       IM1H     H7       HDP1A    0.363000       1.00800           0   0.00000       0.00000    
       400 IM1H     20       IM1H     LPN21    LPD       0.00000       0.00000          -1   0.00000       0.00000    
       401 IM1H     21       IM1H     C1       CD33F     2.48500       11.6110           0  -1.18100       1.10000    
       402 IM1H     21       IM1H     DC1      DRUD     -2.66700      0.400000           0   0.00000       0.00000    
       403 IM1H     21       IM1H     H1       HDA3A    0.135000       1.00800           0   0.00000       0.00000    
       404 IM1H     21       IM1H     H2       HDA3A    0.135000       1.00800           0   0.00000       0.00000    
       405 IM1H     21       IM1H     H3       HDA3A    0.135000       1.00800           0   0.00000       0.00000    
       406 IM1H     21       IM1H     N1       ND2R5C    2.35720       13.6070           0 -0.803000       1.00000    
       407 IM1H     21       IM1H     DN1      DRUD     -2.19920      0.400000           0   0.00000       0.00000    
       408 IM1H     21       IM1H     C2       CD2R5D    2.44700       11.6110           0  -1.08300       1.10000    
       409 IM1H     21       IM1H     DC2      DRUD     -2.55400      0.400000           0   0.00000       0.00000    
       410 IM1H     21       IM1H     H4       HDR5D    0.195000       1.00800           0   0.00000       0.00000    
       411 IM1H     21       IM1H     C3       CD2R5D    2.50700       11.6110           0  -1.08300       1.10000    
       412 IM1H     21       IM1H     DC3      DRUD     -2.55400      0.400000           0   0.00000       0.00000    
       413 IM1H     21       IM1H     H5       HDR5D    0.192000       1.00800           0   0.00000       0.00000    
       414 IM1H     21       IM1H     C4       CD2R5E    2.72410       11.6110           0  -1.25300       1.20000    
       415 IM1H     21       IM1H     DC4      DRUD     -2.74710      0.400000           0   0.00000       0.00000    
       416 IM1H     21       IM1H     H6       HDR5E    0.203000       1.00800           0   0.00000       0.00000    
       417 IM1H     21       IM1H     N2       ND2R5C    2.04220       13.6070           0 -0.803000       1.00000    
       418 IM1H     21       IM1H     DN2      DRUD     -2.19920      0.400000           0   0.00000       0.00000    
       419 IM1H     21       IM1H     H7       HDP1A    0.363000       1.00800           0   0.00000       0.00000    
       420 IM1H     21       IM1H     LPN21    LPD       0.00000       0.00000          -1   0.00000       0.00000    
       421 IM1H     22       IM1H     C1       CD33F     2.48500       11.6110           0  -1.18100       1.10000    
       422 IM1H     22       IM1H     DC1      DRUD     -2.66700      0.400000           0   0.00000       0.00000    
       423 IM1H     22       IM1H     H1       HDA3A    0.135000       1.00800           0   0.00000       0.00000    
       424 IM1H     22       IM1H     H2       HDA3A    0.135000       1.00800           0   0.00000       0.00000    
       425 IM1H     22       IM1H     H3       HDA3A    0.135000       1.00800           0   0.00000       0.00000    
       426 IM1H     22       IM1H     N1       ND2R5C    2.35720       13.6070           0 -0.803000       1.00000    
       427 IM1H     22       IM1H     DN1      DRUD     -2.19920      0.400000           0   0.00000       0.00000    
       428 IM1H     22       IM1H     C2       CD2R5D    2.44700       11.6110           0  -1.08300       1.10000    
       429 IM1H     22       IM1H     DC2      DRUD     -2.55400      0.400000           0   0.00000       0.00000    
       430 IM1H     22       IM1H     H4       HDR5D    0.195000       1.00800           0   0.00000       0.00000    
       431 IM1H     22       IM1H     C3       CD2R5D    2.50700       11.6110           0  -1.08300       1.10000    
       432 IM1H     22       IM1H     DC3      DRUD     -2.55400      0.400000           0   0.00000       0.00000    
       433 IM1H     22       IM1H     H5       HDR5D    0.192000       1.00800           0   0.00000       0.00000    
       434 IM1H     22       IM1H     C4       CD2R5E    2.72410       11.6110           0  -1.25300       1.20000    
       435 IM1H     22       IM1H     DC4      DRUD     -2.74710      0.400000           0   0.00000       0.00000    
       436 IM1H     22       IM1H     H6       HDR5E    0.203000       1.00800           0   0.00000       0.00000    
       437 IM1H     22       IM1H     N2       ND2R5C    2.04220       13.6070           0 -0.803000       1.00000    
       438 IM1H     22       IM1H     DN2      DRUD     -2.19920      0.400000           0   0.00000       0.00000    
       439 IM1H     22       IM1H     H7       HDP1A    0.363000       1.00800           0   0.00000       0.00000    
       440 IM1H     22       IM1H     LPN21    LPD       0.00000       0.00000          -1   0.00000       0.00000    
       441 IM1H     23       IM1H     C1       CD33F     2.48500       11.6110           0  -1.18100       1.10000    
       442 IM1H     23       IM1H     DC1      DRUD     -2.66700      0.400000           0   0.00000       0.00000    
       443 IM1H     23       IM1H     H1       HDA3A    0.135000       1.00800           0   0.00000       0.00000    
       444 IM1H     23       IM1H     H2       HDA3A    0.135000       1.00800           0   0.00000       0.00000    
       445 IM1H     23       IM1H     H3       HDA3A    0.135000       1.00800           0   0.00000       0.00000    
       446 IM1H     23       IM1H     N1       ND2R5C    2.35720       13.6070           0 -0.803000       1.00000    
       447 IM1H     23       IM1H     DN1      DRUD     -2.19920      0.400000           0   0.00000       0.00000    
       448 IM1H     23       IM1H     C2       CD2R5D    2.44700       11.6110           0  -1.08300       1.10000    
       449 IM1H     23       IM1H     DC2      DRUD     -2.55400      0.400000           0   0.00000       0.00000    
       450 IM1H     23       IM1H     H4       HDR5D    0.195000       1.00800           0   0.00000       0.00000    
       451 IM1H     23       IM1H     C3       CD2R5D    2.50700       11.6110           0  -1.08300       1.10000    
       452 IM1H     23       IM1H     DC3      DRUD     -2.55400      0.400000           0   0.00000       0.00000    
       453 IM1H     23       IM1H     H5       HDR5D    0.192000       1.00800           0   0.00000       0.00000    
       454 IM1H     23       IM1H     C4       CD2R5E    2.72410       11.6110           0  -1.25300       1.20000    
       455 IM1H     23       IM1H     DC4      DRUD     -2.74710      0.400000           0   0.00000       0.00000    
       456 IM1H     23       IM1H     H6       HDR5E    0.203000       1.00800           0   0.00000       0.00000    
       457 IM1H     23       IM1H     N2       ND2R5C    2.04220       13.6070           0 -0.803000       1.00000    
       458 IM1H     23       IM1H     DN2      DRUD     -2.19920      0.400000           0   0.00000       0.00000    
       459 IM1H     23       IM1H     H7       HDP1A    0.363000       1.00800           0   0.00000       0.00000    
       460 IM1H     23       IM1H     LPN21    LPD       0.00000       0.00000          -1   0.00000       0.00000    
       461 IM1H     24       IM1H     C1       CD33F     2.48500       11.6110           0  -1.18100       1.10000    
       462 IM1H     24       IM1H     DC1      DRUD     -2.66700      0.400000           0   0.00000       0.00000    
       463 IM1H     24       IM1H     H1       HDA3A    0.135000       1.00800           0   0.00000       0.00000    
       464 IM1H     24       IM1H     H2       HDA3A    0.135000       1.00800           0   0.00000       0.00000    
       465 IM1H     24       IM1H     H3       HDA3A    0.135000       1.00800           0   0.00000       0.00000    
       466 IM1H     24       IM1H     N1       ND2R5C    2.35720       13.6070           0 -0.803000       1.00000    
       467 IM1H     24       IM1H     DN1      DRUD     -2.19920      0.400000           0   0.00000       0.00000    
       468 IM1H     24       IM1H     C2       CD2R5D    2.44700       11.6110           0  -1.08300       1.10000    
       469 IM1H     24       IM1H     DC2      DRUD     -2.55400      0.400000           0   0.00000       0.00000    
       470 IM1H     24       IM1H     H4       HDR5D    0.195000       1.00800           0   0.00000       0.00000    
       471 IM1H     24       IM1H     C3       CD2R5D    2.50700       11.6110           0  -1.08300       1.10000    
       472 IM1H     24       IM1H     DC3      DRUD     -2.55400      0.400000           0   0.00000       0.00000    
       473 IM1H     24       IM1H     H5       HDR5D    0.192000       1.00800           0   0.00000       0.00000    
       474 IM1H     24       IM1H     C4       CD2R5E    2.72410       11.6110           0  -1.25300       1.20000    
       475 IM1H     24       IM1H     DC4      DRUD     -2.74710      0.400000           0   0.00000       0.00000    
       476 IM1H     24       IM1H     H6       HDR5E    0.203000       1.00800           0   0.00000       0.00000    
       477 IM1H     24       IM1H     N2       ND2R5C    2.04220       13.6070           0 -0.803000       1.00000    
       478 IM1H     24       IM1H     DN2      DRUD     -2.19920      0.400000           0   0.00000       0.00000    
       479 IM1H     24       IM1H     H7       HDP1A    0.363000       1.00800           0   0.00000       0.00000    
       480 IM1H     24       IM1H     LPN21    LPD       0.00000       0.00000          -1   0.00000       0.00000    
       481 IM1H     25       IM1H     C1       CD33F     2.48500       11.6110           0  -1.18100       1.10000    
       482 IM1H     25       IM1H     DC1      DRUD     -2.66700      0.400000           0   0.00000       0.00000    
       483 IM1H     25       IM1H     H1       HDA3A    0.135000       1.00800           0   0.00000       0.00000    
       484 IM1H     25       IM1H     H2       HDA3A    0.135000       1.00800           0   0.00000       0.00000    
       485 IM1H     25       IM1H     H3       HDA3A    0.135000       1.00800           0   0.00000       0.00000    
       486 IM1H     25       IM1H     N1       ND2R5C    2.35720       13.6070           0 -0.803000       1.00000    
       487 IM1H     25       IM1H     DN1      DRUD     -2.19920      0.400000           0   0.00000       0.00000    
       488 IM1H     25       IM1H     C2       CD2R5D    2.44700       11.6110           0  -1.08300       1.10000    
       489 IM1H     25       IM1H     DC2      DRUD     -2.55400      0.400000           0   0.00000       0.00000    
       490 IM1H     25       IM1H     H4       HDR5D    0.195000       1.00800           0   0.00000       0.00000    
       491 IM1H     25       IM1H     C3       CD2R5D    2.50700       11.6110           0  -1.08300       1.10000    
       492 IM1H     25       IM1H     DC3      DRUD     -2.55400      0.400000           0   0.00000       0.00000    
       493 IM1H     25       IM1H     H5       HDR5D    0.192000       1.00800           0   0.00000       0.00000    
       494 IM1H     25       IM1H     C4       CD2R5E    2.72410       11.6110           0  -1.25300       1.20000    
       495 IM1H     25       IM1H     DC4      DRUD     -2.74710      0.400000           0   0.00000       0.00000    
       496 IM1H     25       IM1H     H6       HDR5E    0.203000       1.00800           0   0.00000       0.00000    
       497 IM1H     25       IM1H     N2       ND2R5C    2.04220       13.6070           0 -0.803000       1.00000    
       498 IM1H     25       IM1H     DN2      DRUD     -2.19920      0.400000           0   0.00000       0.00000    
       499 IM1H     25       IM1H     H7       HDP1A    0.363000       1.00800           0   0.00000       0.00000    
       500 IM1H     25       IM1H     LPN21    LPD       0.00000       0.00000          -1   0.00000       0.00000    
       501 IM1H     26       IM1H     C1       CD33F     2.48500       11.6110           0  -1.18100       1.10000    
       502 IM1H     26       IM1H     DC1      DRUD     -2.66700      0.400000           0   0.00000       0.00000    
       503 IM1H     26       IM1H     H1       HDA3A    0.135000       1.00800           0   0.00000       0.00000    
       504 IM1H     26       IM1H     H2       HDA3A    0.135000       1.00800           0   0.00000       0.00000    
       505 IM1H     26       IM1H     H3       HDA3A    0.135000       1.00800           0   0.00000       0.00000    
       506 IM1H     26       IM1H     N1       ND2R5C    2.35720       13.6070           0 -0.803000       1.00000    
       507 IM1H     26       IM1H     DN1      DRUD     -2.19920      0.400000           0   0.00000       0.00000    
       508 IM1H     26       IM1H     C2       CD2R5D    2.44700       11.6110           0  -1.08300       1.10000    
       509 IM1H     26       IM1H     DC2      DRUD     -2.55400      0.400000           0   0.00000       0.00000    
       510 IM1H     26       IM1H     H4       HDR5D    0.195000       1.00800           0   0.00000       0.00000    
       511 IM1H     26       IM1H     C3       CD2R5D    2.50700       11.6110           0  -1.08300       1.10000    
       512 IM1H     26       IM1H     DC3      DRUD     -2.55400      0.400000           0   0.00000       0.00000    
       513 IM1H     26       IM1H     H5       HDR5D    0.192000       1.00800           0   0.00000       0.00000    
       514 IM1H     26       IM1H     C4       CD2R5E    2.72410       11.6110           0  -1.25300       1.20000    
       515 IM1H     26       IM1H     DC4      DRUD     -2.74710      0.400000           0   0.00000       0.00000    
       516 IM1H     26       IM1H     H6       HDR5E    0.203000       1.00800           0   0.00000       0.00000    
       517 IM1H     26       IM1H     N2       ND2R5C    2.04220       13.6070           0 -0.803000       1.00000    
       518 IM1H     26       IM1H     DN2      DRUD     -2.19920      0.400000           0   0.00000       0.00000    
       519 IM1H     26       IM1H     H7       HDP1A    0.363000       1.00800           0   0.00000       0.00000    
       520 IM1H     26       IM1H     LPN21    LPD       0.00000       0.00000          -1   0.00000       0.00000    
       521 IM1H     27       IM1H     C1       CD33F     2.48500       11.6110           0  -1.18100       1.10000    
       522 IM1H     27       IM1H     DC1      DRUD     -2.66700      0.400000           0   0.00000       0.00000    
       523 IM1H     27       IM1H     H1       HDA3A    0.135000       1.00800           0   0.00000       0.00000    
       524 IM1H     27       IM1H     H2       HDA3A    0.135000       1.00800           0   0.00000       0.00000    
       525 IM1H     27       IM1H     H3       HDA3A    0.135000       1.00800           0   0.00000       0.00000    
       526 IM1H     27       IM1H     N1       ND2R5C    2.35720       13.6070           0 -0.803000       1.00000    
       527 IM1H     27       IM1H     DN1      DRUD     -2.19920      0.400000           0   0.00000       0.00000    
       528 IM1H     27       IM1H     C2       CD2R5D    2.44700       11.6110           0  -1.08300       1.10000    
       529 IM1H     27       IM1H     DC2      DRUD     -2.55400      0.400000           0   0.00000       0.00000    
       530 IM1H     27       IM1H     H4       HDR5D    0.195000       1.00800           0   0.00000       0.00000    
       531 IM1H     27       IM1H     C3       CD2R5D    2.50700       11.6110           0  -1.08300       1.10000    
       532 IM1H     27       IM1H     DC3      DRUD     -2.55400      0.400000           0   0.00000       0.00000    
       533 IM1H     27       IM1H     H5       HDR5D    0.192000       1.00800           0   0.00000       0.00000    
       534 IM1H     27       IM1H     C4       CD2R5E    2.72410       11.6110           0  -1.25300       1.20000    
       535 IM1H     27       IM1H     DC4      DRUD     -2.74710      0.400000           0   0.00000       0.00000    
       536 IM1H     27       IM1H     H6       HDR5E    0.203000       1.00800           0   0.00000       0.00000    
       537 IM1H     27       IM1H     N2       ND2R5C    2.04220       13.6070           0 -0.803000       1.00000    
       538 IM1H     27       IM1H     DN2      DRUD     -2.19920      0.400000           0   0.00000       0.00000    
       539 IM1H     27       IM1H     H7       HDP1A    0.363000       1.00800           0   0.00000       0.00000    
       540 IM1H     27       IM1H     LPN21    LPD       0.00000       0.00000          -1   0.00000       0.00000    
       541 IM1H     28       IM1H     C1       CD33F     2.48500       11.6110           0  -1.18100       1.10000    
       542 IM1H     28       IM1H     DC1      DRUD     -2.66700      0.400000           0   0.00000       0.00000    
       543 IM1H     28       IM1H     H1       HDA3A    0.135000       1.00800           0   0.00000       0.00000    
       544 IM1H     28       IM1H     H2       HDA3A    0.135000       1.00800           0   0.00000       0.00000    
       545 IM1H     28       IM1H     H3       HDA3A    0.135000       1.00800           0   0.00000       0.00000    
       546 IM1H     28       IM1H     N1       ND2R5C    2.35720       13.6070           0 -0.803000       1.00000    
       547 IM1H     28       IM1H     DN1      DRUD     -2.19920      0.400000           0   0.00000       0.00000    
       548 IM1H     28       IM1H     C2       CD2R5D    2.44700       11.6110           0  -1.08300       1.10000    
       549 IM1H     28       IM1H     DC2      DRUD     -2.55400      0.400000           0   0.00000       0.00000    
       550 IM1H     28       IM1H     H4       HDR5D    0.195000       1.00800           0   0.00000       0.00000    
       551 IM1H     28       IM1H     C3       CD2R5D    2.50700       11.6110           0  -1.08300       1.10000    
       552 IM1H     28       IM1H     DC3      DRUD     -2.55400      0.400000           0   0.00000       0.00000    
       553 IM1H     28       IM1H     H5       HDR5D    0.192000       1.00800           0   0.00000       0.00000    
       554 IM1H     28       IM1H     C4       CD2R5E    2.72410       11.6110           0  -1.25300       1.20000    
       555 IM1H     28       IM1H     DC4      DRUD     -2.74710      0.400000           0   0.00000       0.00000    
       556 IM1H     28       IM1H     H6       HDR5E    0.203000       1.00800           0   0.00000       0.00000    
       557 IM1H     28       IM1H     N2       ND2R5C    2.04220       13.6070           0 -0.803000       1.00000    
       558 IM1H     28       IM1H     DN2      DRUD     -2.19920      0.400000           0   0.00000       0.00000    
       559 IM1H     28       IM1H     H7       HDP1A    0.363000       1.00800           0   0.00000       0.00000    
       560 IM1H     28       IM1H     LPN21    LPD       0.00000       0.00000          -1   0.00000       0.00000    
       561 IM1H     29       IM1H     C1       CD33F     2.48500       11.6110           0  -1.18100       1.10000    
       562 IM1H     29       IM1H     DC1      DRUD     -2.66700      0.400000           0   0.00000       0.00000    
       563 IM1H     29       IM1H     H1       HDA3A    0.135000       1.00800           0   0.00000       0.00000    
       564 IM1H     29       IM1H     H2       HDA3A    0.135000       1.00800           0   0.00000       0.00000    
       565 IM1H     29       IM1H     H3       HDA3A    0.135000       1.00800           0   0.00000       0.00000    
       566 IM1H     29       IM1H     N1       ND2R5C    2.35720       13.6070           0 -0.803000       1.00000    
       567 IM1H     29       IM1H     DN1      DRUD     -2.19920      0.400000           0   0.00000       0.00000    
       568 IM1H     29       IM1H     C2       CD2R5D    2.44700       11.6110           0  -1.08300       1.10000    
       569 IM1H     29       IM1H     DC2      DRUD     -2.55400      0.400000           0   0.00000       0.00000    
       570 IM1H     29       IM1H     H4       HDR5D    0.195000       1.00800           0   0.00000       0.00000    
       571 IM1H     29       IM1H     C3       CD2R5D    2.50700       11.6110           0  -1.08300       1.10000    
       572 IM1H     29       IM1H     DC3      DRUD     -2.55400      0.400000           0   0.00000       0.00000    
       573 IM1H     29       IM1H     H5       HDR5D    0.192000       1.00800           0   0.00000       0.00000    
       574 IM1H     29       IM1H     C4       CD2R5E    2.72410       11.6110           0  -1.25300       1.20000    
       575 IM1H     29       IM1H     DC4      DRUD     -2.74710      0.400000           0   0.00000       0.00000    
       576 IM1H     29       IM1H     H6       HDR5E    0.203000       1.00800           0   0.00000       0.00000    
       577 IM1H     29       IM1H     N2       ND2R5C    2.04220       13.6070           0 -0.803000       1.00000    
       578 IM1H     29       IM1H     DN2      DRUD     -2.19920      0.400000           0   0.00000       0.00000    
       579 IM1H     29       IM1H     H7       HDP1A    0.363000       1.00800           0   0.00000       0.00000    
       580 IM1H     29       IM1H     LPN21    LPD       0.00000       0.00000          -1   0.00000       0.00000    
       581 IM1H     30       IM1H     C1       CD33F     2.48500       11.6110           0  -1.18100       1.10000    
       582 IM1H     30       IM1H     DC1      DRUD     -2.66700      0.400000           0   0.00000       0.00000    
       583 IM1H     30       IM1H     H1       HDA3A    0.135000       1.00800           0   0.00000       0.00000    
       584 IM1H     30       IM1H     H2       HDA3A    0.135000       1.00800           0   0.00000       0.00000    
       585 IM1H     30       IM1H     H3       HDA3A    0.135000       1.00800           0   0.00000       0.00000    
       586 IM1H     30       IM1H     N1       ND2R5C    2.35720       13.6070           0 -0.803000       1.00000    
       587 IM1H     30       IM1H     DN1      DRUD     -2.19920      0.400000           0   0.00000       0.00000    
       588 IM1H     30       IM1H     C2       CD2R5D    2.44700       11.6110           0  -1.08300       1.10000    
       589 IM1H     30       IM1H     DC2      DRUD     -2.55400      0.400000           0   0.00000       0.00000    
       590 IM1H     30       IM1H     H4       HDR5D    0.195000       1.00800           0   0.00000       0.00000    
       591 IM1H     30       IM1H     C3       CD2R5D    2.50700       11.6110           0  -1.08300       1.10000    
       592 IM1H     30       IM1H     DC3      DRUD     -2.55400      0.400000           0   0.00000       0.00000    
       593 IM1H     30       IM1H     H5       HDR5D    0.192000       1.00800           0   0.00000       0.00000    
       594 IM1H     30       IM1H     C4       CD2R5E    2.72410       11.6110           0  -1.25300       1.20000    
       595 IM1H     30       IM1H     DC4      DRUD     -2.74710      0.400000           0   0.00000       0.00000    
       596 IM1H     30       IM1H     H6       HDR5E    0.203000       1.00800           0   0.00000       0.00000    
       597 IM1H     30       IM1H     N2       ND2R5C    2.04220       13.6070           0 -0.803000       1.00000    
       598 IM1H     30       IM1H     DN2      DRUD     -2.19920      0.400000           0   0.00000       0.00000    
       599 IM1H     30       IM1H     H7       HDP1A    0.363000       1.00800           0   0.00000       0.00000    
       600 IM1H     30       IM1H     LPN21    LPD       0.00000       0.00000          -1   0.00000       0.00000    
       601 IM1H     31       IM1H     C1       CD33F     2.48500       11.6110           0  -1.18100       1.10000    
       602 IM1H     31       IM1H     DC1      DRUD     -2.66700      0.400000           0   0.00000       0.00000    
       603 IM1H     31       IM1H     H1       HDA3A    0.135000       1.00800           0   0.00000       0.00000    
       604 IM1H     31       IM1H     H2       HDA3A    0.135000       1.00800           0   0.00000       0.00000    
       605 IM1H     31       IM1H     H3       HDA3A    0.135000       1.00800           0   0.00000       0.00000    
       606 IM1H     31       IM1H     N1       ND2R5C    2.35720       13.6070           0 -0.803000       1.00000    
       607 IM1H     31       IM1H     DN1      DRUD     -2.19920      0.400000           0   0.00000       0.00000    
       608 IM1H     31       IM1H     C2       CD2R5D    2.44700       11.6110           0  -1.08300       1.10000    
       609 IM1H     31       IM1H     DC2      DRUD     -2.55400      0.400000           0   0.00000       0.00000    
       610 IM1H     31       IM1H     H4       HDR5D    0.195000       1.00800           0   0.00000       0.00000    
       611 IM1H     31       IM1H     C3       CD2R5D    2.50700       11.6110           0  -1.08300       1.10000    
       612 IM1H     31       IM1H     DC3      DRUD     -2.55400      0.400000           0   0.00000       0.00000    
       613 IM1H     31       IM1H     H5       HDR5D    0.192000       1.00800           0   0.00000       0.00000    
       614 IM1H     31       IM1H     C4       CD2R5E    2.72410       11.6110           0  -1.25300       1.20000    
       615 IM1H     31       IM1H     DC4      DRUD     -2.74710      0.400000           0   0.00000       0.00000    
       616 IM1H     31       IM1H     H6       HDR5E    0.203000       1.00800           0   0.00000       0.00000    
       617 IM1H     31       IM1H     N2       ND2R5C    2.04220       13.6070           0 -0.803000       1.00000    
       618 IM1H     31       IM1H     DN2      DRUD     -2.19920      0.400000           0   0.00000       0.00000    
       619 IM1H     31       IM1H     H7       HDP1A    0.363000       1.00800           0   0.00000       0.00000    
       620 IM1H     31       IM1H     LPN21    LPD       0.00000       0.00000          -1   0.00000       0.00000    
       621 IM1H     32       IM1H     C1       CD33F     2.48500       11.6110           0  -1.18100       1.10000    
       622 IM1H     32       IM1H     DC1      DRUD     -2.66700      0.400000           0   0.00000       0.00000    
       623 IM1H     32       IM1H     H1       HDA3A    0.135000       1.00800           0   0.00000       0.00000    
       624 IM1H     32       IM1H     H2       HDA3A    0.135000       1.00800           0   0.00000       0.00000    
       625 IM1H     32       IM1H     H3       HDA3A    0.135000       1.00800           0   0.00000       0.00000    
       626 IM1H     32       IM1H     N1       ND2R5C    2.35720       13.6070           0 -0.803000       1.00000    
       627 IM1H     32       IM1H     DN1      DRUD     -2.19920      0.400000           0   0.00000       0.00000    
       628 IM1H     32       IM1H     C2       CD2R5D    2.44700       11.6110           0  -1.08300       1.10000    
       629 IM1H     32       IM1H     DC2      DRUD     -2.55400      0.400000           0   0.00000       0.00000    
       630 IM1H     32       IM1H     H4       HDR5D    0.195000       1.00800           0   0.00000       0.00000    
       631 IM1H     32       IM1H     C3       CD2R5D    2.50700       11.6110           0  -1.08300       1.10000    
       632 IM1H     32       IM1H     DC3      DRUD     -2.55400      0.400000           0   0.00000       0.00000    
       633 IM1H     32       IM1H     H5       HDR5D    0.192000       1.00800           0   0.00000       0.00000    
       634 IM1H     32       IM1H     C4       CD2R5E    2.72410       11.6110           0  -1.25300       1.20000    
       635 IM1H     32       IM1H     DC4      DRUD     -2.74710      0.400000           0   0.00000       0.00000    
       636 IM1H     32       IM1H     H6       HDR5E    0.203000       1.00800           0   0.00000       0.00000    
       637 IM1H     32       IM1H     N2       ND2R5C    2.04220       13.6070           0 -0.803000       1.00000    
       638 IM1H     32       IM1H     DN2      DRUD     -2.19920      0.400000           0   0.00000       0.00000    
       639 IM1H     32       IM1H     H7       HDP1A    0.363000       1.00800           0   0.00000       0.00000    
       640 IM1H     32       IM1H     LPN21    LPD       0.00000       0.00000          -1   0.00000       0.00000    
       641 IM1H     33       IM1H     C1       CD33F     2.48500       11.6110           0  -1.18100       1.10000    
       642 IM1H     33       IM1H     DC1      DRUD     -2.66700      0.400000           0   0.00000       0.00000    
       643 IM1H     33       IM1H     H1       HDA3A    0.135000       1.00800           0   0.00000       0.00000    
       644 IM1H     33       IM1H     H2       HDA3A    0.135000       1.00800           0   0.00000       0.00000    
       645 IM1H     33       IM1H     H3       HDA3A    0.135000       1.00800           0   0.00000       0.00000    
       646 IM1H     33       IM1H     N1       ND2R5C    2.35720       13.6070           0 -0.803000       1.00000    
       647 IM1H     33       IM1H     DN1      DRUD     -2.19920      0.400000           0   0.00000       0.00000    
       648 IM1H     33       IM1H     C2       CD2R5D    2.44700       11.6110           0  -1.08300       1.10000    
       649 IM1H     33       IM1H     DC2      DRUD     -2.55400      0.400000           0   0.00000       0.00000    
       650 IM1H     33       IM1H     H4       HDR5D    0.195000       1.00800           0   0.00000       0.00000    
       651 IM1H     33       IM1H     C3       CD2R5D    2.50700       11.6110           0  -1.08300       1.10000    
       652 IM1H     33       IM1H     DC3      DRUD     -2.55400      0.400000           0   0.00000       0.00000    
       653 IM1H     33       IM1H     H5       HDR5D    0.192000       1.00800           0   0.00000       0.00000    
       654 IM1H     33       IM1H     C4       CD2R5E    2.72410       11.6110           0  -1.25300       1.20000    
       655 IM1H     33       IM1H     DC4      DRUD     -2.74710      0.400000           0   0.00000       0.00000    
       656 IM1H     33       IM1H     H6       HDR5E    0.203000       1.00800           0   0.00000       0.00000    
       657 IM1H     33       IM1H     N2       ND2R5C    2.04220       13.6070           0 -0.803000       1.00000    
       658 IM1H     33       IM1H     DN2      DRUD     -2.19920      0.400000           0   0.00000       0.00000    
       659 IM1H     33       IM1H     H7       HDP1A    0.363000       1.00800           0   0.00000       0.00000    
       660 IM1H     33       IM1H     LPN21    LPD       0.00000       0.00000          -1   0.00000       0.00000    
       661 OAC      1        OAC      C1       CD2O2A    3.18170       11.6110           0  -1.01600      0.899000    
       662 OAC      1        OAC      DC1      DRUD     -2.47370      0.400000           0   0.00000       0.00000    
       663 OAC      1        OAC      C2       CD33A     2.98790       11.6110           0  -1.68100       1.41400    
       664 OAC      1        OAC      DC2      DRUD     -3.18190      0.400000           0   0.00000       0.00000    
       665 OAC      1        OAC      H1       HDA3A    0.400000E-02   1.00800           0   0.00000       0.00000    
       666 OAC      1        OAC      H2       HDA3A    0.400000E-02   1.00800           0   0.00000       0.00000    
       667 OAC      1        OAC      H3       HDA3A    0.400000E-02   1.00800           0   0.00000       0.00000    
       668 OAC      1        OAC      O1       OD2C2A    2.05480       15.5994           0 -0.699000       2.39900    
       669 OAC      1        OAC      DO1      DRUD     -2.05180      0.400000           0   0.00000       0.00000    
       670 OAC      1        OAC      O2       OD2C2A    2.05480       15.5994           0 -0.699000       2.39900    
       671 OAC      1        OAC      DO2      DRUD     -2.05180      0.400000           0   0.00000       0.00000    
       672 OAC      1        OAC      HO2      DUMH      0.00000       1.00800           0   0.00000       0.00000    
       673 OAC      1        OAC      HO1      DUMH      0.00000       1.00800           0   0.00000       0.00000    
       674 OAC      1        OAC      LPO11    LPD     -0.383000       0.00000          -1   0.00000       0.00000    
       675 OAC      1        OAC      LPO12    LPD     -0.383000       0.00000          -1   0.00000       0.00000    
       676 OAC      1        OAC      LPO21    LPD     -0.383000       0.00000          -1   0.00000       0.00000    
       677 OAC      1        OAC      LPO22    LPD     -0.383000       0.00000          -1   0.00000       0.00000    
       678 OAC      2        OAC      C1       CD2O2A    3.18170       11.6110           0  -1.01600      0.899000    
       679 OAC      2        OAC      DC1      DRUD     -2.47370      0.400000           0   0.00000       0.00000    
       680 OAC      2        OAC      C2       CD33A     2.98790       11.6110           0  -1.68100       1.41400    
       681 OAC      2        OAC      DC2      DRUD     -3.18190      0.400000           0   0.00000       0.00000    
       682 OAC      2        OAC      H1       HDA3A    0.400000E-02   1.00800           0   0.00000       0.00000    
       683 OAC      2        OAC      H2       HDA3A    0.400000E-02   1.00800           0   0.00000       0.00000    
       684 OAC      2        OAC      H3       HDA3A    0.400000E-02   1.00800           0   0.00000       0.00000    
       685 OAC      2        OAC      O1       OD2C2A    2.05480       15.5994           0 -0.699000       2.39900    
       686 OAC      2        OAC      DO1      DRUD     -2.05180      0.400000           0   0.00000       0.00000    
       687 OAC      2        OAC      O2       OD2C2A    2.05480       15.5994           0 -0.699000       2.39900    
       688 OAC      2        OAC      DO2      DRUD     -2.05180      0.400000           0   0.00000       0.00000    
       689 OAC      2        OAC      HO2      DUMH      0.00000       1.00800           0   0.00000       0.00000    
       690 OAC      2        OAC      HO1      DUMH      0.00000       1.00800           0   0.00000       0.00000    
       691 OAC      2        OAC      LPO11    LPD     -0.383000       0.00000          -1   0.00000       0.00000    
       692 OAC      2        OAC      LPO12    LPD     -0.383000       0.00000          -1   0.00000       0.00000    
       693 OAC      2        OAC      LPO21    LPD     -0.383000       0.00000          -1   0.00000       0.00000    
       694 OAC      2        OAC      LPO22    LPD     -0.383000       0.00000          -1   0.00000       0.00000    
       695 OAC      3        OAC      C1       CD2O2A    3.18170       11.6110           0  -1.01600      0.899000    
       696 OAC      3        OAC      DC1      DRUD     -2.47370      0.400000           0   0.00000       0.00000    
       697 OAC      3        OAC      C2       CD33A     2.98790       11.6110           0  -1.68100       1.41400    
       698 OAC      3        OAC      DC2      DRUD     -3.18190      0.400000           0   0.00000       0.00000    
       699 OAC      3        OAC      H1       HDA3A    0.400000E-02   1.00800           0   0.00000       0.00000    
       700 OAC      3        OAC      H2       HDA3A    0.400000E-02   1.00800           0   0.00000       0.00000    
       701 OAC      3        OAC      H3       HDA3A    0.400000E-02   1.00800           0   0.00000       0.00000    
       702 OAC      3        OAC      O1       OD2C2A    2.05480       15.5994           0 -0.699000       2.39900    
       703 OAC      3        OAC      DO1      DRUD     -2.05180      0.400000           0   0.00000       0.00000    
       704 OAC      3        OAC      O2       OD2C2A    2.05480       15.5994           0 -0.699000       2.39900    
       705 OAC      3        OAC      DO2      DRUD     -2.05180      0.400000           0   0.00000       0.00000    
       706 OAC      3        OAC      HO2      DUMH      0.00000       1.00800           0   0.00000       0.00000    
       707 OAC      3        OAC      HO1      DUMH      0.00000       1.00800           0   0.00000       0.00000    
       708 OAC      3        OAC      LPO11    LPD     -0.383000       0.00000          -1   0.00000       0.00000    
       709 OAC      3        OAC      LPO12    LPD     -0.383000       0.00000          -1   0.00000       0.00000    
       710 OAC      3        OAC      LPO21    LPD     -0.383000       0.00000          -1   0.00000       0.00000    
       711 OAC      3        OAC      LPO22    LPD     -0.383000       0.00000          -1   0.00000       0.00000    
       712 OAC      4        OAC      C1       CD2O2A    3.18170       11.6110           0  -1.01600      0.899000    
       713 OAC      4        OAC      DC1      DRUD     -2.47370      0.400000           0   0.00000       0.00000    
       714 OAC      4        OAC      C2       CD33A     2.98790       11.6110           0  -1.68100       1.41400    
       715 OAC      4        OAC      DC2      DRUD     -3.18190      0.400000           0   0.00000       0.00000    
       716 OAC      4        OAC      H1       HDA3A    0.400000E-02   1.00800           0   0.00000       0.00000    
       717 OAC      4        OAC      H2       HDA3A    0.400000E-02   1.00800           0   0.00000       0.00000    
       718 OAC      4        OAC      H3       HDA3A    0.400000E-02   1.00800           0   0.00000       0.00000    
       719 OAC      4        OAC      O1       OD2C2A    2.05480       15.5994           0 -0.699000       2.39900    
       720 OAC      4        OAC      DO1      DRUD     -2.05180      0.400000           0   0.00000       0.00000    
       721 OAC      4        OAC      O2       OD2C2A    2.05480       15.5994           0 -0.699000       2.39900    
       722 OAC      4        OAC      DO2      DRUD     -2.05180      0.400000           0   0.00000       0.00000    
       723 OAC      4        OAC      HO2      DUMH      0.00000       1.00800           0   0.00000       0.00000    
       724 OAC      4        OAC      HO1      DUMH      0.00000       1.00800           0   0.00000       0.00000    
       725 OAC      4        OAC      LPO11    LPD     -0.383000       0.00000          -1   0.00000       0.00000    
       726 OAC      4        OAC      LPO12    LPD     -0.383000       0.00000          -1   0.00000       0.00000    
       727 OAC      4        OAC      LPO21    LPD     -0.383000       0.00000          -1   0.00000       0.00000    
       728 OAC      4        OAC      LPO22    LPD     -0.383000       0.00000          -1   0.00000       0.00000    
       729 OAC      5        OAC      C1       CD2O2A    3.18170       11.6110           0  -1.01600      0.899000    
       730 OAC      5        OAC      DC1      DRUD     -2.47370      0.400000           0   0.00000       0.00000    
       731 OAC      5        OAC      C2       CD33A     2.98790       11.6110           0  -1.68100       1.41400    
       732 OAC      5        OAC      DC2      DRUD     -3.18190      0.400000           0   0.00000       0.00000    
       733 OAC      5        OAC      H1       HDA3A    0.400000E-02   1.00800           0   0.00000       0.00000    
       734 OAC      5        OAC      H2       HDA3A    0.400000E-02   1.00800           0   0.00000       0.00000    
       735 OAC      5        OAC      H3       HDA3A    0.400000E-02   1.00800           0   0.00000       0.00000    
       736 OAC      5        OAC      O1       OD2C2A    2.05480       15.5994           0 -0.699000       2.39900    
       737 OAC      5        OAC      DO1      DRUD     -2.05180      0.400000           0   0.00000       0.00000    
       738 OAC      5        OAC      O2       OD2C2A    2.05480       15.5994           0 -0.699000       2.39900    
       739 OAC      5        OAC      DO2      DRUD     -2.05180      0.400000           0   0.00000       0.00000    
       740 OAC      5        OAC      HO2      DUMH      0.00000       1.00800           0   0.00000       0.00000    
       741 OAC      5        OAC      HO1      DUMH      0.00000       1.00800           0   0.00000       0.00000    
       742 OAC      5        OAC      LPO11    LPD     -0.383000       0.00000          -1   0.00000       0.00000    
       743 OAC      5        OAC      LPO12    LPD     -0.383000       0.00000          -1   0.00000       0.00000    
       744 OAC      5        OAC      LPO21    LPD     -0.383000       0.00000          -1   0.00000       0.00000    
       745 OAC      5        OAC      LPO22    LPD     -0.383000       0.00000          -1   0.00000       0.00000    
       746 OAC      6        OAC      C1       CD2O2A    3.18170       11.6110           0  -1.01600      0.899000    
       747 OAC      6        OAC      DC1      DRUD     -2.47370      0.400000           0   0.00000       0.00000    
       748 OAC      6        OAC      C2       CD33A     2.98790       11.6110           0  -1.68100       1.41400    
       749 OAC      6        OAC      DC2      DRUD     -3.18190      0.400000           0   0.00000       0.00000    
       750 OAC      6        OAC      H1       HDA3A    0.400000E-02   1.00800           0   0.00000       0.00000    
       751 OAC      6        OAC      H2       HDA3A    0.400000E-02   1.00800           0   0.00000       0.00000    
       752 OAC      6        OAC      H3       HDA3A    0.400000E-02   1.00800           0   0.00000       0.00000    
       753 OAC      6        OAC      O1       OD2C2A    2.05480       15.5994           0 -0.699000       2.39900    
       754 OAC      6        OAC      DO1      DRUD     -2.05180      0.400000           0   0.00000       0.00000    
       755 OAC      6        OAC      O2       OD2C2A    2.05480       15.5994           0 -0.699000       2.39900    
       756 OAC      6        OAC      DO2      DRUD     -2.05180      0.400000           0   0.00000       0.00000    
       757 OAC      6        OAC      HO2      DUMH      0.00000       1.00800           0   0.00000       0.00000    
       758 OAC      6        OAC      HO1      DUMH      0.00000       1.00800           0   0.00000       0.00000    
       759 OAC      6        OAC      LPO11    LPD     -0.383000       0.00000          -1   0.00000       0.00000    
       760 OAC      6        OAC      LPO12    LPD     -0.383000       0.00000          -1   0.00000       0.00000    
       761 OAC      6        OAC      LPO21    LPD     -0.383000       0.00000          -1   0.00000       0.00000    
       762 OAC      6        OAC      LPO22    LPD     -0.383000       0.00000          -1   0.00000       0.00000    
       763 OAC      7        OAC      C1       CD2O2A    3.18170       11.6110           0  -1.01600      0.899000    
       764 OAC      7        OAC      DC1      DRUD     -2.47370      0.400000           0   0.00000       0.00000    
       765 OAC      7        OAC      C2       CD33A     2.98790       11.6110           0  -1.68100       1.41400    
       766 OAC      7        OAC      DC2      DRUD     -3.18190      0.400000           0   0.00000       0.00000    
       767 OAC      7        OAC      H1       HDA3A    0.400000E-02   1.00800           0   0.00000       0.00000    
       768 OAC      7        OAC      H2       HDA3A    0.400000E-02   1.00800           0   0.00000       0.00000    
       769 OAC      7        OAC      H3       HDA3A    0.400000E-02   1.00800           0   0.00000       0.00000    
       770 OAC      7        OAC      O1       OD2C2A    2.05480       15.5994           0 -0.699000       2.39900    
       771 OAC      7        OAC      DO1      DRUD     -2.05180      0.400000           0   0.00000       0.00000    
       772 OAC      7        OAC      O2       OD2C2A    2.05480       15.5994           0 -0.699000       2.39900    
       773 OAC      7        OAC      DO2      DRUD     -2.05180      0.400000           0   0.00000       0.00000    
       774 OAC      7        OAC      HO2      DUMH      0.00000       1.00800           0   0.00000       0.00000    
       775 OAC      7        OAC      HO1      DUMH      0.00000       1.00800           0   0.00000       0.00000    
       776 OAC      7        OAC      LPO11    LPD     -0.383000       0.00000          -1   0.00000       0.00000    
       777 OAC      7        OAC      LPO12    LPD     -0.383000       0.00000          -1   0.00000       0.00000    
       778 OAC      7        OAC      LPO21    LPD     -0.383000       0.00000          -1   0.00000       0.00000    
       779 OAC      7        OAC      LPO22    LPD     -0.383000       0.00000          -1   0.00000       0.00000    
       780 OAC      8        OAC      C1       CD2O2A    3.18170       11.6110           0  -1.01600      0.899000    
       781 OAC      8        OAC      DC1      DRUD     -2.47370      0.400000           0   0.00000       0.00000    
       782 OAC      8        OAC      C2       CD33A     2.98790       11.6110           0  -1.68100       1.41400    
       783 OAC      8        OAC      DC2      DRUD     -3.18190      0.400000           0   0.00000       0.00000    
       784 OAC      8        OAC      H1       HDA3A    0.400000E-02   1.00800           0   0.00000       0.00000    
       785 OAC      8        OAC      H2       HDA3A    0.400000E-02   1.00800           0   0.00000       0.00000    
       786 OAC      8        OAC      H3       HDA3A    0.400000E-02   1.00800           0   0.00000       0.00000    
       787 OAC      8        OAC      O1       OD2C2A    2.05480       15.5994           0 -0.699000       2.39900    
       788 OAC      8        OAC      DO1      DRUD     -2.05180      0.400000           0   0.00000       0.00000    
       789 OAC      8        OAC      O2       OD2C2A    2.05480       15.5994           0 -0.699000       2.39900    
       790 OAC      8        OAC      DO2      DRUD     -2.05180      0.400000           0   0.00000       0.00000    
       791 OAC      8        OAC      HO2      DUMH      0.00000       1.00800           0   0.00000       0.00000    
       792 OAC      8        OAC      HO1      DUMH      0.00000       1.00800           0   0.00000       0.00000    
       793 OAC      8        OAC      LPO11    LPD     -0.383000       0.00000          -1   0.00000       0.00000    
       794 OAC      8        OAC      LPO12    LPD     -0.383000       0.00000          -1   0.00000       0.00000    
       795 OAC      8        OAC      LPO21    LPD     -0.383000       0.00000          -1   0.00000       0.00000    
       796 OAC      8        OAC      LPO22    LPD     -0.383000       0.00000          -1   0.00000       0.00000    
       797 OAC      9        OAC      C1       CD2O2A    3.18170       11.6110           0  -1.01600      0.899000    
       798 OAC      9        OAC      DC1      DRUD     -2.47370      0.400000           0   0.00000       0.00000    
       799 OAC      9        OAC      C2       CD33A     2.98790       11.6110           0  -1.68100       1.41400    
       800 OAC      9        OAC      DC2      DRUD     -3.18190      0.400000           0   0.00000       0.00000    
       801 OAC      9        OAC      H1       HDA3A    0.400000E-02   1.00800           0   0.00000       0.00000    
       802 OAC      9        OAC      H2       HDA3A    0.400000E-02   1.00800           0   0.00000       0.00000    
       803 OAC      9        OAC      H3       HDA3A    0.400000E-02   1.00800           0   0.00000       0.00000    
       804 OAC      9        OAC      O1       OD2C2A    2.05480       15.5994           0 -0.699000       2.39900    
       805 OAC      9        OAC      DO1      DRUD     -2.05180      0.400000           0   0.00000       0.00000    
       806 OAC      9        OAC      O2       OD2C2A    2.05480       15.5994           0 -0.699000       2.39900    
       807 OAC      9        OAC      DO2      DRUD     -2.05180      0.400000           0   0.00000       0.00000    
       808 OAC      9        OAC      HO2      DUMH      0.00000       1.00800           0   0.00000       0.00000    
       809 OAC      9        OAC      HO1      DUMH      0.00000       1.00800           0   0.00000       0.00000    
       810 OAC      9        OAC      LPO11    LPD     -0.383000       0.00000          -1   0.00000       0.00000    
       811 OAC      9        OAC      LPO12    LPD     -0.383000       0.00000          -1   0.00000       0.00000    
       812 OAC      9        OAC      LPO21    LPD     -0.383000       0.00000          -1   0.00000       0.00000    
       813 OAC      9        OAC      LPO22    LPD     -0.383000       0.00000          -1   0.00000       0.00000    
       814 OAC      10       OAC      C1       CD2O2A    3.18170       11.6110           0  -1.01600      0.899000    
       815 OAC      10       OAC      DC1      DRUD     -2.47370      0.400000           0   0.00000       0.00000    
       816 OAC      10       OAC      C2       CD33A     2.98790       11.6110           0  -1.68100       1.41400    
       817 OAC      10       OAC      DC2      DRUD     -3.18190      0.400000           0   0.00000       0.00000    
       818 OAC      10       OAC      H1       HDA3A    0.400000E-02   1.00800           0   0.00000       0.00000    
       819 OAC      10       OAC      H2       HDA3A    0.400000E-02   1.00800           0   0.00000       0.00000    
       820 OAC      10       OAC      H3       HDA3A    0.400000E-02   1.00800           0   0.00000       0.00000    
       821 OAC      10       OAC      O1       OD2C2A    2.05480       15.5994           0 -0.699000       2.39900    
       822 OAC      10       OAC      DO1      DRUD     -2.05180      0.400000           0   0.00000       0.00000    
       823 OAC      10       OAC      O2       OD2C2A    2.05480       15.5994           0 -0.699000       2.39900    
       824 OAC      10       OAC      DO2      DRUD     -2.05180      0.400000           0   0.00000       0.00000    
       825 OAC      10       OAC      HO2      DUMH      0.00000       1.00800           0   0.00000       0.00000    
       826 OAC      10       OAC      HO1      DUMH      0.00000       1.00800           0   0.00000       0.00000    
       827 OAC      10       OAC      LPO11    LPD     -0.383000       0.00000          -1   0.00000       0.00000    
       828 OAC      10       OAC      LPO12    LPD     -0.383000       0.00000          -1   0.00000       0.00000    
       829 OAC      10       OAC      LPO21    LPD     -0.383000       0.00000          -1   0.00000       0.00000    
       830 OAC      10       OAC      LPO22    LPD     -0.383000       0.00000          -1   0.00000       0.00000    
       831 OAC      11       OAC      C1       CD2O2A    3.18170       11.6110           0  -1.01600      0.899000    
       832 OAC      11       OAC      DC1      DRUD     -2.47370      0.400000           0   0.00000       0.00000    
       833 OAC      11       OAC      C2       CD33A     2.98790       11.6110           0  -1.68100       1.41400    
       834 OAC      11       OAC      DC2      DRUD     -3.18190      0.400000           0   0.00000       0.00000    
       835 OAC      11       OAC      H1       HDA3A    0.400000E-02   1.00800           0   0.00000       0.00000    
       836 OAC      11       OAC      H2       HDA3A    0.400000E-02   1.00800           0   0.00000       0.00000    
       837 OAC      11       OAC      H3       HDA3A    0.400000E-02   1.00800           0   0.00000       0.00000    
       838 OAC      11       OAC      O1       OD2C2A    2.05480       15.5994           0 -0.699000       2.39900    
       839 OAC      11       OAC      DO1      DRUD     -2.05180      0.400000           0   0.00000       0.00000    
       840 OAC      11       OAC      O2       OD2C2A    2.05480       15.5994           0 -0.699000       2.39900    
       841 OAC      11       OAC      DO2      DRUD     -2.05180      0.400000           0   0.00000       0.00000    
       842 OAC      11       OAC      HO2      DUMH      0.00000       1.00800           0   0.00000       0.00000    
       843 OAC      11       OAC      HO1      DUMH      0.00000       1.00800           0   0.00000       0.00000    
       844 OAC      11       OAC      LPO11    LPD     -0.383000       0.00000          -1   0.00000       0.00000    
       845 OAC      11       OAC      LPO12    LPD     -0.383000       0.00000          -1   0.00000       0.00000    
       846 OAC      11       OAC      LPO21    LPD     -0.383000       0.00000          -1   0.00000       0.00000    
       847 OAC      11       OAC      LPO22    LPD     -0.383000       0.00000          -1   0.00000       0.00000    
       848 OAC      12       OAC      C1       CD2O2A    3.18170       11.6110           0  -1.01600      0.899000    
       849 OAC      12       OAC      DC1      DRUD     -2.47370      0.400000           0   0.00000       0.00000    
       850 OAC      12       OAC      C2       CD33A     2.98790       11.6110           0  -1.68100       1.41400    
       851 OAC      12       OAC      DC2      DRUD     -3.18190      0.400000           0   0.00000       0.00000    
       852 OAC      12       OAC      H1       HDA3A    0.400000E-02   1.00800           0   0.00000       0.00000    
       853 OAC      12       OAC      H2       HDA3A    0.400000E-02   1.00800           0   0.00000       0.00000    
       854 OAC      12       OAC      H3       HDA3A    0.400000E-02   1.00800           0   0.00000       0.00000    
       855 OAC      12       OAC      O1       OD2C2A    2.05480       15.5994           0 -0.699000       2.39900    
       856 OAC      12       OAC      DO1      DRUD     -2.05180      0.400000           0   0.00000       0.00000    
       857 OAC      12       OAC      O2       OD2C2A    2.05480       15.5994           0 -0.699000       2.39900    
       858 OAC      12       OAC      DO2      DRUD     -2.05180      0.400000           0   0.00000       0.00000    
       859 OAC      12       OAC      HO2      DUMH      0.00000       1.00800           0   0.00000       0.00000    
       860 OAC      12       OAC      HO1      DUMH      0.00000       1.00800           0   0.00000       0.00000    
       861 OAC      12       OAC      LPO11    LPD     -0.383000       0.00000          -1   0.00000       0.00000    
       862 OAC      12       OAC      LPO12    LPD     -0.383000       0.00000          -1   0.00000       0.00000    
       863 OAC      12       OAC      LPO21    LPD     -0.383000       0.00000          -1   0.00000       0.00000    
       864 OAC      12       OAC      LPO22    LPD     -0.383000       0.00000          -1   0.00000       0.00000    
       865 OAC      13       OAC      C1       CD2O2A    3.18170       11.6110           0  -1.01600      0.899000    
       866 OAC      13       OAC      DC1      DRUD     -2.47370      0.400000           0   0.00000       0.00000    
       867 OAC      13       OAC      C2       CD33A     2.98790       11.6110           0  -1.68100       1.41400    
       868 OAC      13       OAC      DC2      DRUD     -3.18190      0.400000           0   0.00000       0.00000    
       869 OAC      13       OAC      H1       HDA3A    0.400000E-02   1.00800           0   0.00000       0.00000    
       870 OAC      13       OAC      H2       HDA3A    0.400000E-02   1.00800           0   0.00000       0.00000    
       871 OAC      13       OAC      H3       HDA3A    0.400000E-02   1.00800           0   0.00000       0.00000    
       872 OAC      13       OAC      O1       OD2C2A    2.05480       15.5994           0 -0.699000       2.39900    
       873 OAC      13       OAC      DO1      DRUD     -2.05180      0.400000           0   0.00000       0.00000    
       874 OAC      13       OAC      O2       OD2C2A    2.05480       15.5994           0 -0.699000       2.39900    
       875 OAC      13       OAC      DO2      DRUD     -2.05180      0.400000           0   0.00000       0.00000    
       876 OAC      13       OAC      HO2      DUMH      0.00000       1.00800           0   0.00000       0.00000    
       877 OAC      13       OAC      HO1      DUMH      0.00000       1.00800           0   0.00000       0.00000    
       878 OAC      13       OAC      LPO11    LPD     -0.383000       0.00000          -1   0.00000       0.00000    
       879 OAC      13       OAC      LPO12    LPD     -0.383000       0.00000          -1   0.00000       0.00000    
       880 OAC      13       OAC      LPO21    LPD     -0.383000       0.00000          -1   0.00000       0.00000    
       881 OAC      13       OAC      LPO22    LPD     -0.383000       0.00000          -1   0.00000       0.00000    
       882 OAC      14       OAC      C1       CD2O2A    3.18170       11.6110           0  -1.01600      0.899000    
       883 OAC      14       OAC      DC1      DRUD     -2.47370      0.400000           0   0.00000       0.00000    
       884 OAC      14       OAC      C2       CD33A     2.98790       11.6110           0  -1.68100       1.41400    
       885 OAC      14       OAC      DC2      DRUD     -3.18190      0.400000           0   0.00000       0.00000    
       886 OAC      14       OAC      H1       HDA3A    0.400000E-02   1.00800           0   0.00000       0.00000    
       887 OAC      14       OAC      H2       HDA3A    0.400000E-02   1.00800           0   0.00000       0.00000    
       888 OAC      14       OAC      H3       HDA3A    0.400000E-02   1.00800           0   0.00000       0.00000    
       889 OAC      14       OAC      O1       OD2C2A    2.05480       15.5994           0 -0.699000       2.39900    
       890 OAC      14       OAC      DO1      DRUD     -2.05180      0.400000           0   0.00000       0.00000    
       891 OAC      14       OAC      O2       OD2C2A    2.05480       15.5994           0 -0.699000       2.39900    
       892 OAC      14       OAC      DO2      DRUD     -2.05180      0.400000           0   0.00000       0.00000    
       893 OAC      14       OAC      HO2      DUMH      0.00000       1.00800           0   0.00000       0.00000    
       894 OAC      14       OAC      HO1      DUMH      0.00000       1.00800           0   0.00000       0.00000    
       895 OAC      14       OAC      LPO11    LPD     -0.383000       0.00000          -1   0.00000       0.00000    
       896 OAC      14       OAC      LPO12    LPD     -0.383000       0.00000          -1   0.00000       0.00000    
       897 OAC      14       OAC      LPO21    LPD     -0.383000       0.00000          -1   0.00000       0.00000    
       898 OAC      14       OAC      LPO22    LPD     -0.383000       0.00000          -1   0.00000       0.00000    
       899 OAC      15       OAC      C1       CD2O2A    3.18170       11.6110           0  -1.01600      0.899000    
       900 OAC      15       OAC      DC1      DRUD     -2.47370      0.400000           0   0.00000       0.00000    
       901 OAC      15       OAC      C2       CD33A     2.98790       11.6110           0  -1.68100       1.41400    
       902 OAC      15       OAC      DC2      DRUD     -3.18190      0.400000           0   0.00000       0.00000    
       903 OAC      15       OAC      H1       HDA3A    0.400000E-02   1.00800           0   0.00000       0.00000    
       904 OAC      15       OAC      H2       HDA3A    0.400000E-02   1.00800           0   0.00000       0.00000    
       905 OAC      15       OAC      H3       HDA3A    0.400000E-02   1.00800           0   0.00000       0.00000    
       906 OAC      15       OAC      O1       OD2C2A    2.05480       15.5994           0 -0.699000       2.39900    
       907 OAC      15       OAC      DO1      DRUD     -2.05180      0.400000           0   0.00000       0.00000    
       908 OAC      15       OAC      O2       OD2C2A    2.05480       15.5994           0 -0.699000       2.39900    
       909 OAC      15       OAC      DO2      DRUD     -2.05180      0.400000           0   0.00000       0.00000    
       910 OAC      15       OAC      HO2      DUMH      0.00000       1.00800           0   0.00000       0.00000    
       911 OAC      15       OAC      HO1      DUMH      0.00000       1.00800           0   0.00000       0.00000    
       912 OAC      15       OAC      LPO11    LPD     -0.383000       0.00000          -1   0.00000       0.00000    
       913 OAC      15       OAC      LPO12    LPD     -0.383000       0.00000          -1   0.00000       0.00000    
       914 OAC      15       OAC      LPO21    LPD     -0.383000       0.00000          -1   0.00000       0.00000    
       915 OAC      15       OAC      LPO22    LPD     -0.383000       0.00000          -1   0.00000       0.00000    
       916 OAC      16       OAC      C1       CD2O2A    3.18170       11.6110           0  -1.01600      0.899000    
       917 OAC      16       OAC      DC1      DRUD     -2.47370      0.400000           0   0.00000       0.00000    
       918 OAC      16       OAC      C2       CD33A     2.98790       11.6110           0  -1.68100       1.41400    
       919 OAC      16       OAC      DC2      DRUD     -3.18190      0.400000           0   0.00000       0.00000    
       920 OAC      16       OAC      H1       HDA3A    0.400000E-02   1.00800           0   0.00000       0.00000    
       921 OAC      16       OAC      H2       HDA3A    0.400000E-02   1.00800           0   0.00000       0.00000    
       922 OAC      16       OAC      H3       HDA3A    0.400000E-02   1.00800           0   0.00000       0.00000    
       923 OAC      16       OAC      O1       OD2C2A    2.05480       15.5994           0 -0.699000       2.39900    
       924 OAC      16       OAC      DO1      DRUD     -2.05180      0.400000           0   0.00000       0.00000    
       925 OAC      16       OAC      O2       OD2C2A    2.05480       15.5994           0 -0.699000       2.39900    
       926 OAC      16       OAC      DO2      DRUD     -2.05180      0.400000           0   0.00000       0.00000    
       927 OAC      16       OAC      HO2      DUMH      0.00000       1.00800           0   0.00000       0.00000    
       928 OAC      16       OAC      HO1      DUMH      0.00000       1.00800           0   0.00000       0.00000    
       929 OAC      16       OAC      LPO11    LPD     -0.383000       0.00000          -1   0.00000       0.00000    
       930 OAC      16       OAC      LPO12    LPD     -0.383000       0.00000          -1   0.00000       0.00000    
       931 OAC      16       OAC      LPO21    LPD     -0.383000       0.00000          -1   0.00000       0.00000    
       932 OAC      16       OAC      LPO22    LPD     -0.383000       0.00000          -1   0.00000       0.00000    
       933 OAC      17       OAC      C1       CD2O2A    3.18170       11.6110           0  -1.01600      0.899000    
       934 OAC      17       OAC      DC1      DRUD     -2.47370      0.400000           0   0.00000       0.00000    
       935 OAC      17       OAC      C2       CD33A     2.98790       11.6110           0  -1.68100       1.41400    
       936 OAC      17       OAC      DC2      DRUD     -3.18190      0.400000           0   0.00000       0.00000    
       937 OAC      17       OAC      H1       HDA3A    0.400000E-02   1.00800           0   0.00000       0.00000    
       938 OAC      17       OAC      H2       HDA3A    0.400000E-02   1.00800           0   0.00000       0.00000    
       939 OAC      17       OAC      H3       HDA3A    0.400000E-02   1.00800           0   0.00000       0.00000    
       940 OAC      17       OAC      O1       OD2C2A    2.05480       15.5994           0 -0.699000       2.39900    
       941 OAC      17       OAC      DO1      DRUD     -2.05180      0.400000           0   0.00000       0.00000    
       942 OAC      17       OAC      O2       OD2C2A    2.05480       15.5994           0 -0.699000       2.39900    
       943 OAC      17       OAC      DO2      DRUD     -2.05180      0.400000           0   0.00000       0.00000    
       944 OAC      17       OAC      HO2      DUMH      0.00000       1.00800           0   0.00000       0.00000    
       945 OAC      17       OAC      HO1      DUMH      0.00000       1.00800           0   0.00000       0.00000    
       946 OAC      17       OAC      LPO11    LPD     -0.383000       0.00000          -1   0.00000       0.00000    
       947 OAC      17       OAC      LPO12    LPD     -0.383000       0.00000          -1   0.00000       0.00000    
       948 OAC      17       OAC      LPO21    LPD     -0.383000       0.00000          -1   0.00000       0.00000    
       949 OAC      17       OAC      LPO22    LPD     -0.383000       0.00000          -1   0.00000       0.00000    
       950 OAC      18       OAC      C1       CD2O2A    3.18170       11.6110           0  -1.01600      0.899000    
       951 OAC      18       OAC      DC1      DRUD     -2.47370      0.400000           0   0.00000       0.00000    
       952 OAC      18       OAC      C2       CD33A     2.98790       11.6110           0  -1.68100       1.41400    
       953 OAC      18       OAC      DC2      DRUD     -3.18190      0.400000           0   0.00000       0.00000    
       954 OAC      18       OAC      H1       HDA3A    0.400000E-02   1.00800           0   0.00000       0.00000    
       955 OAC      18       OAC      H2       HDA3A    0.400000E-02   1.00800           0   0.00000       0.00000    
       956 OAC      18       OAC      H3       HDA3A    0.400000E-02   1.00800           0   0.00000       0.00000    
       957 OAC      18       OAC      O1       OD2C2A    2.05480       15.5994           0 -0.699000       2.39900    
       958 OAC      18       OAC      DO1      DRUD     -2.05180      0.400000           0   0.00000       0.00000    
       959 OAC      18       OAC      O2       OD2C2A    2.05480       15.5994           0 -0.699000       2.39900    
       960 OAC      18       OAC      DO2      DRUD     -2.05180      0.400000           0   0.00000       0.00000    
       961 OAC      18       OAC      HO2      DUMH      0.00000       1.00800           0   0.00000       0.00000    
       962 OAC      18       OAC      HO1      DUMH      0.00000       1.00800           0   0.00000       0.00000    
       963 OAC      18       OAC      LPO11    LPD     -0.383000       0.00000          -1   0.00000       0.00000    
       964 OAC      18       OAC      LPO12    LPD     -0.383000       0.00000          -1   0.00000       0.00000    
       965 OAC      18       OAC      LPO21    LPD     -0.383000       0.00000          -1   0.00000       0.00000    
       966 OAC      18       OAC      LPO22    LPD     -0.383000       0.00000          -1   0.00000       0.00000    
       967 OAC      19       OAC      C1       CD2O2A    3.18170       11.6110           0  -1.01600      0.899000    
       968 OAC      19       OAC      DC1      DRUD     -2.47370      0.400000           0   0.00000       0.00000    
       969 OAC      19       OAC      C2       CD33A     2.98790       11.6110           0  -1.68100       1.41400    
       970 OAC      19       OAC      DC2      DRUD     -3.18190      0.400000           0   0.00000       0.00000    
       971 OAC      19       OAC      H1       HDA3A    0.400000E-02   1.00800           0   0.00000       0.00000    
       972 OAC      19       OAC      H2       HDA3A    0.400000E-02   1.00800           0   0.00000       0.00000    
       973 OAC      19       OAC      H3       HDA3A    0.400000E-02   1.00800           0   0.00000       0.00000    
       974 OAC      19       OAC      O1       OD2C2A    2.05480       15.5994           0 -0.699000       2.39900    
       975 OAC      19       OAC      DO1      DRUD     -2.05180      0.400000           0   0.00000       0.00000    
       976 OAC      19       OAC      O2       OD2C2A    2.05480       15.5994           0 -0.699000       2.39900    
       977 OAC      19       OAC      DO2      DRUD     -2.05180      0.400000           0   0.00000       0.00000    
       978 OAC      19       OAC      HO2      DUMH      0.00000       1.00800           0   0.00000       0.00000    
       979 OAC      19       OAC      HO1      DUMH      0.00000       1.00800           0   0.00000       0.00000    
       980 OAC      19       OAC      LPO11    LPD     -0.383000       0.00000          -1   0.00000       0.00000    
       981 OAC      19       OAC      LPO12    LPD     -0.383000       0.00000          -1   0.00000       0.00000    
       982 OAC      19       OAC      LPO21    LPD     -0.383000       0.00000          -1   0.00000       0.00000    
       983 OAC      19       OAC      LPO22    LPD     -0.383000       0.00000          -1   0.00000       0.00000    
       984 OAC      20       OAC      C1       CD2O2A    3.18170       11.6110           0  -1.01600      0.899000    
       985 OAC      20       OAC      DC1      DRUD     -2.47370      0.400000           0   0.00000       0.00000    
       986 OAC      20       OAC      C2       CD33A     2.98790       11.6110           0  -1.68100       1.41400    
       987 OAC      20       OAC      DC2      DRUD     -3.18190      0.400000           0   0.00000       0.00000    
       988 OAC      20       OAC      H1       HDA3A    0.400000E-02   1.00800           0   0.00000       0.00000    
       989 OAC      20       OAC      H2       HDA3A    0.400000E-02   1.00800           0   0.00000       0.00000    
       990 OAC      20       OAC      H3       HDA3A    0.400000E-02   1.00800           0   0.00000       0.00000    
       991 OAC      20       OAC      O1       OD2C2A    2.05480       15.5994           0 -0.699000       2.39900    
       992 OAC      20       OAC      DO1      DRUD     -2.05180      0.400000           0   0.00000       0.00000    
       993 OAC      20       OAC      O2       OD2C2A    2.05480       15.5994           0 -0.699000       2.39900    
       994 OAC      20       OAC      DO2      DRUD     -2.05180      0.400000           0   0.00000       0.00000    
       995 OAC      20       OAC      HO2      DUMH      0.00000       1.00800           0   0.00000       0.00000    
       996 OAC      20       OAC      HO1      DUMH      0.00000       1.00800           0   0.00000       0.00000    
       997 OAC      20       OAC      LPO11    LPD     -0.383000       0.00000          -1   0.00000       0.00000    
       998 OAC      20       OAC      LPO12    LPD     -0.383000       0.00000          -1   0.00000       0.00000    
       999 OAC      20       OAC      LPO21    LPD     -0.383000       0.00000          -1   0.00000       0.00000    
      1000 OAC      20       OAC      LPO22    LPD     -0.383000       0.00000          -1   0.00000       0.00000    
      1001 OAC      21       OAC      C1       CD2O2A    3.18170       11.6110           0  -1.01600      0.899000    
      1002 OAC      21       OAC      DC1      DRUD     -2.47370      0.400000           0   0.00000       0.00000    
      1003 OAC      21       OAC      C2       CD33A     2.98790       11.6110           0  -1.68100       1.41400    
      1004 OAC      21       OAC      DC2      DRUD     -3.18190      0.400000           0   0.00000       0.00000    
      1005 OAC      21       OAC      H1       HDA3A    0.400000E-02   1.00800           0   0.00000       0.00000    
      1006 OAC      21       OAC      H2       HDA3A    0.400000E-02   1.00800           0   0.00000       0.00000    
      1007 OAC      21       OAC      H3       HDA3A    0.400000E-02   1.00800           0   0.00000       0.00000    
      1008 OAC      21       OAC      O1       OD2C2A    2.05480       15.5994           0 -0.699000       2.39900    
      1009 OAC      21       OAC      DO1      DRUD     -2.05180      0.400000           0   0.00000       0.00000    
      1010 OAC      21       OAC      O2       OD2C2A    2.05480       15.5994           0 -0.699000       2.39900    
      1011 OAC      21       OAC      DO2      DRUD     -2.05180      0.400000           0   0.00000       0.00000    
      1012 OAC      21       OAC      HO2      DUMH      0.00000       1.00800           0   0.00000       0.00000    
      1013 OAC      21       OAC      HO1      DUMH      0.00000       1.00800           0   0.00000       0.00000    
      1014 OAC      21       OAC      LPO11    LPD     -0.383000       0.00000          -1   0.00000       0.00000    
      1015 OAC      21       OAC      LPO12    LPD     -0.383000       0.00000          -1   0.00000       0.00000    
      1016 OAC      21       OAC      LPO21    LPD     -0.383000       0.00000          -1   0.00000       0.00000    
      1017 OAC      21       OAC      LPO22    LPD     -0.383000       0.00000          -1   0.00000       0.00000    
      1018 OAC      22       OAC      C1       CD2O2A    3.18170       11.6110           0  -1.01600      0.899000    
      1019 OAC      22       OAC      DC1      DRUD     -2.47370      0.400000           0   0.00000       0.00000    
      1020 OAC      22       OAC      C2       CD33A     2.98790       11.6110           0  -1.68100       1.41400    
      1021 OAC      22       OAC      DC2      DRUD     -3.18190      0.400000           0   0.00000       0.00000    
      1022 OAC      22       OAC      H1       HDA3A    0.400000E-02   1.00800           0   0.00000       0.00000    
      1023 OAC      22       OAC      H2       HDA3A    0.400000E-02   1.00800           0   0.00000       0.00000    
      1024 OAC      22       OAC      H3       HDA3A    0.400000E-02   1.00800           0   0.00000       0.00000    
      1025 OAC      22       OAC      O1       OD2C2A    2.05480       15.5994           0 -0.699000       2.39900    
      1026 OAC      22       OAC      DO1      DRUD     -2.05180      0.400000           0   0.00000       0.00000    
      1027 OAC      22       OAC      O2       OD2C2A    2.05480       15.5994           0 -0.699000       2.39900    
      1028 OAC      22       OAC      DO2      DRUD     -2.05180      0.400000           0   0.00000       0.00000    
      1029 OAC      22       OAC      HO2      DUMH      0.00000       1.00800           0   0.00000       0.00000    
      1030 OAC      22       OAC      HO1      DUMH      0.00000       1.00800           0   0.00000       0.00000    
      1031 OAC      22       OAC      LPO11    LPD     -0.383000       0.00000          -1   0.00000       0.00000    
      1032 OAC      22       OAC      LPO12    LPD     -0.383000       0.00000          -1   0.00000       0.00000    
      1033 OAC      22       OAC      LPO21    LPD     -0.383000       0.00000          -1   0.00000       0.00000    
      1034 OAC      22       OAC      LPO22    LPD     -0.383000       0.00000          -1   0.00000       0.00000    
      1035 OAC      23       OAC      C1       CD2O2A    3.18170       11.6110           0  -1.01600      0.899000    
      1036 OAC      23       OAC      DC1      DRUD     -2.47370      0.400000           0   0.00000       0.00000    
      1037 OAC      23       OAC      C2       CD33A     2.98790       11.6110           0  -1.68100       1.41400    
      1038 OAC      23       OAC      DC2      DRUD     -3.18190      0.400000           0   0.00000       0.00000    
      1039 OAC      23       OAC      H1       HDA3A    0.400000E-02   1.00800           0   0.00000       0.00000    
      1040 OAC      23       OAC      H2       HDA3A    0.400000E-02   1.00800           0   0.00000       0.00000    
      1041 OAC      23       OAC      H3       HDA3A    0.400000E-02   1.00800           0   0.00000       0.00000    
      1042 OAC      23       OAC      O1       OD2C2A    2.05480       15.5994           0 -0.699000       2.39900    
      1043 OAC      23       OAC      DO1      DRUD     -2.05180      0.400000           0   0.00000       0.00000    
      1044 OAC      23       OAC      O2       OD2C2A    2.05480       15.5994           0 -0.699000       2.39900    
      1045 OAC      23       OAC      DO2      DRUD     -2.05180      0.400000           0   0.00000       0.00000    
      1046 OAC      23       OAC      HO2      DUMH      0.00000       1.00800           0   0.00000       0.00000    
      1047 OAC      23       OAC      HO1      DUMH      0.00000       1.00800           0   0.00000       0.00000    
      1048 OAC      23       OAC      LPO11    LPD     -0.383000       0.00000          -1   0.00000       0.00000    
      1049 OAC      23       OAC      LPO12    LPD     -0.383000       0.00000          -1   0.00000       0.00000    
      1050 OAC      23       OAC      LPO21    LPD     -0.383000       0.00000          -1   0.00000       0.00000    
      1051 OAC      23       OAC      LPO22    LPD     -0.383000       0.00000          -1   0.00000       0.00000    
      1052 OAC      24       OAC      C1       CD2O2A    3.18170       11.6110           0  -1.01600      0.899000    
      1053 OAC      24       OAC      DC1      DRUD     -2.47370      0.400000           0   0.00000       0.00000    
      1054 OAC      24       OAC      C2       CD33A     2.98790       11.6110           0  -1.68100       1.41400    
      1055 OAC      24       OAC      DC2      DRUD     -3.18190      0.400000           0   0.00000       0.00000    
      1056 OAC      24       OAC      H1       HDA3A    0.400000E-02   1.00800           0   0.00000       0.00000    
      1057 OAC      24       OAC      H2       HDA3A    0.400000E-02   1.00800           0   0.00000       0.00000    
      1058 OAC      24       OAC      H3       HDA3A    0.400000E-02   1.00800           0   0.00000       0.00000    
      1059 OAC      24       OAC      O1       OD2C2A    2.05480       15.5994           0 -0.699000       2.39900    
      1060 OAC      24       OAC      DO1      DRUD     -2.05180      0.400000           0   0.00000       0.00000    
      1061 OAC      24       OAC      O2       OD2C2A    2.05480       15.5994           0 -0.699000       2.39900    
      1062 OAC      24       OAC      DO2      DRUD     -2.05180      0.400000           0   0.00000       0.00000    
      1063 OAC      24       OAC      HO2      DUMH      0.00000       1.00800           0   0.00000       0.00000    
      1064 OAC      24       OAC      HO1      DUMH      0.00000       1.00800           0   0.00000       0.00000    
      1065 OAC      24       OAC      LPO11    LPD     -0.383000       0.00000          -1   0.00000       0.00000    
      1066 OAC      24       OAC      LPO12    LPD     -0.383000       0.00000          -1   0.00000       0.00000    
      1067 OAC      24       OAC      LPO21    LPD     -0.383000       0.00000          -1   0.00000       0.00000    
      1068 OAC      24       OAC      LPO22    LPD     -0.383000       0.00000          -1   0.00000       0.00000    
      1069 OAC      25       OAC      C1       CD2O2A    3.18170       11.6110           0  -1.01600      0.899000    
      1070 OAC      25       OAC      DC1      DRUD     -2.47370      0.400000           0   0.00000       0.00000    
      1071 OAC      25       OAC      C2       CD33A     2.98790       11.6110           0  -1.68100       1.41400    
      1072 OAC      25       OAC      DC2      DRUD     -3.18190      0.400000           0   0.00000       0.00000    
      1073 OAC      25       OAC      H1       HDA3A    0.400000E-02   1.00800           0   0.00000       0.00000    
      1074 OAC      25       OAC      H2       HDA3A    0.400000E-02   1.00800           0   0.00000       0.00000    
      1075 OAC      25       OAC      H3       HDA3A    0.400000E-02   1.00800           0   0.00000       0.00000    
      1076 OAC      25       OAC      O1       OD2C2A    2.05480       15.5994           0 -0.699000       2.39900    
      1077 OAC      25       OAC      DO1      DRUD     -2.05180      0.400000           0   0.00000       0.00000    
      1078 OAC      25       OAC      O2       OD2C2A    2.05480       15.5994           0 -0.699000       2.39900    
      1079 OAC      25       OAC      DO2      DRUD     -2.05180      0.400000           0   0.00000       0.00000    
      1080 OAC      25       OAC      HO2      DUMH      0.00000       1.00800           0   0.00000       0.00000    
      1081 OAC      25       OAC      HO1      DUMH      0.00000       1.00800           0   0.00000       0.00000    
      1082 OAC      25       OAC      LPO11    LPD     -0.383000       0.00000          -1   0.00000       0.00000    
      1083 OAC      25       OAC      LPO12    LPD     -0.383000       0.00000          -1   0.00000       0.00000    
      1084 OAC      25       OAC      LPO21    LPD     -0.383000       0.00000          -1   0.00000       0.00000    
      1085 OAC      25       OAC      LPO22    LPD     -0.383000       0.00000          -1   0.00000       0.00000    
      1086 OAC      26       OAC      C1       CD2O2A    3.18170       11.6110           0  -1.01600      0.899000    
      1087 OAC      26       OAC      DC1      DRUD     -2.47370      0.400000           0   0.00000       0.00000    
      1088 OAC      26       OAC      C2       CD33A     2.98790       11.6110           0  -1.68100       1.41400    
      1089 OAC      26       OAC      DC2      DRUD     -3.18190      0.400000           0   0.00000       0.00000    
      1090 OAC      26       OAC      H1       HDA3A    0.400000E-02   1.00800           0   0.00000       0.00000    
      1091 OAC      26       OAC      H2       HDA3A    0.400000E-02   1.00800           0   0.00000       0.00000    
      1092 OAC      26       OAC      H3       HDA3A    0.400000E-02   1.00800           0   0.00000       0.00000    
      1093 OAC      26       OAC      O1       OD2C2A    2.05480       15.5994           0 -0.699000       2.39900    
      1094 OAC      26       OAC      DO1      DRUD     -2.05180      0.400000           0   0.00000       0.00000    
      1095 OAC      26       OAC      O2       OD2C2A    2.05480       15.5994           0 -0.699000       2.39900    
      1096 OAC      26       OAC      DO2      DRUD     -2.05180      0.400000           0   0.00000       0.00000    
      1097 OAC      26       OAC      HO2      DUMH      0.00000       1.00800           0   0.00000       0.00000    
      1098 OAC      26       OAC      HO1      DUMH      0.00000       1.00800           0   0.00000       0.00000    
      1099 OAC      26       OAC      LPO11    LPD     -0.383000       0.00000          -1   0.00000       0.00000    
      1100 OAC      26       OAC      LPO12    LPD     -0.383000       0.00000          -1   0.00000       0.00000    
      1101 OAC      26       OAC      LPO21    LPD     -0.383000       0.00000          -1   0.00000       0.00000    
      1102 OAC      26       OAC      LPO22    LPD     -0.383000       0.00000          -1   0.00000       0.00000    
      1103 OAC      27       OAC      C1       CD2O2A    3.18170       11.6110           0  -1.01600      0.899000    
      1104 OAC      27       OAC      DC1      DRUD     -2.47370      0.400000           0   0.00000       0.00000    
      1105 OAC      27       OAC      C2       CD33A     2.98790       11.6110           0  -1.68100       1.41400    
      1106 OAC      27       OAC      DC2      DRUD     -3.18190      0.400000           0   0.00000       0.00000    
      1107 OAC      27       OAC      H1       HDA3A    0.400000E-02   1.00800           0   0.00000       0.00000    
      1108 OAC      27       OAC      H2       HDA3A    0.400000E-02   1.00800           0   0.00000       0.00000    
      1109 OAC      27       OAC      H3       HDA3A    0.400000E-02   1.00800           0   0.00000       0.00000    
      1110 OAC      27       OAC      O1       OD2C2A    2.05480       15.5994           0 -0.699000       2.39900    
      1111 OAC      27       OAC      DO1      DRUD     -2.05180      0.400000           0   0.00000       0.00000    
      1112 OAC      27       OAC      O2       OD2C2A    2.05480       15.5994           0 -0.699000       2.39900    
      1113 OAC      27       OAC      DO2      DRUD     -2.05180      0.400000           0   0.00000       0.00000    
      1114 OAC      27       OAC      HO2      DUMH      0.00000       1.00800           0   0.00000       0.00000    
      1115 OAC      27       OAC      HO1      DUMH      0.00000       1.00800           0   0.00000       0.00000    
      1116 OAC      27       OAC      LPO11    LPD     -0.383000       0.00000          -1   0.00000       0.00000    
      1117 OAC      27       OAC      LPO12    LPD     -0.383000       0.00000          -1   0.00000       0.00000    
      1118 OAC      27       OAC      LPO21    LPD     -0.383000       0.00000          -1   0.00000       0.00000    
      1119 OAC      27       OAC      LPO22    LPD     -0.383000       0.00000          -1   0.00000       0.00000    
      1120 OAC      28       OAC      C1       CD2O2A    3.18170       11.6110           0  -1.01600      0.899000    
      1121 OAC      28       OAC      DC1      DRUD     -2.47370      0.400000           0   0.00000       0.00000    
      1122 OAC      28       OAC      C2       CD33A     2.98790       11.6110           0  -1.68100       1.41400    
      1123 OAC      28       OAC      DC2      DRUD     -3.18190      0.400000           0   0.00000       0.00000    
      1124 OAC      28       OAC      H1       HDA3A    0.400000E-02   1.00800           0   0.00000       0.00000    
      1125 OAC      28       OAC      H2       HDA3A    0.400000E-02   1.00800           0   0.00000       0.00000    
      1126 OAC      28       OAC      H3       HDA3A    0.400000E-02   1.00800           0   0.00000       0.00000    
      1127 OAC      28       OAC      O1       OD2C2A    2.05480       15.5994           0 -0.699000       2.39900    
      1128 OAC      28       OAC      DO1      DRUD     -2.05180      0.400000           0   0.00000       0.00000    
      1129 OAC      28       OAC      O2       OD2C2A    2.05480       15.5994           0 -0.699000       2.39900    
      1130 OAC      28       OAC      DO2      DRUD     -2.05180      0.400000           0   0.00000       0.00000    
      1131 OAC      28       OAC      HO2      DUMH      0.00000       1.00800           0   0.00000       0.00000    
      1132 OAC      28       OAC      HO1      DUMH      0.00000       1.00800           0   0.00000       0.00000    
      1133 OAC      28       OAC      LPO11    LPD     -0.383000       0.00000          -1   0.00000       0.00000    
      1134 OAC      28       OAC      LPO12    LPD     -0.383000       0.00000          -1   0.00000       0.00000    
      1135 OAC      28       OAC      LPO21    LPD     -0.383000       0.00000          -1   0.00000       0.00000    
      1136 OAC      28       OAC      LPO22    LPD     -0.383000       0.00000          -1   0.00000       0.00000    
      1137 OAC      29       OAC      C1       CD2O2A    3.18170       11.6110           0  -1.01600      0.899000    
      1138 OAC      29       OAC      DC1      DRUD     -2.47370      0.400000           0   0.00000       0.00000    
      1139 OAC      29       OAC      C2       CD33A     2.98790       11.6110           0  -1.68100       1.41400    
      1140 OAC      29       OAC      DC2      DRUD     -3.18190      0.400000           0   0.00000       0.00000    
      1141 OAC      29       OAC      H1       HDA3A    0.400000E-02   1.00800           0   0.00000       0.00000    
      1142 OAC      29       OAC      H2       HDA3A    0.400000E-02   1.00800           0   0.00000       0.00000    
      1143 OAC      29       OAC      H3       HDA3A    0.400000E-02   1.00800           0   0.00000       0.00000    
      1144 OAC      29       OAC      O1       OD2C2A    2.05480       15.5994           0 -0.699000       2.39900    
      1145 OAC      29       OAC      DO1      DRUD     -2.05180      0.400000           0   0.00000       0.00000    
      1146 OAC      29       OAC      O2       OD2C2A    2.05480       15.5994           0 -0.699000       2.39900    
      1147 OAC      29       OAC      DO2      DRUD     -2.05180      0.400000           0   0.00000       0.00000    
      1148 OAC      29       OAC      HO2      DUMH      0.00000       1.00800           0   0.00000       0.00000    
      1149 OAC      29       OAC      HO1      DUMH      0.00000       1.00800           0   0.00000       0.00000    
      1150 OAC      29       OAC      LPO11    LPD     -0.383000       0.00000          -1   0.00000       0.00000    
      1151 OAC      29       OAC      LPO12    LPD     -0.383000       0.00000          -1   0.00000       0.00000    
      1152 OAC      29       OAC      LPO21    LPD     -0.383000       0.00000          -1   0.00000       0.00000    
      1153 OAC      29       OAC      LPO22    LPD     -0.383000       0.00000          -1   0.00000       0.00000    
      1154 OAC      30       OAC      C1       CD2O2A    3.18170       11.6110           0  -1.01600      0.899000    
      1155 OAC      30       OAC      DC1      DRUD     -2.47370      0.400000           0   0.00000       0.00000    
      1156 OAC      30       OAC      C2       CD33A     2.98790       11.6110           0  -1.68100       1.41400    
      1157 OAC      30       OAC      DC2      DRUD     -3.18190      0.400000           0   0.00000       0.00000    
      1158 OAC      30       OAC      H1       HDA3A    0.400000E-02   1.00800           0   0.00000       0.00000    
      1159 OAC      30       OAC      H2       HDA3A    0.400000E-02   1.00800           0   0.00000       0.00000    
      1160 OAC      30       OAC      H3       HDA3A    0.400000E-02   1.00800           0   0.00000       0.00000    
      1161 OAC      30       OAC      O1       OD2C2A    2.05480       15.5994           0 -0.699000       2.39900    
      1162 OAC      30       OAC      DO1      DRUD     -2.05180      0.400000           0   0.00000       0.00000    
      1163 OAC      30       OAC      O2       OD2C2A    2.05480       15.5994           0 -0.699000       2.39900    
      1164 OAC      30       OAC      DO2      DRUD     -2.05180      0.400000           0   0.00000       0.00000    
      1165 OAC      30       OAC      HO2      DUMH      0.00000       1.00800           0   0.00000       0.00000    
      1166 OAC      30       OAC      HO1      DUMH      0.00000       1.00800           0   0.00000       0.00000    
      1167 OAC      30       OAC      LPO11    LPD     -0.383000       0.00000          -1   0.00000       0.00000    
      1168 OAC      30       OAC      LPO12    LPD     -0.383000       0.00000          -1   0.00000       0.00000    
      1169 OAC      30       OAC      LPO21    LPD     -0.383000       0.00000          -1   0.00000       0.00000    
      1170 OAC      30       OAC      LPO22    LPD     -0.383000       0.00000          -1   0.00000       0.00000    
      1171 OAC      31       OAC      C1       CD2O2A    3.18170       11.6110           0  -1.01600      0.899000    
      1172 OAC      31       OAC      DC1      DRUD     -2.47370      0.400000           0   0.00000       0.00000    
      1173 OAC      31       OAC      C2       CD33A     2.98790       11.6110           0  -1.68100       1.41400    
      1174 OAC      31       OAC      DC2      DRUD     -3.18190      0.400000           0   0.00000       0.00000    
      1175 OAC      31       OAC      H1       HDA3A    0.400000E-02   1.00800           0   0.00000       0.00000    
      1176 OAC      31       OAC      H2       HDA3A    0.400000E-02   1.00800           0   0.00000       0.00000    
      1177 OAC      31       OAC      H3       HDA3A    0.400000E-02   1.00800           0   0.00000       0.00000    
      1178 OAC      31       OAC      O1       OD2C2A    2.05480       15.5994           0 -0.699000       2.39900    
      1179 OAC      31       OAC      DO1      DRUD     -2.05180      0.400000           0   0.00000       0.00000    
      1180 OAC      31       OAC      O2       OD2C2A    2.05480       15.5994           0 -0.699000       2.39900    
      1181 OAC      31       OAC      DO2      DRUD     -2.05180      0.400000           0   0.00000       0.00000    
      1182 OAC      31       OAC      HO2      DUMH      0.00000       1.00800           0   0.00000       0.00000    
      1183 OAC      31       OAC      HO1      DUMH      0.00000       1.00800           0   0.00000       0.00000    
      1184 OAC      31       OAC      LPO11    LPD     -0.383000       0.00000          -1   0.00000       0.00000    
      1185 OAC      31       OAC      LPO12    LPD     -0.383000       0.00000          -1   0.00000       0.00000    
      1186 OAC      31       OAC      LPO21    LPD     -0.383000       0.00000          -1   0.00000       0.00000    
      1187 OAC      31       OAC      LPO22    LPD     -0.383000       0.00000          -1   0.00000       0.00000    
      1188 OAC      32       OAC      C1       CD2O2A    3.18170       11.6110           0  -1.01600      0.899000    
      1189 OAC      32       OAC      DC1      DRUD     -2.47370      0.400000           0   0.00000       0.00000    
      1190 OAC      32       OAC      C2       CD33A     2.98790       11.6110           0  -1.68100       1.41400    
      1191 OAC      32       OAC      DC2      DRUD     -3.18190      0.400000           0   0.00000       0.00000    
      1192 OAC      32       OAC      H1       HDA3A    0.400000E-02   1.00800           0   0.00000       0.00000    
      1193 OAC      32       OAC      H2       HDA3A    0.400000E-02   1.00800           0   0.00000       0.00000    
      1194 OAC      32       OAC      H3       HDA3A    0.400000E-02   1.00800           0   0.00000       0.00000    
      1195 OAC      32       OAC      O1       OD2C2A    2.05480       15.5994           0 -0.699000       2.39900    
      1196 OAC      32       OAC      DO1      DRUD     -2.05180      0.400000           0   0.00000       0.00000    
      1197 OAC      32       OAC      O2       OD2C2A    2.05480       15.5994           0 -0.699000       2.39900    
      1198 OAC      32       OAC      DO2      DRUD     -2.05180      0.400000           0   0.00000       0.00000    
      1199 OAC      32       OAC      HO2      DUMH      0.00000       1.00800           0   0.00000       0.00000    
      1200 OAC      32       OAC      HO1      DUMH      0.00000       1.00800           0   0.00000       0.00000    
      1201 OAC      32       OAC      LPO11    LPD     -0.383000       0.00000          -1   0.00000       0.00000    
      1202 OAC      32       OAC      LPO12    LPD     -0.383000       0.00000          -1   0.00000       0.00000    
      1203 OAC      32       OAC      LPO21    LPD     -0.383000       0.00000          -1   0.00000       0.00000    
      1204 OAC      32       OAC      LPO22    LPD     -0.383000       0.00000          -1   0.00000       0.00000    
      1205 OAC      33       OAC      C1       CD2O2A    3.18170       11.6110           0  -1.01600      0.899000    
      1206 OAC      33       OAC      DC1      DRUD     -2.47370      0.400000           0   0.00000       0.00000    
      1207 OAC      33       OAC      C2       CD33A     2.98790       11.6110           0  -1.68100       1.41400    
      1208 OAC      33       OAC      DC2      DRUD     -3.18190      0.400000           0   0.00000       0.00000    
      1209 OAC      33       OAC      H1       HDA3A    0.400000E-02   1.00800           0   0.00000       0.00000    
      1210 OAC      33       OAC      H2       HDA3A    0.400000E-02   1.00800           0   0.00000       0.00000    
      1211 OAC      33       OAC      H3       HDA3A    0.400000E-02   1.00800           0   0.00000       0.00000    
      1212 OAC      33       OAC      O1       OD2C2A    2.05480       15.5994           0 -0.699000       2.39900    
      1213 OAC      33       OAC      DO1      DRUD     -2.05180      0.400000           0   0.00000       0.00000    
      1214 OAC      33       OAC      O2       OD2C2A    2.05480       15.5994           0 -0.699000       2.39900    
      1215 OAC      33       OAC      DO2      DRUD     -2.05180      0.400000           0   0.00000       0.00000    
      1216 OAC      33       OAC      HO2      DUMH      0.00000       1.00800           0   0.00000       0.00000    
      1217 OAC      33       OAC      HO1      DUMH      0.00000       1.00800           0   0.00000       0.00000    
      1218 OAC      33       OAC      LPO11    LPD     -0.383000       0.00000          -1   0.00000       0.00000    
      1219 OAC      33       OAC      LPO12    LPD     -0.383000       0.00000          -1   0.00000       0.00000    
      1220 OAC      33       OAC      LPO21    LPD     -0.383000       0.00000          -1   0.00000       0.00000    
      1221 OAC      33       OAC      LPO22    LPD     -0.383000       0.00000          -1   0.00000       0.00000    
      1222 IM1      1        IM1      C1       CD33G     2.39060       11.6110           0  -1.08100       1.00000    
      1223 IM1      1        IM1      DC1      DRUD     -2.55160      0.400000           0   0.00000       0.00000    
      1224 IM1      1        IM1      H1       HDA3A    0.940000E-01   1.00800           0   0.00000       0.00000    
      1225 IM1      1        IM1      H2       HDA3A    0.940000E-01   1.00800           0   0.00000       0.00000    
      1226 IM1      1        IM1      H3       HDA3A    0.940000E-01   1.00800           0   0.00000       0.00000    
      1227 IM1      1        IM1      N1       ND2R5A    2.67030       13.6070           0  -1.06300       1.30000    
      1228 IM1      1        IM1      DN1      DRUD     -2.53030      0.400000           0   0.00000       0.00000    
      1229 IM1      1        IM1      C2       CD2R5A    2.51190       11.6110           0  -1.37800       1.30000    
      1230 IM1      1        IM1      DC2      DRUD     -2.88090      0.400000           0   0.00000       0.00000    
      1231 IM1      1        IM1      H4       HDR5A    0.150000       1.00800           0   0.00000       0.00000    
      1232 IM1      1        IM1      C3       CD2R5A    3.06890       11.6110           0  -1.37800       1.30000    
      1233 IM1      1        IM1      DC3      DRUD     -2.88090      0.400000           0   0.00000       0.00000    
      1234 IM1      1        IM1      H5       HDR5A    0.530000E-01   1.00800           0   0.00000       0.00000    
      1235 IM1      1        IM1      C4       CD2R5B    2.40440       11.6110           0 -0.868000       1.30000    
      1236 IM1      1        IM1      DC4      DRUD     -2.28640      0.400000           0   0.00000       0.00000    
      1237 IM1      1        IM1      H6       HDR5B    0.730000E-01   1.00800           0   0.00000       0.00000    
      1238 IM1      1        IM1      N2       ND2R5B    2.24930       13.6070           0 -0.840000       1.00000    
      1239 IM1      1        IM1      DN2      DRUD     -2.24930      0.400000           0   0.00000       0.00000    
      1240 IM1      1        IM1      H7       DUMH      0.00000       1.00800           0   0.00000       0.00000    
      1241 IM1      1        IM1      LPN21    LPD     -0.474000       0.00000          -1   0.00000       0.00000    
      1242 IM1      2        IM1      C1       CD33G     2.39060       11.6110           0  -1.08100       1.00000    
      1243 IM1      2        IM1      DC1      DRUD     -2.55160      0.400000           0   0.00000       0.00000    
      1244 IM1      2        IM1      H1       HDA3A    0.940000E-01   1.00800           0   0.00000       0.00000    
      1245 IM1      2        IM1      H2       HDA3A    0.940000E-01   1.00800           0   0.00000       0.00000    
      1246 IM1      2        IM1      H3       HDA3A    0.940000E-01   1.00800           0   0.00000       0.00000    
      1247 IM1      2        IM1      N1       ND2R5A    2.67030       13.6070           0  -1.06300       1.30000    
      1248 IM1      2        IM1      DN1      DRUD     -2.53030      0.400000           0   0.00000       0.00000    
      1249 IM1      2        IM1      C2       CD2R5A    2.51190       11.6110           0  -1.37800       1.30000    
      1250 IM1      2        IM1      DC2      DRUD     -2.88090      0.400000           0   0.00000       0.00000    
      1251 IM1      2        IM1      H4       HDR5A    0.150000       1.00800           0   0.00000       0.00000    
      1252 IM1      2        IM1      C3       CD2R5A    3.06890       11.6110           0  -1.37800       1.30000    
      1253 IM1      2        IM1      DC3      DRUD     -2.88090      0.400000           0   0.00000       0.00000    
      1254 IM1      2        IM1      H5       HDR5A    0.530000E-01   1.00800           0   0.00000       0.00000    
      1255 IM1      2        IM1      C4       CD2R5B    2.40440       11.6110           0 -0.868000       1.30000    
      1256 IM1      2        IM1      DC4      DRUD     -2.28640      0.400000           0   0.00000       0.00000    
      1257 IM1      2        IM1      H6       HDR5B    0.730000E-01   1.00800           0   0.00000       0.00000    
      1258 IM1      2        IM1      N2       ND2R5B    2.24930       13.6070           0 -0.840000       1.00000    
      1259 IM1      2        IM1      DN2      DRUD     -2.24930      0.400000           0   0.00000       0.00000    
      1260 IM1      2        IM1      H7       DUMH      0.00000       1.00800           0   0.00000       0.00000    
      1261 IM1      2        IM1      LPN21    LPD     -0.474000       0.00000          -1   0.00000       0.00000    
      1262 IM1      3        IM1      C1       CD33G     2.39060       11.6110           0  -1.08100       1.00000    
      1263 IM1      3        IM1      DC1      DRUD     -2.55160      0.400000           0   0.00000       0.00000    
      1264 IM1      3        IM1      H1       HDA3A    0.940000E-01   1.00800           0   0.00000       0.00000    
      1265 IM1      3        IM1      H2       HDA3A    0.940000E-01   1.00800           0   0.00000       0.00000    
      1266 IM1      3        IM1      H3       HDA3A    0.940000E-01   1.00800           0   0.00000       0.00000    
      1267 IM1      3        IM1      N1       ND2R5A    2.67030       13.6070           0  -1.06300       1.30000    
      1268 IM1      3        IM1      DN1      DRUD     -2.53030      0.400000           0   0.00000       0.00000    
      1269 IM1      3        IM1      C2       CD2R5A    2.51190       11.6110           0  -1.37800       1.30000    
      1270 IM1      3        IM1      DC2      DRUD     -2.88090      0.400000           0   0.00000       0.00000    
      1271 IM1      3        IM1      H4       HDR5A    0.150000       1.00800           0   0.00000       0.00000    
      1272 IM1      3        IM1      C3       CD2R5A    3.06890       11.6110           0  -1.37800       1.30000    
      1273 IM1      3        IM1      DC3      DRUD     -2.88090      0.400000           0   0.00000       0.00000    
      1274 IM1      3        IM1      H5       HDR5A    0.530000E-01   1.00800           0   0.00000       0.00000    
      1275 IM1      3        IM1      C4       CD2R5B    2.40440       11.6110           0 -0.868000       1.30000    
      1276 IM1      3        IM1      DC4      DRUD     -2.28640      0.400000           0   0.00000       0.00000    
      1277 IM1      3        IM1      H6       HDR5B    0.730000E-01   1.00800           0   0.00000       0.00000    
      1278 IM1      3        IM1      N2       ND2R5B    2.24930       13.6070           0 -0.840000       1.00000    
      1279 IM1      3        IM1      DN2      DRUD     -2.24930      0.400000           0   0.00000       0.00000    
      1280 IM1      3        IM1      H7       DUMH      0.00000       1.00800           0   0.00000       0.00000    
      1281 IM1      3        IM1      LPN21    LPD     -0.474000       0.00000          -1   0.00000       0.00000    
      1282 IM1      4        IM1      C1       CD33G     2.39060       11.6110           0  -1.08100       1.00000    
      1283 IM1      4        IM1      DC1      DRUD     -2.55160      0.400000           0   0.00000       0.00000    
      1284 IM1      4        IM1      H1       HDA3A    0.940000E-01   1.00800           0   0.00000       0.00000    
      1285 IM1      4        IM1      H2       HDA3A    0.940000E-01   1.00800           0   0.00000       0.00000    
      1286 IM1      4        IM1      H3       HDA3A    0.940000E-01   1.00800           0   0.00000       0.00000    
      1287 IM1      4        IM1      N1       ND2R5A    2.67030       13.6070           0  -1.06300       1.30000    
      1288 IM1      4        IM1      DN1      DRUD     -2.53030      0.400000           0   0.00000       0.00000    
      1289 IM1      4        IM1      C2       CD2R5A    2.51190       11.6110           0  -1.37800       1.30000    
      1290 IM1      4        IM1      DC2      DRUD     -2.88090      0.400000           0   0.00000       0.00000    
      1291 IM1      4        IM1      H4       HDR5A    0.150000       1.00800           0   0.00000       0.00000    
      1292 IM1      4        IM1      C3       CD2R5A    3.06890       11.6110           0  -1.37800       1.30000    
      1293 IM1      4        IM1      DC3      DRUD     -2.88090      0.400000           0   0.00000       0.00000    
      1294 IM1      4        IM1      H5       HDR5A    0.530000E-01   1.00800           0   0.00000       0.00000    
      1295 IM1      4        IM1      C4       CD2R5B    2.40440       11.6110           0 -0.868000       1.30000    
      1296 IM1      4        IM1      DC4      DRUD     -2.28640      0.400000           0   0.00000       0.00000    
      1297 IM1      4        IM1      H6       HDR5B    0.730000E-01   1.00800           0   0.00000       0.00000    
      1298 IM1      4        IM1      N2       ND2R5B    2.24930       13.6070           0 -0.840000       1.00000    
      1299 IM1      4        IM1      DN2      DRUD     -2.24930      0.400000           0   0.00000       0.00000    
      1300 IM1      4        IM1      H7       DUMH      0.00000       1.00800           0   0.00000       0.00000    
      1301 IM1      4        IM1      LPN21    LPD     -0.474000       0.00000          -1   0.00000       0.00000    
      1302 IM1      5        IM1      C1       CD33G     2.39060       11.6110           0  -1.08100       1.00000    
      1303 IM1      5        IM1      DC1      DRUD     -2.55160      0.400000           0   0.00000       0.00000    
      1304 IM1      5        IM1      H1       HDA3A    0.940000E-01   1.00800           0   0.00000       0.00000    
      1305 IM1      5        IM1      H2       HDA3A    0.940000E-01   1.00800           0   0.00000       0.00000    
      1306 IM1      5        IM1      H3       HDA3A    0.940000E-01   1.00800           0   0.00000       0.00000    
      1307 IM1      5        IM1      N1       ND2R5A    2.67030       13.6070           0  -1.06300       1.30000    
      1308 IM1      5        IM1      DN1      DRUD     -2.53030      0.400000           0   0.00000       0.00000    
      1309 IM1      5        IM1      C2       CD2R5A    2.51190       11.6110           0  -1.37800       1.30000    
      1310 IM1      5        IM1      DC2      DRUD     -2.88090      0.400000           0   0.00000       0.00000    
      1311 IM1      5        IM1      H4       HDR5A    0.150000       1.00800           0   0.00000       0.00000    
      1312 IM1      5        IM1      C3       CD2R5A    3.06890       11.6110           0  -1.37800       1.30000    
      1313 IM1      5        IM1      DC3      DRUD     -2.88090      0.400000           0   0.00000       0.00000    
      1314 IM1      5        IM1      H5       HDR5A    0.530000E-01   1.00800           0   0.00000       0.00000    
      1315 IM1      5        IM1      C4       CD2R5B    2.40440       11.6110           0 -0.868000       1.30000    
      1316 IM1      5        IM1      DC4      DRUD     -2.28640      0.400000           0   0.00000       0.00000    
      1317 IM1      5        IM1      H6       HDR5B    0.730000E-01   1.00800           0   0.00000       0.00000    
      1318 IM1      5        IM1      N2       ND2R5B    2.24930       13.6070           0 -0.840000       1.00000    
      1319 IM1      5        IM1      DN2      DRUD     -2.24930      0.400000           0   0.00000       0.00000    
      1320 IM1      5        IM1      H7       DUMH      0.00000       1.00800           0   0.00000       0.00000    
      1321 IM1      5        IM1      LPN21    LPD     -0.474000       0.00000          -1   0.00000       0.00000    
      1322 IM1      6        IM1      C1       CD33G     2.39060       11.6110           0  -1.08100       1.00000    
      1323 IM1      6        IM1      DC1      DRUD     -2.55160      0.400000           0   0.00000       0.00000    
      1324 IM1      6        IM1      H1       HDA3A    0.940000E-01   1.00800           0   0.00000       0.00000    
      1325 IM1      6        IM1      H2       HDA3A    0.940000E-01   1.00800           0   0.00000       0.00000    
      1326 IM1      6        IM1      H3       HDA3A    0.940000E-01   1.00800           0   0.00000       0.00000    
      1327 IM1      6        IM1      N1       ND2R5A    2.67030       13.6070           0  -1.06300       1.30000    
      1328 IM1      6        IM1      DN1      DRUD     -2.53030      0.400000           0   0.00000       0.00000    
      1329 IM1      6        IM1      C2       CD2R5A    2.51190       11.6110           0  -1.37800       1.30000    
      1330 IM1      6        IM1      DC2      DRUD     -2.88090      0.400000           0   0.00000       0.00000    
      1331 IM1      6        IM1      H4       HDR5A    0.150000       1.00800           0   0.00000       0.00000    
      1332 IM1      6        IM1      C3       CD2R5A    3.06890       11.6110           0  -1.37800       1.30000    
      1333 IM1      6        IM1      DC3      DRUD     -2.88090      0.400000           0   0.00000       0.00000    
      1334 IM1      6        IM1      H5       HDR5A    0.530000E-01   1.00800           0   0.00000       0.00000    
      1335 IM1      6        IM1      C4       CD2R5B    2.40440       11.6110           0 -0.868000       1.30000    
      1336 IM1      6        IM1      DC4      DRUD     -2.28640      0.400000           0   0.00000       0.00000    
      1337 IM1      6        IM1      H6       HDR5B    0.730000E-01   1.00800           0   0.00000       0.00000    
      1338 IM1      6        IM1      N2       ND2R5B    2.24930       13.6070           0 -0.840000       1.00000    
      1339 IM1      6        IM1      DN2      DRUD     -2.24930      0.400000           0   0.00000       0.00000    
      1340 IM1      6        IM1      H7       DUMH      0.00000       1.00800           0   0.00000       0.00000    
      1341 IM1      6        IM1      LPN21    LPD     -0.474000       0.00000          -1   0.00000       0.00000    
      1342 IM1      7        IM1      C1       CD33G     2.39060       11.6110           0  -1.08100       1.00000    
      1343 IM1      7        IM1      DC1      DRUD     -2.55160      0.400000           0   0.00000       0.00000    
      1344 IM1      7        IM1      H1       HDA3A    0.940000E-01   1.00800           0   0.00000       0.00000    
      1345 IM1      7        IM1      H2       HDA3A    0.940000E-01   1.00800           0   0.00000       0.00000    
      1346 IM1      7        IM1      H3       HDA3A    0.940000E-01   1.00800           0   0.00000       0.00000    
      1347 IM1      7        IM1      N1       ND2R5A    2.67030       13.6070           0  -1.06300       1.30000    
      1348 IM1      7        IM1      DN1      DRUD     -2.53030      0.400000           0   0.00000       0.00000    
      1349 IM1      7        IM1      C2       CD2R5A    2.51190       11.6110           0  -1.37800       1.30000    
      1350 IM1      7        IM1      DC2      DRUD     -2.88090      0.400000           0   0.00000       0.00000    
      1351 IM1      7        IM1      H4       HDR5A    0.150000       1.00800           0   0.00000       0.00000    
      1352 IM1      7        IM1      C3       CD2R5A    3.06890       11.6110           0  -1.37800       1.30000    
      1353 IM1      7        IM1      DC3      DRUD     -2.88090      0.400000           0   0.00000       0.00000    
      1354 IM1      7        IM1      H5       HDR5A    0.530000E-01   1.00800           0   0.00000       0.00000    
      1355 IM1      7        IM1      C4       CD2R5B    2.40440       11.6110           0 -0.868000       1.30000    
      1356 IM1      7        IM1      DC4      DRUD     -2.28640      0.400000           0   0.00000       0.00000    
      1357 IM1      7        IM1      H6       HDR5B    0.730000E-01   1.00800           0   0.00000       0.00000    
      1358 IM1      7        IM1      N2       ND2R5B    2.24930       13.6070           0 -0.840000       1.00000    
      1359 IM1      7        IM1      DN2      DRUD     -2.24930      0.400000           0   0.00000       0.00000    
      1360 IM1      7        IM1      H7       DUMH      0.00000       1.00800           0   0.00000       0.00000    
      1361 IM1      7        IM1      LPN21    LPD     -0.474000       0.00000          -1   0.00000       0.00000    
      1362 IM1      8        IM1      C1       CD33G     2.39060       11.6110           0  -1.08100       1.00000    
      1363 IM1      8        IM1      DC1      DRUD     -2.55160      0.400000           0   0.00000       0.00000    
      1364 IM1      8        IM1      H1       HDA3A    0.940000E-01   1.00800           0   0.00000       0.00000    
      1365 IM1      8        IM1      H2       HDA3A    0.940000E-01   1.00800           0   0.00000       0.00000    
      1366 IM1      8        IM1      H3       HDA3A    0.940000E-01   1.00800           0   0.00000       0.00000    
      1367 IM1      8        IM1      N1       ND2R5A    2.67030       13.6070           0  -1.06300       1.30000    
      1368 IM1      8        IM1      DN1      DRUD     -2.53030      0.400000           0   0.00000       0.00000    
      1369 IM1      8        IM1      C2       CD2R5A    2.51190       11.6110           0  -1.37800       1.30000    
      1370 IM1      8        IM1      DC2      DRUD     -2.88090      0.400000           0   0.00000       0.00000    
      1371 IM1      8        IM1      H4       HDR5A    0.150000       1.00800           0   0.00000       0.00000    
      1372 IM1      8        IM1      C3       CD2R5A    3.06890       11.6110           0  -1.37800       1.30000    
      1373 IM1      8        IM1      DC3      DRUD     -2.88090      0.400000           0   0.00000       0.00000    
      1374 IM1      8        IM1      H5       HDR5A    0.530000E-01   1.00800           0   0.00000       0.00000    
      1375 IM1      8        IM1      C4       CD2R5B    2.40440       11.6110           0 -0.868000       1.30000    
      1376 IM1      8        IM1      DC4      DRUD     -2.28640      0.400000           0   0.00000       0.00000    
      1377 IM1      8        IM1      H6       HDR5B    0.730000E-01   1.00800           0   0.00000       0.00000    
      1378 IM1      8        IM1      N2       ND2R5B    2.24930       13.6070           0 -0.840000       1.00000    
      1379 IM1      8        IM1      DN2      DRUD     -2.24930      0.400000           0   0.00000       0.00000    
      1380 IM1      8        IM1      H7       DUMH      0.00000       1.00800           0   0.00000       0.00000    
      1381 IM1      8        IM1      LPN21    LPD     -0.474000       0.00000          -1   0.00000       0.00000    
      1382 IM1      9        IM1      C1       CD33G     2.39060       11.6110           0  -1.08100       1.00000    
      1383 IM1      9        IM1      DC1      DRUD     -2.55160      0.400000           0   0.00000       0.00000    
      1384 IM1      9        IM1      H1       HDA3A    0.940000E-01   1.00800           0   0.00000       0.00000    
      1385 IM1      9        IM1      H2       HDA3A    0.940000E-01   1.00800           0   0.00000       0.00000    
      1386 IM1      9        IM1      H3       HDA3A    0.940000E-01   1.00800           0   0.00000       0.00000    
      1387 IM1      9        IM1      N1       ND2R5A    2.67030       13.6070           0  -1.06300       1.30000    
      1388 IM1      9        IM1      DN1      DRUD     -2.53030      0.400000           0   0.00000       0.00000    
      1389 IM1      9        IM1      C2       CD2R5A    2.51190       11.6110           0  -1.37800       1.30000    
      1390 IM1      9        IM1      DC2      DRUD     -2.88090      0.400000           0   0.00000       0.00000    
      1391 IM1      9        IM1      H4       HDR5A    0.150000       1.00800           0   0.00000       0.00000    
      1392 IM1      9        IM1      C3       CD2R5A    3.06890       11.6110           0  -1.37800       1.30000    
      1393 IM1      9        IM1      DC3      DRUD     -2.88090      0.400000           0   0.00000       0.00000    
      1394 IM1      9        IM1      H5       HDR5A    0.530000E-01   1.00800           0   0.00000       0.00000    
      1395 IM1      9        IM1      C4       CD2R5B    2.40440       11.6110           0 -0.868000       1.30000    
      1396 IM1      9        IM1      DC4      DRUD     -2.28640      0.400000           0   0.00000       0.00000    
      1397 IM1      9        IM1      H6       HDR5B    0.730000E-01   1.00800           0   0.00000       0.00000    
      1398 IM1      9        IM1      N2       ND2R5B    2.24930       13.6070           0 -0.840000       1.00000    
      1399 IM1      9        IM1      DN2      DRUD     -2.24930      0.400000           0   0.00000       0.00000    
      1400 IM1      9        IM1      H7       DUMH      0.00000       1.00800           0   0.00000       0.00000    
      1401 IM1      9        IM1      LPN21    LPD     -0.474000       0.00000          -1   0.00000       0.00000    
      1402 IM1      10       IM1      C1       CD33G     2.39060       11.6110           0  -1.08100       1.00000    
      1403 IM1      10       IM1      DC1      DRUD     -2.55160      0.400000           0   0.00000       0.00000    
      1404 IM1      10       IM1      H1       HDA3A    0.940000E-01   1.00800           0   0.00000       0.00000    
      1405 IM1      10       IM1      H2       HDA3A    0.940000E-01   1.00800           0   0.00000       0.00000    
      1406 IM1      10       IM1      H3       HDA3A    0.940000E-01   1.00800           0   0.00000       0.00000    
      1407 IM1      10       IM1      N1       ND2R5A    2.67030       13.6070           0  -1.06300       1.30000    
      1408 IM1      10       IM1      DN1      DRUD     -2.53030      0.400000           0   0.00000       0.00000    
      1409 IM1      10       IM1      C2       CD2R5A    2.51190       11.6110           0  -1.37800       1.30000    
      1410 IM1      10       IM1      DC2      DRUD     -2.88090      0.400000           0   0.00000       0.00000    
      1411 IM1      10       IM1      H4       HDR5A    0.150000       1.00800           0   0.00000       0.00000    
      1412 IM1      10       IM1      C3       CD2R5A    3.06890       11.6110           0  -1.37800       1.30000    
      1413 IM1      10       IM1      DC3      DRUD     -2.88090      0.400000           0   0.00000       0.00000    
      1414 IM1      10       IM1      H5       HDR5A    0.530000E-01   1.00800           0   0.00000       0.00000    
      1415 IM1      10       IM1      C4       CD2R5B    2.40440       11.6110           0 -0.868000       1.30000    
      1416 IM1      10       IM1      DC4      DRUD     -2.28640      0.400000           0   0.00000       0.00000    
      1417 IM1      10       IM1      H6       HDR5B    0.730000E-01   1.00800           0   0.00000       0.00000    
      1418 IM1      10       IM1      N2       ND2R5B    2.24930       13.6070           0 -0.840000       1.00000    
      1419 IM1      10       IM1      DN2      DRUD     -2.24930      0.400000           0   0.00000       0.00000    
      1420 IM1      10       IM1      H7       DUMH      0.00000       1.00800           0   0.00000       0.00000    
      1421 IM1      10       IM1      LPN21    LPD     -0.474000       0.00000          -1   0.00000       0.00000    
      1422 IM1      11       IM1      C1       CD33G     2.39060       11.6110           0  -1.08100       1.00000    
      1423 IM1      11       IM1      DC1      DRUD     -2.55160      0.400000           0   0.00000       0.00000    
      1424 IM1      11       IM1      H1       HDA3A    0.940000E-01   1.00800           0   0.00000       0.00000    
      1425 IM1      11       IM1      H2       HDA3A    0.940000E-01   1.00800           0   0.00000       0.00000    
      1426 IM1      11       IM1      H3       HDA3A    0.940000E-01   1.00800           0   0.00000       0.00000    
      1427 IM1      11       IM1      N1       ND2R5A    2.67030       13.6070           0  -1.06300       1.30000    
      1428 IM1      11       IM1      DN1      DRUD     -2.53030      0.400000           0   0.00000       0.00000    
      1429 IM1      11       IM1      C2       CD2R5A    2.51190       11.6110           0  -1.37800       1.30000    
      1430 IM1      11       IM1      DC2      DRUD     -2.88090      0.400000           0   0.00000       0.00000    
      1431 IM1      11       IM1      H4       HDR5A    0.150000       1.00800           0   0.00000       0.00000    
      1432 IM1      11       IM1      C3       CD2R5A    3.06890       11.6110           0  -1.37800       1.30000    
      1433 IM1      11       IM1      DC3      DRUD     -2.88090      0.400000           0   0.00000       0.00000    
      1434 IM1      11       IM1      H5       HDR5A    0.530000E-01   1.00800           0   0.00000       0.00000    
      1435 IM1      11       IM1      C4       CD2R5B    2.40440       11.6110           0 -0.868000       1.30000    
      1436 IM1      11       IM1      DC4      DRUD     -2.28640      0.400000           0   0.00000       0.00000    
      1437 IM1      11       IM1      H6       HDR5B    0.730000E-01   1.00800           0   0.00000       0.00000    
      1438 IM1      11       IM1      N2       ND2R5B    2.24930       13.6070           0 -0.840000       1.00000    
      1439 IM1      11       IM1      DN2      DRUD     -2.24930      0.400000           0   0.00000       0.00000    
      1440 IM1      11       IM1      H7       DUMH      0.00000       1.00800           0   0.00000       0.00000    
      1441 IM1      11       IM1      LPN21    LPD     -0.474000       0.00000          -1   0.00000       0.00000    
      1442 IM1      12       IM1      C1       CD33G     2.39060       11.6110           0  -1.08100       1.00000    
      1443 IM1      12       IM1      DC1      DRUD     -2.55160      0.400000           0   0.00000       0.00000    
      1444 IM1      12       IM1      H1       HDA3A    0.940000E-01   1.00800           0   0.00000       0.00000    
      1445 IM1      12       IM1      H2       HDA3A    0.940000E-01   1.00800           0   0.00000       0.00000    
      1446 IM1      12       IM1      H3       HDA3A    0.940000E-01   1.00800           0   0.00000       0.00000    
      1447 IM1      12       IM1      N1       ND2R5A    2.67030       13.6070           0  -1.06300       1.30000    
      1448 IM1      12       IM1      DN1      DRUD     -2.53030      0.400000           0   0.00000       0.00000    
      1449 IM1      12       IM1      C2       CD2R5A    2.51190       11.6110           0  -1.37800       1.30000    
      1450 IM1      12       IM1      DC2      DRUD     -2.88090      0.400000           0   0.00000       0.00000    
      1451 IM1      12       IM1      H4       HDR5A    0.150000       1.00800           0   0.00000       0.00000    
      1452 IM1      12       IM1      C3       CD2R5A    3.06890       11.6110           0  -1.37800       1.30000    
      1453 IM1      12       IM1      DC3      DRUD     -2.88090      0.400000           0   0.00000       0.00000    
      1454 IM1      12       IM1      H5       HDR5A    0.530000E-01   1.00800           0   0.00000       0.00000    
      1455 IM1      12       IM1      C4       CD2R5B    2.40440       11.6110           0 -0.868000       1.30000    
      1456 IM1      12       IM1      DC4      DRUD     -2.28640      0.400000           0   0.00000       0.00000    
      1457 IM1      12       IM1      H6       HDR5B    0.730000E-01   1.00800           0   0.00000       0.00000    
      1458 IM1      12       IM1      N2       ND2R5B    2.24930       13.6070           0 -0.840000       1.00000    
      1459 IM1      12       IM1      DN2      DRUD     -2.24930      0.400000           0   0.00000       0.00000    
      1460 IM1      12       IM1      H7       DUMH      0.00000       1.00800           0   0.00000       0.00000    
      1461 IM1      12       IM1      LPN21    LPD     -0.474000       0.00000          -1   0.00000       0.00000    
      1462 IM1      13       IM1      C1       CD33G     2.39060       11.6110           0  -1.08100       1.00000    
      1463 IM1      13       IM1      DC1      DRUD     -2.55160      0.400000           0   0.00000       0.00000    
      1464 IM1      13       IM1      H1       HDA3A    0.940000E-01   1.00800           0   0.00000       0.00000    
      1465 IM1      13       IM1      H2       HDA3A    0.940000E-01   1.00800           0   0.00000       0.00000    
      1466 IM1      13       IM1      H3       HDA3A    0.940000E-01   1.00800           0   0.00000       0.00000    
      1467 IM1      13       IM1      N1       ND2R5A    2.67030       13.6070           0  -1.06300       1.30000    
      1468 IM1      13       IM1      DN1      DRUD     -2.53030      0.400000           0   0.00000       0.00000    
      1469 IM1      13       IM1      C2       CD2R5A    2.51190       11.6110           0  -1.37800       1.30000    
      1470 IM1      13       IM1      DC2      DRUD     -2.88090      0.400000           0   0.00000       0.00000    
      1471 IM1      13       IM1      H4       HDR5A    0.150000       1.00800           0   0.00000       0.00000    
      1472 IM1      13       IM1      C3       CD2R5A    3.06890       11.6110           0  -1.37800       1.30000    
      1473 IM1      13       IM1      DC3      DRUD     -2.88090      0.400000           0   0.00000       0.00000    
      1474 IM1      13       IM1      H5       HDR5A    0.530000E-01   1.00800           0   0.00000       0.00000    
      1475 IM1      13       IM1      C4       CD2R5B    2.40440       11.6110           0 -0.868000       1.30000    
      1476 IM1      13       IM1      DC4      DRUD     -2.28640      0.400000           0   0.00000       0.00000    
      1477 IM1      13       IM1      H6       HDR5B    0.730000E-01   1.00800           0   0.00000       0.00000    
      1478 IM1      13       IM1      N2       ND2R5B    2.24930       13.6070           0 -0.840000       1.00000    
      1479 IM1      13       IM1      DN2      DRUD     -2.24930      0.400000           0   0.00000       0.00000    
      1480 IM1      13       IM1      H7       DUMH      0.00000       1.00800           0   0.00000       0.00000    
      1481 IM1      13       IM1      LPN21    LPD     -0.474000       0.00000          -1   0.00000       0.00000    
      1482 IM1      14       IM1      C1       CD33G     2.39060       11.6110           0  -1.08100       1.00000    
      1483 IM1      14       IM1      DC1      DRUD     -2.55160      0.400000           0   0.00000       0.00000    
      1484 IM1      14       IM1      H1       HDA3A    0.940000E-01   1.00800           0   0.00000       0.00000    
      1485 IM1      14       IM1      H2       HDA3A    0.940000E-01   1.00800           0   0.00000       0.00000    
      1486 IM1      14       IM1      H3       HDA3A    0.940000E-01   1.00800           0   0.00000       0.00000    
      1487 IM1      14       IM1      N1       ND2R5A    2.67030       13.6070           0  -1.06300       1.30000    
      1488 IM1      14       IM1      DN1      DRUD     -2.53030      0.400000           0   0.00000       0.00000    
      1489 IM1      14       IM1      C2       CD2R5A    2.51190       11.6110           0  -1.37800       1.30000    
      1490 IM1      14       IM1      DC2      DRUD     -2.88090      0.400000           0   0.00000       0.00000    
      1491 IM1      14       IM1      H4       HDR5A    0.150000       1.00800           0   0.00000       0.00000    
      1492 IM1      14       IM1      C3       CD2R5A    3.06890       11.6110           0  -1.37800       1.30000    
      1493 IM1      14       IM1      DC3      DRUD     -2.88090      0.400000           0   0.00000       0.00000    
      1494 IM1      14       IM1      H5       HDR5A    0.530000E-01   1.00800           0   0.00000       0.00000    
      1495 IM1      14       IM1      C4       CD2R5B    2.40440       11.6110           0 -0.868000       1.30000    
      1496 IM1      14       IM1      DC4      DRUD     -2.28640      0.400000           0   0.00000       0.00000    
      1497 IM1      14       IM1      H6       HDR5B    0.730000E-01   1.00800           0   0.00000       0.00000    
      1498 IM1      14       IM1      N2       ND2R5B    2.24930       13.6070           0 -0.840000       1.00000    
      1499 IM1      14       IM1      DN2      DRUD     -2.24930      0.400000           0   0.00000       0.00000    
      1500 IM1      14       IM1      H7       DUMH      0.00000       1.00800           0   0.00000       0.00000    
      1501 IM1      14       IM1      LPN21    LPD     -0.474000       0.00000          -1   0.00000       0.00000    
      1502 IM1      15       IM1      C1       CD33G     2.39060       11.6110           0  -1.08100       1.00000    
      1503 IM1      15       IM1      DC1      DRUD     -2.55160      0.400000           0   0.00000       0.00000    
      1504 IM1      15       IM1      H1       HDA3A    0.940000E-01   1.00800           0   0.00000       0.00000    
      1505 IM1      15       IM1      H2       HDA3A    0.940000E-01   1.00800           0   0.00000       0.00000    
      1506 IM1      15       IM1      H3       HDA3A    0.940000E-01   1.00800           0   0.00000       0.00000    
      1507 IM1      15       IM1      N1       ND2R5A    2.67030       13.6070           0  -1.06300       1.30000    
      1508 IM1      15       IM1      DN1      DRUD     -2.53030      0.400000           0   0.00000       0.00000    
      1509 IM1      15       IM1      C2       CD2R5A    2.51190       11.6110           0  -1.37800       1.30000    
      1510 IM1      15       IM1      DC2      DRUD     -2.88090      0.400000           0   0.00000       0.00000    
      1511 IM1      15       IM1      H4       HDR5A    0.150000       1.00800           0   0.00000       0.00000    
      1512 IM1      15       IM1      C3       CD2R5A    3.06890       11.6110           0  -1.37800       1.30000    
      1513 IM1      15       IM1      DC3      DRUD     -2.88090      0.400000           0   0.00000       0.00000    
      1514 IM1      15       IM1      H5       HDR5A    0.530000E-01   1.00800           0   0.00000       0.00000    
      1515 IM1      15       IM1      C4       CD2R5B    2.40440       11.6110           0 -0.868000       1.30000    
      1516 IM1      15       IM1      DC4      DRUD     -2.28640      0.400000           0   0.00000       0.00000    
      1517 IM1      15       IM1      H6       HDR5B    0.730000E-01   1.00800           0   0.00000       0.00000    
      1518 IM1      15       IM1      N2       ND2R5B    2.24930       13.6070           0 -0.840000       1.00000    
      1519 IM1      15       IM1      DN2      DRUD     -2.24930      0.400000           0   0.00000       0.00000    
      1520 IM1      15       IM1      H7       DUMH      0.00000       1.00800           0   0.00000       0.00000    
      1521 IM1      15       IM1      LPN21    LPD     -0.474000       0.00000          -1   0.00000       0.00000    
      1522 IM1      16       IM1      C1       CD33G     2.39060       11.6110           0  -1.08100       1.00000    
      1523 IM1      16       IM1      DC1      DRUD     -2.55160      0.400000           0   0.00000       0.00000    
      1524 IM1      16       IM1      H1       HDA3A    0.940000E-01   1.00800           0   0.00000       0.00000    
      1525 IM1      16       IM1      H2       HDA3A    0.940000E-01   1.00800           0   0.00000       0.00000    
      1526 IM1      16       IM1      H3       HDA3A    0.940000E-01   1.00800           0   0.00000       0.00000    
      1527 IM1      16       IM1      N1       ND2R5A    2.67030       13.6070           0  -1.06300       1.30000    
      1528 IM1      16       IM1      DN1      DRUD     -2.53030      0.400000           0   0.00000       0.00000    
      1529 IM1      16       IM1      C2       CD2R5A    2.51190       11.6110           0  -1.37800       1.30000    
      1530 IM1      16       IM1      DC2      DRUD     -2.88090      0.400000           0   0.00000       0.00000    
      1531 IM1      16       IM1      H4       HDR5A    0.150000       1.00800           0   0.00000       0.00000    
      1532 IM1      16       IM1      C3       CD2R5A    3.06890       11.6110           0  -1.37800       1.30000    
      1533 IM1      16       IM1      DC3      DRUD     -2.88090      0.400000           0   0.00000       0.00000    
      1534 IM1      16       IM1      H5       HDR5A    0.530000E-01   1.00800           0   0.00000       0.00000    
      1535 IM1      16       IM1      C4       CD2R5B    2.40440       11.6110           0 -0.868000       1.30000    
      1536 IM1      16       IM1      DC4      DRUD     -2.28640      0.400000           0   0.00000       0.00000    
      1537 IM1      16       IM1      H6       HDR5B    0.730000E-01   1.00800           0   0.00000       0.00000    
      1538 IM1      16       IM1      N2       ND2R5B    2.24930       13.6070           0 -0.840000       1.00000    
      1539 IM1      16       IM1      DN2      DRUD     -2.24930      0.400000           0   0.00000       0.00000    
      1540 IM1      16       IM1      H7       DUMH      0.00000       1.00800           0   0.00000       0.00000    
      1541 IM1      16       IM1      LPN21    LPD     -0.474000       0.00000          -1   0.00000       0.00000    
      1542 IM1      17       IM1      C1       CD33G     2.39060       11.6110           0  -1.08100       1.00000    
      1543 IM1      17       IM1      DC1      DRUD     -2.55160      0.400000           0   0.00000       0.00000    
      1544 IM1      17       IM1      H1       HDA3A    0.940000E-01   1.00800           0   0.00000       0.00000    
      1545 IM1      17       IM1      H2       HDA3A    0.940000E-01   1.00800           0   0.00000       0.00000    
      1546 IM1      17       IM1      H3       HDA3A    0.940000E-01   1.00800           0   0.00000       0.00000    
      1547 IM1      17       IM1      N1       ND2R5A    2.67030       13.6070           0  -1.06300       1.30000    
      1548 IM1      17       IM1      DN1      DRUD     -2.53030      0.400000           0   0.00000       0.00000    
      1549 IM1      17       IM1      C2       CD2R5A    2.51190       11.6110           0  -1.37800       1.30000    
      1550 IM1      17       IM1      DC2      DRUD     -2.88090      0.400000           0   0.00000       0.00000    
      1551 IM1      17       IM1      H4       HDR5A    0.150000       1.00800           0   0.00000       0.00000    
      1552 IM1      17       IM1      C3       CD2R5A    3.06890       11.6110           0  -1.37800       1.30000    
      1553 IM1      17       IM1      DC3      DRUD     -2.88090      0.400000           0   0.00000       0.00000    
      1554 IM1      17       IM1      H5       HDR5A    0.530000E-01   1.00800           0   0.00000       0.00000    
      1555 IM1      17       IM1      C4       CD2R5B    2.40440       11.6110           0 -0.868000       1.30000    
      1556 IM1      17       IM1      DC4      DRUD     -2.28640      0.400000           0   0.00000       0.00000    
      1557 IM1      17       IM1      H6       HDR5B    0.730000E-01   1.00800           0   0.00000       0.00000    
      1558 IM1      17       IM1      N2       ND2R5B    2.24930       13.6070           0 -0.840000       1.00000    
      1559 IM1      17       IM1      DN2      DRUD     -2.24930      0.400000           0   0.00000       0.00000    
      1560 IM1      17       IM1      H7       DUMH      0.00000       1.00800           0   0.00000       0.00000    
      1561 IM1      17       IM1      LPN21    LPD     -0.474000       0.00000          -1   0.00000       0.00000    
      1562 IM1      18       IM1      C1       CD33G     2.39060       11.6110           0  -1.08100       1.00000    
      1563 IM1      18       IM1      DC1      DRUD     -2.55160      0.400000           0   0.00000       0.00000    
      1564 IM1      18       IM1      H1       HDA3A    0.940000E-01   1.00800           0   0.00000       0.00000    
      1565 IM1      18       IM1      H2       HDA3A    0.940000E-01   1.00800           0   0.00000       0.00000    
      1566 IM1      18       IM1      H3       HDA3A    0.940000E-01   1.00800           0   0.00000       0.00000    
      1567 IM1      18       IM1      N1       ND2R5A    2.67030       13.6070           0  -1.06300       1.30000    
      1568 IM1      18       IM1      DN1      DRUD     -2.53030      0.400000           0   0.00000       0.00000    
      1569 IM1      18       IM1      C2       CD2R5A    2.51190       11.6110           0  -1.37800       1.30000    
      1570 IM1      18       IM1      DC2      DRUD     -2.88090      0.400000           0   0.00000       0.00000    
      1571 IM1      18       IM1      H4       HDR5A    0.150000       1.00800           0   0.00000       0.00000    
      1572 IM1      18       IM1      C3       CD2R5A    3.06890       11.6110           0  -1.37800       1.30000    
      1573 IM1      18       IM1      DC3      DRUD     -2.88090      0.400000           0   0.00000       0.00000    
      1574 IM1      18       IM1      H5       HDR5A    0.530000E-01   1.00800           0   0.00000       0.00000    
      1575 IM1      18       IM1      C4       CD2R5B    2.40440       11.6110           0 -0.868000       1.30000    
      1576 IM1      18       IM1      DC4      DRUD     -2.28640      0.400000           0   0.00000       0.00000    
      1577 IM1      18       IM1      H6       HDR5B    0.730000E-01   1.00800           0   0.00000       0.00000    
      1578 IM1      18       IM1      N2       ND2R5B    2.24930       13.6070           0 -0.840000       1.00000    
      1579 IM1      18       IM1      DN2      DRUD     -2.24930      0.400000           0   0.00000       0.00000    
      1580 IM1      18       IM1      H7       DUMH      0.00000       1.00800           0   0.00000       0.00000    
      1581 IM1      18       IM1      LPN21    LPD     -0.474000       0.00000          -1   0.00000       0.00000    
      1582 IM1      19       IM1      C1       CD33G     2.39060       11.6110           0  -1.08100       1.00000    
      1583 IM1      19       IM1      DC1      DRUD     -2.55160      0.400000           0   0.00000       0.00000    
      1584 IM1      19       IM1      H1       HDA3A    0.940000E-01   1.00800           0   0.00000       0.00000    
      1585 IM1      19       IM1      H2       HDA3A    0.940000E-01   1.00800           0   0.00000       0.00000    
      1586 IM1      19       IM1      H3       HDA3A    0.940000E-01   1.00800           0   0.00000       0.00000    
      1587 IM1      19       IM1      N1       ND2R5A    2.67030       13.6070           0  -1.06300       1.30000    
      1588 IM1      19       IM1      DN1      DRUD     -2.53030      0.400000           0   0.00000       0.00000    
      1589 IM1      19       IM1      C2       CD2R5A    2.51190       11.6110           0  -1.37800       1.30000    
      1590 IM1      19       IM1      DC2      DRUD     -2.88090      0.400000           0   0.00000       0.00000    
      1591 IM1      19       IM1      H4       HDR5A    0.150000       1.00800           0   0.00000       0.00000    
      1592 IM1      19       IM1      C3       CD2R5A    3.06890       11.6110           0  -1.37800       1.30000    
      1593 IM1      19       IM1      DC3      DRUD     -2.88090      0.400000           0   0.00000       0.00000    
      1594 IM1      19       IM1      H5       HDR5A    0.530000E-01   1.00800           0   0.00000       0.00000    
      1595 IM1      19       IM1      C4       CD2R5B    2.40440       11.6110           0 -0.868000       1.30000    
      1596 IM1      19       IM1      DC4      DRUD     -2.28640      0.400000           0   0.00000       0.00000    
      1597 IM1      19       IM1      H6       HDR5B    0.730000E-01   1.00800           0   0.00000       0.00000    
      1598 IM1      19       IM1      N2       ND2R5B    2.24930       13.6070           0 -0.840000       1.00000    
      1599 IM1      19       IM1      DN2      DRUD     -2.24930      0.400000           0   0.00000       0.00000    
      1600 IM1      19       IM1      H7       DUMH      0.00000       1.00800           0   0.00000       0.00000    
      1601 IM1      19       IM1      LPN21    LPD     -0.474000       0.00000          -1   0.00000       0.00000    
      1602 IM1      20       IM1      C1       CD33G     2.39060       11.6110           0  -1.08100       1.00000    
      1603 IM1      20       IM1      DC1      DRUD     -2.55160      0.400000           0   0.00000       0.00000    
      1604 IM1      20       IM1      H1       HDA3A    0.940000E-01   1.00800           0   0.00000       0.00000    
      1605 IM1      20       IM1      H2       HDA3A    0.940000E-01   1.00800           0   0.00000       0.00000    
      1606 IM1      20       IM1      H3       HDA3A    0.940000E-01   1.00800           0   0.00000       0.00000    
      1607 IM1      20       IM1      N1       ND2R5A    2.67030       13.6070           0  -1.06300       1.30000    
      1608 IM1      20       IM1      DN1      DRUD     -2.53030      0.400000           0   0.00000       0.00000    
      1609 IM1      20       IM1      C2       CD2R5A    2.51190       11.6110           0  -1.37800       1.30000    
      1610 IM1      20       IM1      DC2      DRUD     -2.88090      0.400000           0   0.00000       0.00000    
      1611 IM1      20       IM1      H4       HDR5A    0.150000       1.00800           0   0.00000       0.00000    
      1612 IM1      20       IM1      C3       CD2R5A    3.06890       11.6110           0  -1.37800       1.30000    
      1613 IM1      20       IM1      DC3      DRUD     -2.88090      0.400000           0   0.00000       0.00000    
      1614 IM1      20       IM1      H5       HDR5A    0.530000E-01   1.00800           0   0.00000       0.00000    
      1615 IM1      20       IM1      C4       CD2R5B    2.40440       11.6110           0 -0.868000       1.30000    
      1616 IM1      20       IM1      DC4      DRUD     -2.28640      0.400000           0   0.00000       0.00000    
      1617 IM1      20       IM1      H6       HDR5B    0.730000E-01   1.00800           0   0.00000       0.00000    
      1618 IM1      20       IM1      N2       ND2R5B    2.24930       13.6070           0 -0.840000       1.00000    
      1619 IM1      20       IM1      DN2      DRUD     -2.24930      0.400000           0   0.00000       0.00000    
      1620 IM1      20       IM1      H7       DUMH      0.00000       1.00800           0   0.00000       0.00000    
      1621 IM1      20       IM1      LPN21    LPD     -0.474000       0.00000          -1   0.00000       0.00000    
      1622 IM1      21       IM1      C1       CD33G     2.39060       11.6110           0  -1.08100       1.00000    
      1623 IM1      21       IM1      DC1      DRUD     -2.55160      0.400000           0   0.00000       0.00000    
      1624 IM1      21       IM1      H1       HDA3A    0.940000E-01   1.00800           0   0.00000       0.00000    
      1625 IM1      21       IM1      H2       HDA3A    0.940000E-01   1.00800           0   0.00000       0.00000    
      1626 IM1      21       IM1      H3       HDA3A    0.940000E-01   1.00800           0   0.00000       0.00000    
      1627 IM1      21       IM1      N1       ND2R5A    2.67030       13.6070           0  -1.06300       1.30000    
      1628 IM1      21       IM1      DN1      DRUD     -2.53030      0.400000           0   0.00000       0.00000    
      1629 IM1      21       IM1      C2       CD2R5A    2.51190       11.6110           0  -1.37800       1.30000    
      1630 IM1      21       IM1      DC2      DRUD     -2.88090      0.400000           0   0.00000       0.00000    
      1631 IM1      21       IM1      H4       HDR5A    0.150000       1.00800           0   0.00000       0.00000    
      1632 IM1      21       IM1      C3       CD2R5A    3.06890       11.6110           0  -1.37800       1.30000    
      1633 IM1      21       IM1      DC3      DRUD     -2.88090      0.400000           0   0.00000       0.00000    
      1634 IM1      21       IM1      H5       HDR5A    0.530000E-01   1.00800           0   0.00000       0.00000    
      1635 IM1      21       IM1      C4       CD2R5B    2.40440       11.6110           0 -0.868000       1.30000    
      1636 IM1      21       IM1      DC4      DRUD     -2.28640      0.400000           0   0.00000       0.00000    
      1637 IM1      21       IM1      H6       HDR5B    0.730000E-01   1.00800           0   0.00000       0.00000    
      1638 IM1      21       IM1      N2       ND2R5B    2.24930       13.6070           0 -0.840000       1.00000    
      1639 IM1      21       IM1      DN2      DRUD     -2.24930      0.400000           0   0.00000       0.00000    
      1640 IM1      21       IM1      H7       DUMH      0.00000       1.00800           0   0.00000       0.00000    
      1641 IM1      21       IM1      LPN21    LPD     -0.474000       0.00000          -1   0.00000       0.00000    
      1642 IM1      22       IM1      C1       CD33G     2.39060       11.6110           0  -1.08100       1.00000    
      1643 IM1      22       IM1      DC1      DRUD     -2.55160      0.400000           0   0.00000       0.00000    
      1644 IM1      22       IM1      H1       HDA3A    0.940000E-01   1.00800           0   0.00000       0.00000    
      1645 IM1      22       IM1      H2       HDA3A    0.940000E-01   1.00800           0   0.00000       0.00000    
      1646 IM1      22       IM1      H3       HDA3A    0.940000E-01   1.00800           0   0.00000       0.00000    
      1647 IM1      22       IM1      N1       ND2R5A    2.67030       13.6070           0  -1.06300       1.30000    
      1648 IM1      22       IM1      DN1      DRUD     -2.53030      0.400000           0   0.00000       0.00000    
      1649 IM1      22       IM1      C2       CD2R5A    2.51190       11.6110           0  -1.37800       1.30000    
      1650 IM1      22       IM1      DC2      DRUD     -2.88090      0.400000           0   0.00000       0.00000    
      1651 IM1      22       IM1      H4       HDR5A    0.150000       1.00800           0   0.00000       0.00000    
      1652 IM1      22       IM1      C3       CD2R5A    3.06890       11.6110           0  -1.37800       1.30000    
      1653 IM1      22       IM1      DC3      DRUD     -2.88090      0.400000           0   0.00000       0.00000    
      1654 IM1      22       IM1      H5       HDR5A    0.530000E-01   1.00800           0   0.00000       0.00000    
      1655 IM1      22       IM1      C4       CD2R5B    2.40440       11.6110           0 -0.868000       1.30000    
      1656 IM1      22       IM1      DC4      DRUD     -2.28640      0.400000           0   0.00000       0.00000    
      1657 IM1      22       IM1      H6       HDR5B    0.730000E-01   1.00800           0   0.00000       0.00000    
      1658 IM1      22       IM1      N2       ND2R5B    2.24930       13.6070           0 -0.840000       1.00000    
      1659 IM1      22       IM1      DN2      DRUD     -2.24930      0.400000           0   0.00000       0.00000    
      1660 IM1      22       IM1      H7       DUMH      0.00000       1.00800           0   0.00000       0.00000    
      1661 IM1      22       IM1      LPN21    LPD     -0.474000       0.00000          -1   0.00000       0.00000    
      1662 IM1      23       IM1      C1       CD33G     2.39060       11.6110           0  -1.08100       1.00000    
      1663 IM1      23       IM1      DC1      DRUD     -2.55160      0.400000           0   0.00000       0.00000    
      1664 IM1      23       IM1      H1       HDA3A    0.940000E-01   1.00800           0   0.00000       0.00000    
      1665 IM1      23       IM1      H2       HDA3A    0.940000E-01   1.00800           0   0.00000       0.00000    
      1666 IM1      23       IM1      H3       HDA3A    0.940000E-01   1.00800           0   0.00000       0.00000    
      1667 IM1      23       IM1      N1       ND2R5A    2.67030       13.6070           0  -1.06300       1.30000    
      1668 IM1      23       IM1      DN1      DRUD     -2.53030      0.400000           0   0.00000       0.00000    
      1669 IM1      23       IM1      C2       CD2R5A    2.51190       11.6110           0  -1.37800       1.30000    
      1670 IM1      23       IM1      DC2      DRUD     -2.88090      0.400000           0   0.00000       0.00000    
      1671 IM1      23       IM1      H4       HDR5A    0.150000       1.00800           0   0.00000       0.00000    
      1672 IM1      23       IM1      C3       CD2R5A    3.06890       11.6110           0  -1.37800       1.30000    
      1673 IM1      23       IM1      DC3      DRUD     -2.88090      0.400000           0   0.00000       0.00000    
      1674 IM1      23       IM1      H5       HDR5A    0.530000E-01   1.00800           0   0.00000       0.00000    
      1675 IM1      23       IM1      C4       CD2R5B    2.40440       11.6110           0 -0.868000       1.30000    
      1676 IM1      23       IM1      DC4      DRUD     -2.28640      0.400000           0   0.00000       0.00000    
      1677 IM1      23       IM1      H6       HDR5B    0.730000E-01   1.00800           0   0.00000       0.00000    
      1678 IM1      23       IM1      N2       ND2R5B    2.24930       13.6070           0 -0.840000       1.00000    
      1679 IM1      23       IM1      DN2      DRUD     -2.24930      0.400000           0   0.00000       0.00000    
      1680 IM1      23       IM1      H7       DUMH      0.00000       1.00800           0   0.00000       0.00000    
      1681 IM1      23       IM1      LPN21    LPD     -0.474000       0.00000          -1   0.00000       0.00000    
      1682 IM1      24       IM1      C1       CD33G     2.39060       11.6110           0  -1.08100       1.00000    
      1683 IM1      24       IM1      DC1      DRUD     -2.55160      0.400000           0   0.00000       0.00000    
      1684 IM1      24       IM1      H1       HDA3A    0.940000E-01   1.00800           0   0.00000       0.00000    
      1685 IM1      24       IM1      H2       HDA3A    0.940000E-01   1.00800           0   0.00000       0.00000    
      1686 IM1      24       IM1      H3       HDA3A    0.940000E-01   1.00800           0   0.00000       0.00000    
      1687 IM1      24       IM1      N1       ND2R5A    2.67030       13.6070           0  -1.06300       1.30000    
      1688 IM1      24       IM1      DN1      DRUD     -2.53030      0.400000           0   0.00000       0.00000    
      1689 IM1      24       IM1      C2       CD2R5A    2.51190       11.6110           0  -1.37800       1.30000    
      1690 IM1      24       IM1      DC2      DRUD     -2.88090      0.400000           0   0.00000       0.00000    
      1691 IM1      24       IM1      H4       HDR5A    0.150000       1.00800           0   0.00000       0.00000    
      1692 IM1      24       IM1      C3       CD2R5A    3.06890       11.6110           0  -1.37800       1.30000    
      1693 IM1      24       IM1      DC3      DRUD     -2.88090      0.400000           0   0.00000       0.00000    
      1694 IM1      24       IM1      H5       HDR5A    0.530000E-01   1.00800           0   0.00000       0.00000    
      1695 IM1      24       IM1      C4       CD2R5B    2.40440       11.6110           0 -0.868000       1.30000    
      1696 IM1      24       IM1      DC4      DRUD     -2.28640      0.400000           0   0.00000       0.00000    
      1697 IM1      24       IM1      H6       HDR5B    0.730000E-01   1.00800           0   0.00000       0.00000    
      1698 IM1      24       IM1      N2       ND2R5B    2.24930       13.6070           0 -0.840000       1.00000    
      1699 IM1      24       IM1      DN2      DRUD     -2.24930      0.400000           0   0.00000       0.00000    
      1700 IM1      24       IM1      H7       DUMH      0.00000       1.00800           0   0.00000       0.00000    
      1701 IM1      24       IM1      LPN21    LPD     -0.474000       0.00000          -1   0.00000       0.00000    
      1702 IM1      25       IM1      C1       CD33G     2.39060       11.6110           0  -1.08100       1.00000    
      1703 IM1      25       IM1      DC1      DRUD     -2.55160      0.400000           0   0.00000       0.00000    
      1704 IM1      25       IM1      H1       HDA3A    0.940000E-01   1.00800           0   0.00000       0.00000    
      1705 IM1      25       IM1      H2       HDA3A    0.940000E-01   1.00800           0   0.00000       0.00000    
      1706 IM1      25       IM1      H3       HDA3A    0.940000E-01   1.00800           0   0.00000       0.00000    
      1707 IM1      25       IM1      N1       ND2R5A    2.67030       13.6070           0  -1.06300       1.30000    
      1708 IM1      25       IM1      DN1      DRUD     -2.53030      0.400000           0   0.00000       0.00000    
      1709 IM1      25       IM1      C2       CD2R5A    2.51190       11.6110           0  -1.37800       1.30000    
      1710 IM1      25       IM1      DC2      DRUD     -2.88090      0.400000           0   0.00000       0.00000    
      1711 IM1      25       IM1      H4       HDR5A    0.150000       1.00800           0   0.00000       0.00000    
      1712 IM1      25       IM1      C3       CD2R5A    3.06890       11.6110           0  -1.37800       1.30000    
      1713 IM1      25       IM1      DC3      DRUD     -2.88090      0.400000           0   0.00000       0.00000    
      1714 IM1      25       IM1      H5       HDR5A    0.530000E-01   1.00800           0   0.00000       0.00000    
      1715 IM1      25       IM1      C4       CD2R5B    2.40440       11.6110           0 -0.868000       1.30000    
      1716 IM1      25       IM1      DC4      DRUD     -2.28640      0.400000           0   0.00000       0.00000    
      1717 IM1      25       IM1      H6       HDR5B    0.730000E-01   1.00800           0   0.00000       0.00000    
      1718 IM1      25       IM1      N2       ND2R5B    2.24930       13.6070           0 -0.840000       1.00000    
      1719 IM1      25       IM1      DN2      DRUD     -2.24930      0.400000           0   0.00000       0.00000    
      1720 IM1      25       IM1      H7       DUMH      0.00000       1.00800           0   0.00000       0.00000    
      1721 IM1      25       IM1      LPN21    LPD     -0.474000       0.00000          -1   0.00000       0.00000    
      1722 IM1      26       IM1      C1       CD33G     2.39060       11.6110           0  -1.08100       1.00000    
      1723 IM1      26       IM1      DC1      DRUD     -2.55160      0.400000           0   0.00000       0.00000    
      1724 IM1      26       IM1      H1       HDA3A    0.940000E-01   1.00800           0   0.00000       0.00000    
      1725 IM1      26       IM1      H2       HDA3A    0.940000E-01   1.00800           0   0.00000       0.00000    
      1726 IM1      26       IM1      H3       HDA3A    0.940000E-01   1.00800           0   0.00000       0.00000    
      1727 IM1      26       IM1      N1       ND2R5A    2.67030       13.6070           0  -1.06300       1.30000    
      1728 IM1      26       IM1      DN1      DRUD     -2.53030      0.400000           0   0.00000       0.00000    
      1729 IM1      26       IM1      C2       CD2R5A    2.51190       11.6110           0  -1.37800       1.30000    
      1730 IM1      26       IM1      DC2      DRUD     -2.88090      0.400000           0   0.00000       0.00000    
      1731 IM1      26       IM1      H4       HDR5A    0.150000       1.00800           0   0.00000       0.00000    
      1732 IM1      26       IM1      C3       CD2R5A    3.06890       11.6110           0  -1.37800       1.30000    
      1733 IM1      26       IM1      DC3      DRUD     -2.88090      0.400000           0   0.00000       0.00000    
      1734 IM1      26       IM1      H5       HDR5A    0.530000E-01   1.00800           0   0.00000       0.00000    
      1735 IM1      26       IM1      C4       CD2R5B    2.40440       11.6110           0 -0.868000       1.30000    
      1736 IM1      26       IM1      DC4      DRUD     -2.28640      0.400000           0   0.00000       0.00000    
      1737 IM1      26       IM1      H6       HDR5B    0.730000E-01   1.00800           0   0.00000       0.00000    
      1738 IM1      26       IM1      N2       ND2R5B    2.24930       13.6070           0 -0.840000       1.00000    
      1739 IM1      26       IM1      DN2      DRUD     -2.24930      0.400000           0   0.00000       0.00000    
      1740 IM1      26       IM1      H7       DUMH      0.00000       1.00800           0   0.00000       0.00000    
      1741 IM1      26       IM1      LPN21    LPD     -0.474000       0.00000          -1   0.00000       0.00000    
      1742 IM1      27       IM1      C1       CD33G     2.39060       11.6110           0  -1.08100       1.00000    
      1743 IM1      27       IM1      DC1      DRUD     -2.55160      0.400000           0   0.00000       0.00000    
      1744 IM1      27       IM1      H1       HDA3A    0.940000E-01   1.00800           0   0.00000       0.00000    
      1745 IM1      27       IM1      H2       HDA3A    0.940000E-01   1.00800           0   0.00000       0.00000    
      1746 IM1      27       IM1      H3       HDA3A    0.940000E-01   1.00800           0   0.00000       0.00000    
      1747 IM1      27       IM1      N1       ND2R5A    2.67030       13.6070           0  -1.06300       1.30000    
      1748 IM1      27       IM1      DN1      DRUD     -2.53030      0.400000           0   0.00000       0.00000    
      1749 IM1      27       IM1      C2       CD2R5A    2.51190       11.6110           0  -1.37800       1.30000    
      1750 IM1      27       IM1      DC2      DRUD     -2.88090      0.400000           0   0.00000       0.00000    
      1751 IM1      27       IM1      H4       HDR5A    0.150000       1.00800           0   0.00000       0.00000    
      1752 IM1      27       IM1      C3       CD2R5A    3.06890       11.6110           0  -1.37800       1.30000    
      1753 IM1      27       IM1      DC3      DRUD     -2.88090      0.400000           0   0.00000       0.00000    
      1754 IM1      27       IM1      H5       HDR5A    0.530000E-01   1.00800           0   0.00000       0.00000    
      1755 IM1      27       IM1      C4       CD2R5B    2.40440       11.6110           0 -0.868000       1.30000    
      1756 IM1      27       IM1      DC4      DRUD     -2.28640      0.400000           0   0.00000       0.00000    
      1757 IM1      27       IM1      H6       HDR5B    0.730000E-01   1.00800           0   0.00000       0.00000    
      1758 IM1      27       IM1      N2       ND2R5B    2.24930       13.6070           0 -0.840000       1.00000    
      1759 IM1      27       IM1      DN2      DRUD     -2.24930      0.400000           0   0.00000       0.00000    
      1760 IM1      27       IM1      H7       DUMH      0.00000       1.00800           0   0.00000       0.00000    
      1761 IM1      27       IM1      LPN21    LPD     -0.474000       0.00000          -1   0.00000       0.00000    
      1762 IM1      28       IM1      C1       CD33G     2.39060       11.6110           0  -1.08100       1.00000    
      1763 IM1      28       IM1      DC1      DRUD     -2.55160      0.400000           0   0.00000       0.00000    
      1764 IM1      28       IM1      H1       HDA3A    0.940000E-01   1.00800           0   0.00000       0.00000    
      1765 IM1      28       IM1      H2       HDA3A    0.940000E-01   1.00800           0   0.00000       0.00000    
      1766 IM1      28       IM1      H3       HDA3A    0.940000E-01   1.00800           0   0.00000       0.00000    
      1767 IM1      28       IM1      N1       ND2R5A    2.67030       13.6070           0  -1.06300       1.30000    
      1768 IM1      28       IM1      DN1      DRUD     -2.53030      0.400000           0   0.00000       0.00000    
      1769 IM1      28       IM1      C2       CD2R5A    2.51190       11.6110           0  -1.37800       1.30000    
      1770 IM1      28       IM1      DC2      DRUD     -2.88090      0.400000           0   0.00000       0.00000    
      1771 IM1      28       IM1      H4       HDR5A    0.150000       1.00800           0   0.00000       0.00000    
      1772 IM1      28       IM1      C3       CD2R5A    3.06890       11.6110           0  -1.37800       1.30000    
      1773 IM1      28       IM1      DC3      DRUD     -2.88090      0.400000           0   0.00000       0.00000    
      1774 IM1      28       IM1      H5       HDR5A    0.530000E-01   1.00800           0   0.00000       0.00000    
      1775 IM1      28       IM1      C4       CD2R5B    2.40440       11.6110           0 -0.868000       1.30000    
      1776 IM1      28       IM1      DC4      DRUD     -2.28640      0.400000           0   0.00000       0.00000    
      1777 IM1      28       IM1      H6       HDR5B    0.730000E-01   1.00800           0   0.00000       0.00000    
      1778 IM1      28       IM1      N2       ND2R5B    2.24930       13.6070           0 -0.840000       1.00000    
      1779 IM1      28       IM1      DN2      DRUD     -2.24930      0.400000           0   0.00000       0.00000    
      1780 IM1      28       IM1      H7       DUMH      0.00000       1.00800           0   0.00000       0.00000    
      1781 IM1      28       IM1      LPN21    LPD     -0.474000       0.00000          -1   0.00000       0.00000    
      1782 IM1      29       IM1      C1       CD33G     2.39060       11.6110           0  -1.08100       1.00000    
      1783 IM1      29       IM1      DC1      DRUD     -2.55160      0.400000           0   0.00000       0.00000    
      1784 IM1      29       IM1      H1       HDA3A    0.940000E-01   1.00800           0   0.00000       0.00000    
      1785 IM1      29       IM1      H2       HDA3A    0.940000E-01   1.00800           0   0.00000       0.00000    
      1786 IM1      29       IM1      H3       HDA3A    0.940000E-01   1.00800           0   0.00000       0.00000    
      1787 IM1      29       IM1      N1       ND2R5A    2.67030       13.6070           0  -1.06300       1.30000    
      1788 IM1      29       IM1      DN1      DRUD     -2.53030      0.400000           0   0.00000       0.00000    
      1789 IM1      29       IM1      C2       CD2R5A    2.51190       11.6110           0  -1.37800       1.30000    
      1790 IM1      29       IM1      DC2      DRUD     -2.88090      0.400000           0   0.00000       0.00000    
      1791 IM1      29       IM1      H4       HDR5A    0.150000       1.00800           0   0.00000       0.00000    
      1792 IM1      29       IM1      C3       CD2R5A    3.06890       11.6110           0  -1.37800       1.30000    
      1793 IM1      29       IM1      DC3      DRUD     -2.88090      0.400000           0   0.00000       0.00000    
      1794 IM1      29       IM1      H5       HDR5A    0.530000E-01   1.00800           0   0.00000       0.00000    
      1795 IM1      29       IM1      C4       CD2R5B    2.40440       11.6110           0 -0.868000       1.30000    
      1796 IM1      29       IM1      DC4      DRUD     -2.28640      0.400000           0   0.00000       0.00000    
      1797 IM1      29       IM1      H6       HDR5B    0.730000E-01   1.00800           0   0.00000       0.00000    
      1798 IM1      29       IM1      N2       ND2R5B    2.24930       13.6070           0 -0.840000       1.00000    
      1799 IM1      29       IM1      DN2      DRUD     -2.24930      0.400000           0   0.00000       0.00000    
      1800 IM1      29       IM1      H7       DUMH      0.00000       1.00800           0   0.00000       0.00000    
      1801 IM1      29       IM1      LPN21    LPD     -0.474000       0.00000          -1   0.00000       0.00000    
      1802 IM1      30       IM1      C1       CD33G     2.39060       11.6110           0  -1.08100       1.00000    
      1803 IM1      30       IM1      DC1      DRUD     -2.55160      0.400000           0   0.00000       0.00000    
      1804 IM1      30       IM1      H1       HDA3A    0.940000E-01   1.00800           0   0.00000       0.00000    
      1805 IM1      30       IM1      H2       HDA3A    0.940000E-01   1.00800           0   0.00000       0.00000    
      1806 IM1      30       IM1      H3       HDA3A    0.940000E-01   1.00800           0   0.00000       0.00000    
      1807 IM1      30       IM1      N1       ND2R5A    2.67030       13.6070           0  -1.06300       1.30000    
      1808 IM1      30       IM1      DN1      DRUD     -2.53030      0.400000           0   0.00000       0.00000    
      1809 IM1      30       IM1      C2       CD2R5A    2.51190       11.6110           0  -1.37800       1.30000    
      1810 IM1      30       IM1      DC2      DRUD     -2.88090      0.400000           0   0.00000       0.00000    
      1811 IM1      30       IM1      H4       HDR5A    0.150000       1.00800           0   0.00000       0.00000    
      1812 IM1      30       IM1      C3       CD2R5A    3.06890       11.6110           0  -1.37800       1.30000    
      1813 IM1      30       IM1      DC3      DRUD     -2.88090      0.400000           0   0.00000       0.00000    
      1814 IM1      30       IM1      H5       HDR5A    0.530000E-01   1.00800           0   0.00000       0.00000    
      1815 IM1      30       IM1      C4       CD2R5B    2.40440       11.6110           0 -0.868000       1.30000    
      1816 IM1      30       IM1      DC4      DRUD     -2.28640      0.400000           0   0.00000       0.00000    
      1817 IM1      30       IM1      H6       HDR5B    0.730000E-01   1.00800           0   0.00000       0.00000    
      1818 IM1      30       IM1      N2       ND2R5B    2.24930       13.6070           0 -0.840000       1.00000    
      1819 IM1      30       IM1      DN2      DRUD     -2.24930      0.400000           0   0.00000       0.00000    
      1820 IM1      30       IM1      H7       DUMH      0.00000       1.00800           0   0.00000       0.00000    
      1821 IM1      30       IM1      LPN21    LPD     -0.474000       0.00000          -1   0.00000       0.00000    
      1822 IM1      31       IM1      C1       CD33G     2.39060       11.6110           0  -1.08100       1.00000    
      1823 IM1      31       IM1      DC1      DRUD     -2.55160      0.400000           0   0.00000       0.00000    
      1824 IM1      31       IM1      H1       HDA3A    0.940000E-01   1.00800           0   0.00000       0.00000    
      1825 IM1      31       IM1      H2       HDA3A    0.940000E-01   1.00800           0   0.00000       0.00000    
      1826 IM1      31       IM1      H3       HDA3A    0.940000E-01   1.00800           0   0.00000       0.00000    
      1827 IM1      31       IM1      N1       ND2R5A    2.67030       13.6070           0  -1.06300       1.30000    
      1828 IM1      31       IM1      DN1      DRUD     -2.53030      0.400000           0   0.00000       0.00000    
      1829 IM1      31       IM1      C2       CD2R5A    2.51190       11.6110           0  -1.37800       1.30000    
      1830 IM1      31       IM1      DC2      DRUD     -2.88090      0.400000           0   0.00000       0.00000    
      1831 IM1      31       IM1      H4       HDR5A    0.150000       1.00800           0   0.00000       0.00000    
      1832 IM1      31       IM1      C3       CD2R5A    3.06890       11.6110           0  -1.37800       1.30000    
      1833 IM1      31       IM1      DC3      DRUD     -2.88090      0.400000           0   0.00000       0.00000    
      1834 IM1      31       IM1      H5       HDR5A    0.530000E-01   1.00800           0   0.00000       0.00000    
      1835 IM1      31       IM1      C4       CD2R5B    2.40440       11.6110           0 -0.868000       1.30000    
      1836 IM1      31       IM1      DC4      DRUD     -2.28640      0.400000           0   0.00000       0.00000    
      1837 IM1      31       IM1      H6       HDR5B    0.730000E-01   1.00800           0   0.00000       0.00000    
      1838 IM1      31       IM1      N2       ND2R5B    2.24930       13.6070           0 -0.840000       1.00000    
      1839 IM1      31       IM1      DN2      DRUD     -2.24930      0.400000           0   0.00000       0.00000    
      1840 IM1      31       IM1      H7       DUMH      0.00000       1.00800           0   0.00000       0.00000    
      1841 IM1      31       IM1      LPN21    LPD     -0.474000       0.00000          -1   0.00000       0.00000    
      1842 IM1      32       IM1      C1       CD33G     2.39060       11.6110           0  -1.08100       1.00000    
      1843 IM1      32       IM1      DC1      DRUD     -2.55160      0.400000           0   0.00000       0.00000    
      1844 IM1      32       IM1      H1       HDA3A    0.940000E-01   1.00800           0   0.00000       0.00000    
      1845 IM1      32       IM1      H2       HDA3A    0.940000E-01   1.00800           0   0.00000       0.00000    
      1846 IM1      32       IM1      H3       HDA3A    0.940000E-01   1.00800           0   0.00000       0.00000    
      1847 IM1      32       IM1      N1       ND2R5A    2.67030       13.6070           0  -1.06300       1.30000    
      1848 IM1      32       IM1      DN1      DRUD     -2.53030      0.400000           0   0.00000       0.00000    
      1849 IM1      32       IM1      C2       CD2R5A    2.51190       11.6110           0  -1.37800       1.30000    
      1850 IM1      32       IM1      DC2      DRUD     -2.88090      0.400000           0   0.00000       0.00000    
      1851 IM1      32       IM1      H4       HDR5A    0.150000       1.00800           0   0.00000       0.00000    
      1852 IM1      32       IM1      C3       CD2R5A    3.06890       11.6110           0  -1.37800       1.30000    
      1853 IM1      32       IM1      DC3      DRUD     -2.88090      0.400000           0   0.00000       0.00000    
      1854 IM1      32       IM1      H5       HDR5A    0.530000E-01   1.00800           0   0.00000       0.00000    
      1855 IM1      32       IM1      C4       CD2R5B    2.40440       11.6110           0 -0.868000       1.30000    
      1856 IM1      32       IM1      DC4      DRUD     -2.28640      0.400000           0   0.00000       0.00000    
      1857 IM1      32       IM1      H6       HDR5B    0.730000E-01   1.00800           0   0.00000       0.00000    
      1858 IM1      32       IM1      N2       ND2R5B    2.24930       13.6070           0 -0.840000       1.00000    
      1859 IM1      32       IM1      DN2      DRUD     -2.24930      0.400000           0   0.00000       0.00000    
      1860 IM1      32       IM1      H7       DUMH      0.00000       1.00800           0   0.00000       0.00000    
      1861 IM1      32       IM1      LPN21    LPD     -0.474000       0.00000          -1   0.00000       0.00000    
      1862 IM1      33       IM1      C1       CD33G     2.39060       11.6110           0  -1.08100       1.00000    
      1863 IM1      33       IM1      DC1      DRUD     -2.55160      0.400000           0   0.00000       0.00000    
      1864 IM1      33       IM1      H1       HDA3A    0.940000E-01   1.00800           0   0.00000       0.00000    
      1865 IM1      33       IM1      H2       HDA3A    0.940000E-01   1.00800           0   0.00000       0.00000    
      1866 IM1      33       IM1      H3       HDA3A    0.940000E-01   1.00800           0   0.00000       0.00000    
      1867 IM1      33       IM1      N1       ND2R5A    2.67030       13.6070           0  -1.06300       1.30000    
      1868 IM1      33       IM1      DN1      DRUD     -2.53030      0.400000           0   0.00000       0.00000    
      1869 IM1      33       IM1      C2       CD2R5A    2.51190       11.6110           0  -1.37800       1.30000    
      1870 IM1      33       IM1      DC2      DRUD     -2.88090      0.400000           0   0.00000       0.00000    
      1871 IM1      33       IM1      H4       HDR5A    0.150000       1.00800           0   0.00000       0.00000    
      1872 IM1      33       IM1      C3       CD2R5A    3.06890       11.6110           0  -1.37800       1.30000    
      1873 IM1      33       IM1      DC3      DRUD     -2.88090      0.400000           0   0.00000       0.00000    
      1874 IM1      33       IM1      H5       HDR5A    0.530000E-01   1.00800           0   0.00000       0.00000    
      1875 IM1      33       IM1      C4       CD2R5B    2.40440       11.6110           0 -0.868000       1.30000    
      1876 IM1      33       IM1      DC4      DRUD     -2.28640      0.400000           0   0.00000       0.00000    
      1877 IM1      33       IM1      H6       HDR5B    0.730000E-01   1.00800           0   0.00000       0.00000    
      1878 IM1      33       IM1      N2       ND2R5B    2.24930       13.6070           0 -0.840000       1.00000    
      1879 IM1      33       IM1      DN2      DRUD     -2.24930      0.400000           0   0.00000       0.00000    
      1880 IM1      33       IM1      H7       DUMH      0.00000       1.00800           0   0.00000       0.00000    
      1881 IM1      33       IM1      LPN21    LPD     -0.474000       0.00000          -1   0.00000       0.00000    
      1882 IM1      34       IM1      C1       CD33G     2.39060       11.6110           0  -1.08100       1.00000    
      1883 IM1      34       IM1      DC1      DRUD     -2.55160      0.400000           0   0.00000       0.00000    
      1884 IM1      34       IM1      H1       HDA3A    0.940000E-01   1.00800           0   0.00000       0.00000    
      1885 IM1      34       IM1      H2       HDA3A    0.940000E-01   1.00800           0   0.00000       0.00000    
      1886 IM1      34       IM1      H3       HDA3A    0.940000E-01   1.00800           0   0.00000       0.00000    
      1887 IM1      34       IM1      N1       ND2R5A    2.67030       13.6070           0  -1.06300       1.30000    
      1888 IM1      34       IM1      DN1      DRUD     -2.53030      0.400000           0   0.00000       0.00000    
      1889 IM1      34       IM1      C2       CD2R5A    2.51190       11.6110           0  -1.37800       1.30000    
      1890 IM1      34       IM1      DC2      DRUD     -2.88090      0.400000           0   0.00000       0.00000    
      1891 IM1      34       IM1      H4       HDR5A    0.150000       1.00800           0   0.00000       0.00000    
      1892 IM1      34       IM1      C3       CD2R5A    3.06890       11.6110           0  -1.37800       1.30000    
      1893 IM1      34       IM1      DC3      DRUD     -2.88090      0.400000           0   0.00000       0.00000    
      1894 IM1      34       IM1      H5       HDR5A    0.530000E-01   1.00800           0   0.00000       0.00000    
      1895 IM1      34       IM1      C4       CD2R5B    2.40440       11.6110           0 -0.868000       1.30000    
      1896 IM1      34       IM1      DC4      DRUD     -2.28640      0.400000           0   0.00000       0.00000    
      1897 IM1      34       IM1      H6       HDR5B    0.730000E-01   1.00800           0   0.00000       0.00000    
      1898 IM1      34       IM1      N2       ND2R5B    2.24930       13.6070           0 -0.840000       1.00000    
      1899 IM1      34       IM1      DN2      DRUD     -2.24930      0.400000           0   0.00000       0.00000    
      1900 IM1      34       IM1      H7       DUMH      0.00000       1.00800           0   0.00000       0.00000    
      1901 IM1      34       IM1      LPN21    LPD     -0.474000       0.00000          -1   0.00000       0.00000    
      1902 IM1      35       IM1      C1       CD33G     2.39060       11.6110           0  -1.08100       1.00000    
      1903 IM1      35       IM1      DC1      DRUD     -2.55160      0.400000           0   0.00000       0.00000    
      1904 IM1      35       IM1      H1       HDA3A    0.940000E-01   1.00800           0   0.00000       0.00000    
      1905 IM1      35       IM1      H2       HDA3A    0.940000E-01   1.00800           0   0.00000       0.00000    
      1906 IM1      35       IM1      H3       HDA3A    0.940000E-01   1.00800           0   0.00000       0.00000    
      1907 IM1      35       IM1      N1       ND2R5A    2.67030       13.6070           0  -1.06300       1.30000    
      1908 IM1      35       IM1      DN1      DRUD     -2.53030      0.400000           0   0.00000       0.00000    
      1909 IM1      35       IM1      C2       CD2R5A    2.51190       11.6110           0  -1.37800       1.30000    
      1910 IM1      35       IM1      DC2      DRUD     -2.88090      0.400000           0   0.00000       0.00000    
      1911 IM1      35       IM1      H4       HDR5A    0.150000       1.00800           0   0.00000       0.00000    
      1912 IM1      35       IM1      C3       CD2R5A    3.06890       11.6110           0  -1.37800       1.30000    
      1913 IM1      35       IM1      DC3      DRUD     -2.88090      0.400000           0   0.00000       0.00000    
      1914 IM1      35       IM1      H5       HDR5A    0.530000E-01   1.00800           0   0.00000       0.00000    
      1915 IM1      35       IM1      C4       CD2R5B    2.40440       11.6110           0 -0.868000       1.30000    
      1916 IM1      35       IM1      DC4      DRUD     -2.28640      0.400000           0   0.00000       0.00000    
      1917 IM1      35       IM1      H6       HDR5B    0.730000E-01   1.00800           0   0.00000       0.00000    
      1918 IM1      35       IM1      N2       ND2R5B    2.24930       13.6070           0 -0.840000       1.00000    
      1919 IM1      35       IM1      DN2      DRUD     -2.24930      0.400000           0   0.00000       0.00000    
      1920 IM1      35       IM1      H7       DUMH      0.00000       1.00800           0   0.00000       0.00000    
      1921 IM1      35       IM1      LPN21    LPD     -0.474000       0.00000          -1   0.00000       0.00000    
      1922 IM1      36       IM1      C1       CD33G     2.39060       11.6110           0  -1.08100       1.00000    
      1923 IM1      36       IM1      DC1      DRUD     -2.55160      0.400000           0   0.00000       0.00000    
      1924 IM1      36       IM1      H1       HDA3A    0.940000E-01   1.00800           0   0.00000       0.00000    
      1925 IM1      36       IM1      H2       HDA3A    0.940000E-01   1.00800           0   0.00000       0.00000    
      1926 IM1      36       IM1      H3       HDA3A    0.940000E-01   1.00800           0   0.00000       0.00000    
      1927 IM1      36       IM1      N1       ND2R5A    2.67030       13.6070           0  -1.06300       1.30000    
      1928 IM1      36       IM1      DN1      DRUD     -2.53030      0.400000           0   0.00000       0.00000    
      1929 IM1      36       IM1      C2       CD2R5A    2.51190       11.6110           0  -1.37800       1.30000    
      1930 IM1      36       IM1      DC2      DRUD     -2.88090      0.400000           0   0.00000       0.00000    
      1931 IM1      36       IM1      H4       HDR5A    0.150000       1.00800           0   0.00000       0.00000    
      1932 IM1      36       IM1      C3       CD2R5A    3.06890       11.6110           0  -1.37800       1.30000    
      1933 IM1      36       IM1      DC3      DRUD     -2.88090      0.400000           0   0.00000       0.00000    
      1934 IM1      36       IM1      H5       HDR5A    0.530000E-01   1.00800           0   0.00000       0.00000    
      1935 IM1      36       IM1      C4       CD2R5B    2.40440       11.6110           0 -0.868000       1.30000    
      1936 IM1      36       IM1      DC4      DRUD     -2.28640      0.400000           0   0.00000       0.00000    
      1937 IM1      36       IM1      H6       HDR5B    0.730000E-01   1.00800           0   0.00000       0.00000    
      1938 IM1      36       IM1      N2       ND2R5B    2.24930       13.6070           0 -0.840000       1.00000    
      1939 IM1      36       IM1      DN2      DRUD     -2.24930      0.400000           0   0.00000       0.00000    
      1940 IM1      36       IM1      H7       DUMH      0.00000       1.00800           0   0.00000       0.00000    
      1941 IM1      36       IM1      LPN21    LPD     -0.474000       0.00000          -1   0.00000       0.00000    
      1942 IM1      37       IM1      C1       CD33G     2.39060       11.6110           0  -1.08100       1.00000    
      1943 IM1      37       IM1      DC1      DRUD     -2.55160      0.400000           0   0.00000       0.00000    
      1944 IM1      37       IM1      H1       HDA3A    0.940000E-01   1.00800           0   0.00000       0.00000    
      1945 IM1      37       IM1      H2       HDA3A    0.940000E-01   1.00800           0   0.00000       0.00000    
      1946 IM1      37       IM1      H3       HDA3A    0.940000E-01   1.00800           0   0.00000       0.00000    
      1947 IM1      37       IM1      N1       ND2R5A    2.67030       13.6070           0  -1.06300       1.30000    
      1948 IM1      37       IM1      DN1      DRUD     -2.53030      0.400000           0   0.00000       0.00000    
      1949 IM1      37       IM1      C2       CD2R5A    2.51190       11.6110           0  -1.37800       1.30000    
      1950 IM1      37       IM1      DC2      DRUD     -2.88090      0.400000           0   0.00000       0.00000    
      1951 IM1      37       IM1      H4       HDR5A    0.150000       1.00800           0   0.00000       0.00000    
      1952 IM1      37       IM1      C3       CD2R5A    3.06890       11.6110           0  -1.37800       1.30000    
      1953 IM1      37       IM1      DC3      DRUD     -2.88090      0.400000           0   0.00000       0.00000    
      1954 IM1      37       IM1      H5       HDR5A    0.530000E-01   1.00800           0   0.00000       0.00000    
      1955 IM1      37       IM1      C4       CD2R5B    2.40440       11.6110           0 -0.868000       1.30000    
      1956 IM1      37       IM1      DC4      DRUD     -2.28640      0.400000           0   0.00000       0.00000    
      1957 IM1      37       IM1      H6       HDR5B    0.730000E-01   1.00800           0   0.00000       0.00000    
      1958 IM1      37       IM1      N2       ND2R5B    2.24930       13.6070           0 -0.840000       1.00000    
      1959 IM1      37       IM1      DN2      DRUD     -2.24930      0.400000           0   0.00000       0.00000    
      1960 IM1      37       IM1      H7       DUMH      0.00000       1.00800           0   0.00000       0.00000    
      1961 IM1      37       IM1      LPN21    LPD     -0.474000       0.00000          -1   0.00000       0.00000    
      1962 IM1      38       IM1      C1       CD33G     2.39060       11.6110           0  -1.08100       1.00000    
      1963 IM1      38       IM1      DC1      DRUD     -2.55160      0.400000           0   0.00000       0.00000    
      1964 IM1      38       IM1      H1       HDA3A    0.940000E-01   1.00800           0   0.00000       0.00000    
      1965 IM1      38       IM1      H2       HDA3A    0.940000E-01   1.00800           0   0.00000       0.00000    
      1966 IM1      38       IM1      H3       HDA3A    0.940000E-01   1.00800           0   0.00000       0.00000    
      1967 IM1      38       IM1      N1       ND2R5A    2.67030       13.6070           0  -1.06300       1.30000    
      1968 IM1      38       IM1      DN1      DRUD     -2.53030      0.400000           0   0.00000       0.00000    
      1969 IM1      38       IM1      C2       CD2R5A    2.51190       11.6110           0  -1.37800       1.30000    
      1970 IM1      38       IM1      DC2      DRUD     -2.88090      0.400000           0   0.00000       0.00000    
      1971 IM1      38       IM1      H4       HDR5A    0.150000       1.00800           0   0.00000       0.00000    
      1972 IM1      38       IM1      C3       CD2R5A    3.06890       11.6110           0  -1.37800       1.30000    
      1973 IM1      38       IM1      DC3      DRUD     -2.88090      0.400000           0   0.00000       0.00000    
      1974 IM1      38       IM1      H5       HDR5A    0.530000E-01   1.00800           0   0.00000       0.00000    
      1975 IM1      38       IM1      C4       CD2R5B    2.40440       11.6110           0 -0.868000       1.30000    
      1976 IM1      38       IM1      DC4      DRUD     -2.28640      0.400000           0   0.00000       0.00000    
      1977 IM1      38       IM1      H6       HDR5B    0.730000E-01   1.00800           0   0.00000       0.00000    
      1978 IM1      38       IM1      N2       ND2R5B    2.24930       13.6070           0 -0.840000       1.00000    
      1979 IM1      38       IM1      DN2      DRUD     -2.24930      0.400000           0   0.00000       0.00000    
      1980 IM1      38       IM1      H7       DUMH      0.00000       1.00800           0   0.00000       0.00000    
      1981 IM1      38       IM1      LPN21    LPD     -0.474000       0.00000          -1   0.00000       0.00000    
      1982 IM1      39       IM1      C1       CD33G     2.39060       11.6110           0  -1.08100       1.00000    
      1983 IM1      39       IM1      DC1      DRUD     -2.55160      0.400000           0   0.00000       0.00000    
      1984 IM1      39       IM1      H1       HDA3A    0.940000E-01   1.00800           0   0.00000       0.00000    
      1985 IM1      39       IM1      H2       HDA3A    0.940000E-01   1.00800           0   0.00000       0.00000    
      1986 IM1      39       IM1      H3       HDA3A    0.940000E-01   1.00800           0   0.00000       0.00000    
      1987 IM1      39       IM1      N1       ND2R5A    2.67030       13.6070           0  -1.06300       1.30000    
      1988 IM1      39       IM1      DN1      DRUD     -2.53030      0.400000           0   0.00000       0.00000    
      1989 IM1      39       IM1      C2       CD2R5A    2.51190       11.6110           0  -1.37800       1.30000    
      1990 IM1      39       IM1      DC2      DRUD     -2.88090      0.400000           0   0.00000       0.00000    
      1991 IM1      39       IM1      H4       HDR5A    0.150000       1.00800           0   0.00000       0.00000    
      1992 IM1      39       IM1      C3       CD2R5A    3.06890       11.6110           0  -1.37800       1.30000    
      1993 IM1      39       IM1      DC3      DRUD     -2.88090      0.400000           0   0.00000       0.00000    
      1994 IM1      39       IM1      H5       HDR5A    0.530000E-01   1.00800           0   0.00000       0.00000    
      1995 IM1      39       IM1      C4       CD2R5B    2.40440       11.6110           0 -0.868000       1.30000    
      1996 IM1      39       IM1      DC4      DRUD     -2.28640      0.400000           0   0.00000       0.00000    
      1997 IM1      39       IM1      H6       HDR5B    0.730000E-01   1.00800           0   0.00000       0.00000    
      1998 IM1      39       IM1      N2       ND2R5B    2.24930       13.6070           0 -0.840000       1.00000    
      1999 IM1      39       IM1      DN2      DRUD     -2.24930      0.400000           0   0.00000       0.00000    
      2000 IM1      39       IM1      H7       DUMH      0.00000       1.00800           0   0.00000       0.00000    
      2001 IM1      39       IM1      LPN21    LPD     -0.474000       0.00000          -1   0.00000       0.00000    
      2002 IM1      40       IM1      C1       CD33G     2.39060       11.6110           0  -1.08100       1.00000    
      2003 IM1      40       IM1      DC1      DRUD     -2.55160      0.400000           0   0.00000       0.00000    
      2004 IM1      40       IM1      H1       HDA3A    0.940000E-01   1.00800           0   0.00000       0.00000    
      2005 IM1      40       IM1      H2       HDA3A    0.940000E-01   1.00800           0   0.00000       0.00000    
      2006 IM1      40       IM1      H3       HDA3A    0.940000E-01   1.00800           0   0.00000       0.00000    
      2007 IM1      40       IM1      N1       ND2R5A    2.67030       13.6070           0  -1.06300       1.30000    
      2008 IM1      40       IM1      DN1      DRUD     -2.53030      0.400000           0   0.00000       0.00000    
      2009 IM1      40       IM1      C2       CD2R5A    2.51190       11.6110           0  -1.37800       1.30000    
      2010 IM1      40       IM1      DC2      DRUD     -2.88090      0.400000           0   0.00000       0.00000    
      2011 IM1      40       IM1      H4       HDR5A    0.150000       1.00800           0   0.00000       0.00000    
      2012 IM1      40       IM1      C3       CD2R5A    3.06890       11.6110           0  -1.37800       1.30000    
      2013 IM1      40       IM1      DC3      DRUD     -2.88090      0.400000           0   0.00000       0.00000    
      2014 IM1      40       IM1      H5       HDR5A    0.530000E-01   1.00800           0   0.00000       0.00000    
      2015 IM1      40       IM1      C4       CD2R5B    2.40440       11.6110           0 -0.868000       1.30000    
      2016 IM1      40       IM1      DC4      DRUD     -2.28640      0.400000           0   0.00000       0.00000    
      2017 IM1      40       IM1      H6       HDR5B    0.730000E-01   1.00800           0   0.00000       0.00000    
      2018 IM1      40       IM1      N2       ND2R5B    2.24930       13.6070           0 -0.840000       1.00000    
      2019 IM1      40       IM1      DN2      DRUD     -2.24930      0.400000           0   0.00000       0.00000    
      2020 IM1      40       IM1      H7       DUMH      0.00000       1.00800           0   0.00000       0.00000    
      2021 IM1      40       IM1      LPN21    LPD     -0.474000       0.00000          -1   0.00000       0.00000    
      2022 IM1      41       IM1      C1       CD33G     2.39060       11.6110           0  -1.08100       1.00000    
      2023 IM1      41       IM1      DC1      DRUD     -2.55160      0.400000           0   0.00000       0.00000    
      2024 IM1      41       IM1      H1       HDA3A    0.940000E-01   1.00800           0   0.00000       0.00000    
      2025 IM1      41       IM1      H2       HDA3A    0.940000E-01   1.00800           0   0.00000       0.00000    
      2026 IM1      41       IM1      H3       HDA3A    0.940000E-01   1.00800           0   0.00000       0.00000    
      2027 IM1      41       IM1      N1       ND2R5A    2.67030       13.6070           0  -1.06300       1.30000    
      2028 IM1      41       IM1      DN1      DRUD     -2.53030      0.400000           0   0.00000       0.00000    
      2029 IM1      41       IM1      C2       CD2R5A    2.51190       11.6110           0  -1.37800       1.30000    
      2030 IM1      41       IM1      DC2      DRUD     -2.88090      0.400000           0   0.00000       0.00000    
      2031 IM1      41       IM1      H4       HDR5A    0.150000       1.00800           0   0.00000       0.00000    
      2032 IM1      41       IM1      C3       CD2R5A    3.06890       11.6110           0  -1.37800       1.30000    
      2033 IM1      41       IM1      DC3      DRUD     -2.88090      0.400000           0   0.00000       0.00000    
      2034 IM1      41       IM1      H5       HDR5A    0.530000E-01   1.00800           0   0.00000       0.00000    
      2035 IM1      41       IM1      C4       CD2R5B    2.40440       11.6110           0 -0.868000       1.30000    
      2036 IM1      41       IM1      DC4      DRUD     -2.28640      0.400000           0   0.00000       0.00000    
      2037 IM1      41       IM1      H6       HDR5B    0.730000E-01   1.00800           0   0.00000       0.00000    
      2038 IM1      41       IM1      N2       ND2R5B    2.24930       13.6070           0 -0.840000       1.00000    
      2039 IM1      41       IM1      DN2      DRUD     -2.24930      0.400000           0   0.00000       0.00000    
      2040 IM1      41       IM1      H7       DUMH      0.00000       1.00800           0   0.00000       0.00000    
      2041 IM1      41       IM1      LPN21    LPD     -0.474000       0.00000          -1   0.00000       0.00000    
      2042 IM1      42       IM1      C1       CD33G     2.39060       11.6110           0  -1.08100       1.00000    
      2043 IM1      42       IM1      DC1      DRUD     -2.55160      0.400000           0   0.00000       0.00000    
      2044 IM1      42       IM1      H1       HDA3A    0.940000E-01   1.00800           0   0.00000       0.00000    
      2045 IM1      42       IM1      H2       HDA3A    0.940000E-01   1.00800           0   0.00000       0.00000    
      2046 IM1      42       IM1      H3       HDA3A    0.940000E-01   1.00800           0   0.00000       0.00000    
      2047 IM1      42       IM1      N1       ND2R5A    2.67030       13.6070           0  -1.06300       1.30000    
      2048 IM1      42       IM1      DN1      DRUD     -2.53030      0.400000           0   0.00000       0.00000    
      2049 IM1      42       IM1      C2       CD2R5A    2.51190       11.6110           0  -1.37800       1.30000    
      2050 IM1      42       IM1      DC2      DRUD     -2.88090      0.400000           0   0.00000       0.00000    
      2051 IM1      42       IM1      H4       HDR5A    0.150000       1.00800           0   0.00000       0.00000    
      2052 IM1      42       IM1      C3       CD2R5A    3.06890       11.6110           0  -1.37800       1.30000    
      2053 IM1      42       IM1      DC3      DRUD     -2.88090      0.400000           0   0.00000       0.00000    
      2054 IM1      42       IM1      H5       HDR5A    0.530000E-01   1.00800           0   0.00000       0.00000    
      2055 IM1      42       IM1      C4       CD2R5B    2.40440       11.6110           0 -0.868000       1.30000    
      2056 IM1      42       IM1      DC4      DRUD     -2.28640      0.400000           0   0.00000       0.00000    
      2057 IM1      42       IM1      H6       HDR5B    0.730000E-01   1.00800           0   0.00000       0.00000    
      2058 IM1      42       IM1      N2       ND2R5B    2.24930       13.6070           0 -0.840000       1.00000    
      2059 IM1      42       IM1      DN2      DRUD     -2.24930      0.400000           0   0.00000       0.00000    
      2060 IM1      42       IM1      H7       DUMH      0.00000       1.00800           0   0.00000       0.00000    
      2061 IM1      42       IM1      LPN21    LPD     -0.474000       0.00000          -1   0.00000       0.00000    
      2062 IM1      43       IM1      C1       CD33G     2.39060       11.6110           0  -1.08100       1.00000    
      2063 IM1      43       IM1      DC1      DRUD     -2.55160      0.400000           0   0.00000       0.00000    
      2064 IM1      43       IM1      H1       HDA3A    0.940000E-01   1.00800           0   0.00000       0.00000    
      2065 IM1      43       IM1      H2       HDA3A    0.940000E-01   1.00800           0   0.00000       0.00000    
      2066 IM1      43       IM1      H3       HDA3A    0.940000E-01   1.00800           0   0.00000       0.00000    
      2067 IM1      43       IM1      N1       ND2R5A    2.67030       13.6070           0  -1.06300       1.30000    
      2068 IM1      43       IM1      DN1      DRUD     -2.53030      0.400000           0   0.00000       0.00000    
      2069 IM1      43       IM1      C2       CD2R5A    2.51190       11.6110           0  -1.37800       1.30000    
      2070 IM1      43       IM1      DC2      DRUD     -2.88090      0.400000           0   0.00000       0.00000    
      2071 IM1      43       IM1      H4       HDR5A    0.150000       1.00800           0   0.00000       0.00000    
      2072 IM1      43       IM1      C3       CD2R5A    3.06890       11.6110           0  -1.37800       1.30000    
      2073 IM1      43       IM1      DC3      DRUD     -2.88090      0.400000           0   0.00000       0.00000    
      2074 IM1      43       IM1      H5       HDR5A    0.530000E-01   1.00800           0   0.00000       0.00000    
      2075 IM1      43       IM1      C4       CD2R5B    2.40440       11.6110           0 -0.868000       1.30000    
      2076 IM1      43       IM1      DC4      DRUD     -2.28640      0.400000           0   0.00000       0.00000    
      2077 IM1      43       IM1      H6       HDR5B    0.730000E-01   1.00800           0   0.00000       0.00000    
      2078 IM1      43       IM1      N2       ND2R5B    2.24930       13.6070           0 -0.840000       1.00000    
      2079 IM1      43       IM1      DN2      DRUD     -2.24930      0.400000           0   0.00000       0.00000    
      2080 IM1      43       IM1      H7       DUMH      0.00000       1.00800           0   0.00000       0.00000    
      2081 IM1      43       IM1      LPN21    LPD     -0.474000       0.00000          -1   0.00000       0.00000    
      2082 IM1      44       IM1      C1       CD33G     2.39060       11.6110           0  -1.08100       1.00000    
      2083 IM1      44       IM1      DC1      DRUD     -2.55160      0.400000           0   0.00000       0.00000    
      2084 IM1      44       IM1      H1       HDA3A    0.940000E-01   1.00800           0   0.00000       0.00000    
      2085 IM1      44       IM1      H2       HDA3A    0.940000E-01   1.00800           0   0.00000       0.00000    
      2086 IM1      44       IM1      H3       HDA3A    0.940000E-01   1.00800           0   0.00000       0.00000    
      2087 IM1      44       IM1      N1       ND2R5A    2.67030       13.6070           0  -1.06300       1.30000    
      2088 IM1      44       IM1      DN1      DRUD     -2.53030      0.400000           0   0.00000       0.00000    
      2089 IM1      44       IM1      C2       CD2R5A    2.51190       11.6110           0  -1.37800       1.30000    
      2090 IM1      44       IM1      DC2      DRUD     -2.88090      0.400000           0   0.00000       0.00000    
      2091 IM1      44       IM1      H4       HDR5A    0.150000       1.00800           0   0.00000       0.00000    
      2092 IM1      44       IM1      C3       CD2R5A    3.06890       11.6110           0  -1.37800       1.30000    
      2093 IM1      44       IM1      DC3      DRUD     -2.88090      0.400000           0   0.00000       0.00000    
      2094 IM1      44       IM1      H5       HDR5A    0.530000E-01   1.00800           0   0.00000       0.00000    
      2095 IM1      44       IM1      C4       CD2R5B    2.40440       11.6110           0 -0.868000       1.30000    
      2096 IM1      44       IM1      DC4      DRUD     -2.28640      0.400000           0   0.00000       0.00000    
      2097 IM1      44       IM1      H6       HDR5B    0.730000E-01   1.00800           0   0.00000       0.00000    
      2098 IM1      44       IM1      N2       ND2R5B    2.24930       13.6070           0 -0.840000       1.00000    
      2099 IM1      44       IM1      DN2      DRUD     -2.24930      0.400000           0   0.00000       0.00000    
      2100 IM1      44       IM1      H7       DUMH      0.00000       1.00800           0   0.00000       0.00000    
      2101 IM1      44       IM1      LPN21    LPD     -0.474000       0.00000          -1   0.00000       0.00000    
      2102 IM1      45       IM1      C1       CD33G     2.39060       11.6110           0  -1.08100       1.00000    
      2103 IM1      45       IM1      DC1      DRUD     -2.55160      0.400000           0   0.00000       0.00000    
      2104 IM1      45       IM1      H1       HDA3A    0.940000E-01   1.00800           0   0.00000       0.00000    
      2105 IM1      45       IM1      H2       HDA3A    0.940000E-01   1.00800           0   0.00000       0.00000    
      2106 IM1      45       IM1      H3       HDA3A    0.940000E-01   1.00800           0   0.00000       0.00000    
      2107 IM1      45       IM1      N1       ND2R5A    2.67030       13.6070           0  -1.06300       1.30000    
      2108 IM1      45       IM1      DN1      DRUD     -2.53030      0.400000           0   0.00000       0.00000    
      2109 IM1      45       IM1      C2       CD2R5A    2.51190       11.6110           0  -1.37800       1.30000    
      2110 IM1      45       IM1      DC2      DRUD     -2.88090      0.400000           0   0.00000       0.00000    
      2111 IM1      45       IM1      H4       HDR5A    0.150000       1.00800           0   0.00000       0.00000    
      2112 IM1      45       IM1      C3       CD2R5A    3.06890       11.6110           0  -1.37800       1.30000    
      2113 IM1      45       IM1      DC3      DRUD     -2.88090      0.400000           0   0.00000       0.00000    
      2114 IM1      45       IM1      H5       HDR5A    0.530000E-01   1.00800           0   0.00000       0.00000    
      2115 IM1      45       IM1      C4       CD2R5B    2.40440       11.6110           0 -0.868000       1.30000    
      2116 IM1      45       IM1      DC4      DRUD     -2.28640      0.400000           0   0.00000       0.00000    
      2117 IM1      45       IM1      H6       HDR5B    0.730000E-01   1.00800           0   0.00000       0.00000    
      2118 IM1      45       IM1      N2       ND2R5B    2.24930       13.6070           0 -0.840000       1.00000    
      2119 IM1      45       IM1      DN2      DRUD     -2.24930      0.400000           0   0.00000       0.00000    
      2120 IM1      45       IM1      H7       DUMH      0.00000       1.00800           0   0.00000       0.00000    
      2121 IM1      45       IM1      LPN21    LPD     -0.474000       0.00000          -1   0.00000       0.00000    
      2122 IM1      46       IM1      C1       CD33G     2.39060       11.6110           0  -1.08100       1.00000    
      2123 IM1      46       IM1      DC1      DRUD     -2.55160      0.400000           0   0.00000       0.00000    
      2124 IM1      46       IM1      H1       HDA3A    0.940000E-01   1.00800           0   0.00000       0.00000    
      2125 IM1      46       IM1      H2       HDA3A    0.940000E-01   1.00800           0   0.00000       0.00000    
      2126 IM1      46       IM1      H3       HDA3A    0.940000E-01   1.00800           0   0.00000       0.00000    
      2127 IM1      46       IM1      N1       ND2R5A    2.67030       13.6070           0  -1.06300       1.30000    
      2128 IM1      46       IM1      DN1      DRUD     -2.53030      0.400000           0   0.00000       0.00000    
      2129 IM1      46       IM1      C2       CD2R5A    2.51190       11.6110           0  -1.37800       1.30000    
      2130 IM1      46       IM1      DC2      DRUD     -2.88090      0.400000           0   0.00000       0.00000    
      2131 IM1      46       IM1      H4       HDR5A    0.150000       1.00800           0   0.00000       0.00000    
      2132 IM1      46       IM1      C3       CD2R5A    3.06890       11.6110           0  -1.37800       1.30000    
      2133 IM1      46       IM1      DC3      DRUD     -2.88090      0.400000           0   0.00000       0.00000    
      2134 IM1      46       IM1      H5       HDR5A    0.530000E-01   1.00800           0   0.00000       0.00000    
      2135 IM1      46       IM1      C4       CD2R5B    2.40440       11.6110           0 -0.868000       1.30000    
      2136 IM1      46       IM1      DC4      DRUD     -2.28640      0.400000           0   0.00000       0.00000    
      2137 IM1      46       IM1      H6       HDR5B    0.730000E-01   1.00800           0   0.00000       0.00000    
      2138 IM1      46       IM1      N2       ND2R5B    2.24930       13.6070           0 -0.840000       1.00000    
      2139 IM1      46       IM1      DN2      DRUD     -2.24930      0.400000           0   0.00000       0.00000    
      2140 IM1      46       IM1      H7       DUMH      0.00000       1.00800           0   0.00000       0.00000    
      2141 IM1      46       IM1      LPN21    LPD     -0.474000       0.00000          -1   0.00000       0.00000    
      2142 IM1      47       IM1      C1       CD33G     2.39060       11.6110           0  -1.08100       1.00000    
      2143 IM1      47       IM1      DC1      DRUD     -2.55160      0.400000           0   0.00000       0.00000    
      2144 IM1      47       IM1      H1       HDA3A    0.940000E-01   1.00800           0   0.00000       0.00000    
      2145 IM1      47       IM1      H2       HDA3A    0.940000E-01   1.00800           0   0.00000       0.00000    
      2146 IM1      47       IM1      H3       HDA3A    0.940000E-01   1.00800           0   0.00000       0.00000    
      2147 IM1      47       IM1      N1       ND2R5A    2.67030       13.6070           0  -1.06300       1.30000    
      2148 IM1      47       IM1      DN1      DRUD     -2.53030      0.400000           0   0.00000       0.00000    
      2149 IM1      47       IM1      C2       CD2R5A    2.51190       11.6110           0  -1.37800       1.30000    
      2150 IM1      47       IM1      DC2      DRUD     -2.88090      0.400000           0   0.00000       0.00000    
      2151 IM1      47       IM1      H4       HDR5A    0.150000       1.00800           0   0.00000       0.00000    
      2152 IM1      47       IM1      C3       CD2R5A    3.06890       11.6110           0  -1.37800       1.30000    
      2153 IM1      47       IM1      DC3      DRUD     -2.88090      0.400000           0   0.00000       0.00000    
      2154 IM1      47       IM1      H5       HDR5A    0.530000E-01   1.00800           0   0.00000       0.00000    
      2155 IM1      47       IM1      C4       CD2R5B    2.40440       11.6110           0 -0.868000       1.30000    
      2156 IM1      47       IM1      DC4      DRUD     -2.28640      0.400000           0   0.00000       0.00000    
      2157 IM1      47       IM1      H6       HDR5B    0.730000E-01   1.00800           0   0.00000       0.00000    
      2158 IM1      47       IM1      N2       ND2R5B    2.24930       13.6070           0 -0.840000       1.00000    
      2159 IM1      47       IM1      DN2      DRUD     -2.24930      0.400000           0   0.00000       0.00000    
      2160 IM1      47       IM1      H7       DUMH      0.00000       1.00800           0   0.00000       0.00000    
      2161 IM1      47       IM1      LPN21    LPD     -0.474000       0.00000          -1   0.00000       0.00000    
      2162 IM1      48       IM1      C1       CD33G     2.39060       11.6110           0  -1.08100       1.00000    
      2163 IM1      48       IM1      DC1      DRUD     -2.55160      0.400000           0   0.00000       0.00000    
      2164 IM1      48       IM1      H1       HDA3A    0.940000E-01   1.00800           0   0.00000       0.00000    
      2165 IM1      48       IM1      H2       HDA3A    0.940000E-01   1.00800           0   0.00000       0.00000    
      2166 IM1      48       IM1      H3       HDA3A    0.940000E-01   1.00800           0   0.00000       0.00000    
      2167 IM1      48       IM1      N1       ND2R5A    2.67030       13.6070           0  -1.06300       1.30000    
      2168 IM1      48       IM1      DN1      DRUD     -2.53030      0.400000           0   0.00000       0.00000    
      2169 IM1      48       IM1      C2       CD2R5A    2.51190       11.6110           0  -1.37800       1.30000    
      2170 IM1      48       IM1      DC2      DRUD     -2.88090      0.400000           0   0.00000       0.00000    
      2171 IM1      48       IM1      H4       HDR5A    0.150000       1.00800           0   0.00000       0.00000    
      2172 IM1      48       IM1      C3       CD2R5A    3.06890       11.6110           0  -1.37800       1.30000    
      2173 IM1      48       IM1      DC3      DRUD     -2.88090      0.400000           0   0.00000       0.00000    
      2174 IM1      48       IM1      H5       HDR5A    0.530000E-01   1.00800           0   0.00000       0.00000    
      2175 IM1      48       IM1      C4       CD2R5B    2.40440       11.6110           0 -0.868000       1.30000    
      2176 IM1      48       IM1      DC4      DRUD     -2.28640      0.400000           0   0.00000       0.00000    
      2177 IM1      48       IM1      H6       HDR5B    0.730000E-01   1.00800           0   0.00000       0.00000    
      2178 IM1      48       IM1      N2       ND2R5B    2.24930       13.6070           0 -0.840000       1.00000    
      2179 IM1      48       IM1      DN2      DRUD     -2.24930      0.400000           0   0.00000       0.00000    
      2180 IM1      48       IM1      H7       DUMH      0.00000       1.00800           0   0.00000       0.00000    
      2181 IM1      48       IM1      LPN21    LPD     -0.474000       0.00000          -1   0.00000       0.00000    
      2182 IM1      49       IM1      C1       CD33G     2.39060       11.6110           0  -1.08100       1.00000    
      2183 IM1      49       IM1      DC1      DRUD     -2.55160      0.400000           0   0.00000       0.00000    
      2184 IM1      49       IM1      H1       HDA3A    0.940000E-01   1.00800           0   0.00000       0.00000    
      2185 IM1      49       IM1      H2       HDA3A    0.940000E-01   1.00800           0   0.00000       0.00000    
      2186 IM1      49       IM1      H3       HDA3A    0.940000E-01   1.00800           0   0.00000       0.00000    
      2187 IM1      49       IM1      N1       ND2R5A    2.67030       13.6070           0  -1.06300       1.30000    
      2188 IM1      49       IM1      DN1      DRUD     -2.53030      0.400000           0   0.00000       0.00000    
      2189 IM1      49       IM1      C2       CD2R5A    2.51190       11.6110           0  -1.37800       1.30000    
      2190 IM1      49       IM1      DC2      DRUD     -2.88090      0.400000           0   0.00000       0.00000    
      2191 IM1      49       IM1      H4       HDR5A    0.150000       1.00800           0   0.00000       0.00000    
      2192 IM1      49       IM1      C3       CD2R5A    3.06890       11.6110           0  -1.37800       1.30000    
      2193 IM1      49       IM1      DC3      DRUD     -2.88090      0.400000           0   0.00000       0.00000    
      2194 IM1      49       IM1      H5       HDR5A    0.530000E-01   1.00800           0   0.00000       0.00000    
      2195 IM1      49       IM1      C4       CD2R5B    2.40440       11.6110           0 -0.868000       1.30000    
      2196 IM1      49       IM1      DC4      DRUD     -2.28640      0.400000           0   0.00000       0.00000    
      2197 IM1      49       IM1      H6       HDR5B    0.730000E-01   1.00800           0   0.00000       0.00000    
      2198 IM1      49       IM1      N2       ND2R5B    2.24930       13.6070           0 -0.840000       1.00000    
      2199 IM1      49       IM1      DN2      DRUD     -2.24930      0.400000           0   0.00000       0.00000    
      2200 IM1      49       IM1      H7       DUMH      0.00000       1.00800           0   0.00000       0.00000    
      2201 IM1      49       IM1      LPN21    LPD     -0.474000       0.00000          -1   0.00000       0.00000    
      2202 IM1      50       IM1      C1       CD33G     2.39060       11.6110           0  -1.08100       1.00000    
      2203 IM1      50       IM1      DC1      DRUD     -2.55160      0.400000           0   0.00000       0.00000    
      2204 IM1      50       IM1      H1       HDA3A    0.940000E-01   1.00800           0   0.00000       0.00000    
      2205 IM1      50       IM1      H2       HDA3A    0.940000E-01   1.00800           0   0.00000       0.00000    
      2206 IM1      50       IM1      H3       HDA3A    0.940000E-01   1.00800           0   0.00000       0.00000    
      2207 IM1      50       IM1      N1       ND2R5A    2.67030       13.6070           0  -1.06300       1.30000    
      2208 IM1      50       IM1      DN1      DRUD     -2.53030      0.400000           0   0.00000       0.00000    
      2209 IM1      50       IM1      C2       CD2R5A    2.51190       11.6110           0  -1.37800       1.30000    
      2210 IM1      50       IM1      DC2      DRUD     -2.88090      0.400000           0   0.00000       0.00000    
      2211 IM1      50       IM1      H4       HDR5A    0.150000       1.00800           0   0.00000       0.00000    
      2212 IM1      50       IM1      C3       CD2R5A    3.06890       11.6110           0  -1.37800       1.30000    
      2213 IM1      50       IM1      DC3      DRUD     -2.88090      0.400000           0   0.00000       0.00000    
      2214 IM1      50       IM1      H5       HDR5A    0.530000E-01   1.00800           0   0.00000       0.00000    
      2215 IM1      50       IM1      C4       CD2R5B    2.40440       11.6110           0 -0.868000       1.30000    
      2216 IM1      50       IM1      DC4      DRUD     -2.28640      0.400000           0   0.00000       0.00000    
      2217 IM1      50       IM1      H6       HDR5B    0.730000E-01   1.00800           0   0.00000       0.00000    
      2218 IM1      50       IM1      N2       ND2R5B    2.24930       13.6070           0 -0.840000       1.00000    
      2219 IM1      50       IM1      DN2      DRUD     -2.24930      0.400000           0   0.00000       0.00000    
      2220 IM1      50       IM1      H7       DUMH      0.00000       1.00800           0   0.00000       0.00000    
      2221 IM1      50       IM1      LPN21    LPD     -0.474000       0.00000          -1   0.00000       0.00000    
      2222 IM1      51       IM1      C1       CD33G     2.39060       11.6110           0  -1.08100       1.00000    
      2223 IM1      51       IM1      DC1      DRUD     -2.55160      0.400000           0   0.00000       0.00000    
      2224 IM1      51       IM1      H1       HDA3A    0.940000E-01   1.00800           0   0.00000       0.00000    
      2225 IM1      51       IM1      H2       HDA3A    0.940000E-01   1.00800           0   0.00000       0.00000    
      2226 IM1      51       IM1      H3       HDA3A    0.940000E-01   1.00800           0   0.00000       0.00000    
      2227 IM1      51       IM1      N1       ND2R5A    2.67030       13.6070           0  -1.06300       1.30000    
      2228 IM1      51       IM1      DN1      DRUD     -2.53030      0.400000           0   0.00000       0.00000    
      2229 IM1      51       IM1      C2       CD2R5A    2.51190       11.6110           0  -1.37800       1.30000    
      2230 IM1      51       IM1      DC2      DRUD     -2.88090      0.400000           0   0.00000       0.00000    
      2231 IM1      51       IM1      H4       HDR5A    0.150000       1.00800           0   0.00000       0.00000    
      2232 IM1      51       IM1      C3       CD2R5A    3.06890       11.6110           0  -1.37800       1.30000    
      2233 IM1      51       IM1      DC3      DRUD     -2.88090      0.400000           0   0.00000       0.00000    
      2234 IM1      51       IM1      H5       HDR5A    0.530000E-01   1.00800           0   0.00000       0.00000    
      2235 IM1      51       IM1      C4       CD2R5B    2.40440       11.6110           0 -0.868000       1.30000    
      2236 IM1      51       IM1      DC4      DRUD     -2.28640      0.400000           0   0.00000       0.00000    
      2237 IM1      51       IM1      H6       HDR5B    0.730000E-01   1.00800           0   0.00000       0.00000    
      2238 IM1      51       IM1      N2       ND2R5B    2.24930       13.6070           0 -0.840000       1.00000    
      2239 IM1      51       IM1      DN2      DRUD     -2.24930      0.400000           0   0.00000       0.00000    
      2240 IM1      51       IM1      H7       DUMH      0.00000       1.00800           0   0.00000       0.00000    
      2241 IM1      51       IM1      LPN21    LPD     -0.474000       0.00000          -1   0.00000       0.00000    
      2242 IM1      52       IM1      C1       CD33G     2.39060       11.6110           0  -1.08100       1.00000    
      2243 IM1      52       IM1      DC1      DRUD     -2.55160      0.400000           0   0.00000       0.00000    
      2244 IM1      52       IM1      H1       HDA3A    0.940000E-01   1.00800           0   0.00000       0.00000    
      2245 IM1      52       IM1      H2       HDA3A    0.940000E-01   1.00800           0   0.00000       0.00000    
      2246 IM1      52       IM1      H3       HDA3A    0.940000E-01   1.00800           0   0.00000       0.00000    
      2247 IM1      52       IM1      N1       ND2R5A    2.67030       13.6070           0  -1.06300       1.30000    
      2248 IM1      52       IM1      DN1      DRUD     -2.53030      0.400000           0   0.00000       0.00000    
      2249 IM1      52       IM1      C2       CD2R5A    2.51190       11.6110           0  -1.37800       1.30000    
      2250 IM1      52       IM1      DC2      DRUD     -2.88090      0.400000           0   0.00000       0.00000    
      2251 IM1      52       IM1      H4       HDR5A    0.150000       1.00800           0   0.00000       0.00000    
      2252 IM1      52       IM1      C3       CD2R5A    3.06890       11.6110           0  -1.37800       1.30000    
      2253 IM1      52       IM1      DC3      DRUD     -2.88090      0.400000           0   0.00000       0.00000    
      2254 IM1      52       IM1      H5       HDR5A    0.530000E-01   1.00800           0   0.00000       0.00000    
      2255 IM1      52       IM1      C4       CD2R5B    2.40440       11.6110           0 -0.868000       1.30000    
      2256 IM1      52       IM1      DC4      DRUD     -2.28640      0.400000           0   0.00000       0.00000    
      2257 IM1      52       IM1      H6       HDR5B    0.730000E-01   1.00800           0   0.00000       0.00000    
      2258 IM1      52       IM1      N2       ND2R5B    2.24930       13.6070           0 -0.840000       1.00000    
      2259 IM1      52       IM1      DN2      DRUD     -2.24930      0.400000           0   0.00000       0.00000    
      2260 IM1      52       IM1      H7       DUMH      0.00000       1.00800           0   0.00000       0.00000    
      2261 IM1      52       IM1      LPN21    LPD     -0.474000       0.00000          -1   0.00000       0.00000    
      2262 IM1      53       IM1      C1       CD33G     2.39060       11.6110           0  -1.08100       1.00000    
      2263 IM1      53       IM1      DC1      DRUD     -2.55160      0.400000           0   0.00000       0.00000    
      2264 IM1      53       IM1      H1       HDA3A    0.940000E-01   1.00800           0   0.00000       0.00000    
      2265 IM1      53       IM1      H2       HDA3A    0.940000E-01   1.00800           0   0.00000       0.00000    
      2266 IM1      53       IM1      H3       HDA3A    0.940000E-01   1.00800           0   0.00000       0.00000    
      2267 IM1      53       IM1      N1       ND2R5A    2.67030       13.6070           0  -1.06300       1.30000    
      2268 IM1      53       IM1      DN1      DRUD     -2.53030      0.400000           0   0.00000       0.00000    
      2269 IM1      53       IM1      C2       CD2R5A    2.51190       11.6110           0  -1.37800       1.30000    
      2270 IM1      53       IM1      DC2      DRUD     -2.88090      0.400000           0   0.00000       0.00000    
      2271 IM1      53       IM1      H4       HDR5A    0.150000       1.00800           0   0.00000       0.00000    
      2272 IM1      53       IM1      C3       CD2R5A    3.06890       11.6110           0  -1.37800       1.30000    
      2273 IM1      53       IM1      DC3      DRUD     -2.88090      0.400000           0   0.00000       0.00000    
      2274 IM1      53       IM1      H5       HDR5A    0.530000E-01   1.00800           0   0.00000       0.00000    
      2275 IM1      53       IM1      C4       CD2R5B    2.40440       11.6110           0 -0.868000       1.30000    
      2276 IM1      53       IM1      DC4      DRUD     -2.28640      0.400000           0   0.00000       0.00000    
      2277 IM1      53       IM1      H6       HDR5B    0.730000E-01   1.00800           0   0.00000       0.00000    
      2278 IM1      53       IM1      N2       ND2R5B    2.24930       13.6070           0 -0.840000       1.00000    
      2279 IM1      53       IM1      DN2      DRUD     -2.24930      0.400000           0   0.00000       0.00000    
      2280 IM1      53       IM1      H7       DUMH      0.00000       1.00800           0   0.00000       0.00000    
      2281 IM1      53       IM1      LPN21    LPD     -0.474000       0.00000          -1   0.00000       0.00000    
      2282 IM1      54       IM1      C1       CD33G     2.39060       11.6110           0  -1.08100       1.00000    
      2283 IM1      54       IM1      DC1      DRUD     -2.55160      0.400000           0   0.00000       0.00000    
      2284 IM1      54       IM1      H1       HDA3A    0.940000E-01   1.00800           0   0.00000       0.00000    
      2285 IM1      54       IM1      H2       HDA3A    0.940000E-01   1.00800           0   0.00000       0.00000    
      2286 IM1      54       IM1      H3       HDA3A    0.940000E-01   1.00800           0   0.00000       0.00000    
      2287 IM1      54       IM1      N1       ND2R5A    2.67030       13.6070           0  -1.06300       1.30000    
      2288 IM1      54       IM1      DN1      DRUD     -2.53030      0.400000           0   0.00000       0.00000    
      2289 IM1      54       IM1      C2       CD2R5A    2.51190       11.6110           0  -1.37800       1.30000    
      2290 IM1      54       IM1      DC2      DRUD     -2.88090      0.400000           0   0.00000       0.00000    
      2291 IM1      54       IM1      H4       HDR5A    0.150000       1.00800           0   0.00000       0.00000    
      2292 IM1      54       IM1      C3       CD2R5A    3.06890       11.6110           0  -1.37800       1.30000    
      2293 IM1      54       IM1      DC3      DRUD     -2.88090      0.400000           0   0.00000       0.00000    
      2294 IM1      54       IM1      H5       HDR5A    0.530000E-01   1.00800           0   0.00000       0.00000    
      2295 IM1      54       IM1      C4       CD2R5B    2.40440       11.6110           0 -0.868000       1.30000    
      2296 IM1      54       IM1      DC4      DRUD     -2.28640      0.400000           0   0.00000       0.00000    
      2297 IM1      54       IM1      H6       HDR5B    0.730000E-01   1.00800           0   0.00000       0.00000    
      2298 IM1      54       IM1      N2       ND2R5B    2.24930       13.6070           0 -0.840000       1.00000    
      2299 IM1      54       IM1      DN2      DRUD     -2.24930      0.400000           0   0.00000       0.00000    
      2300 IM1      54       IM1      H7       DUMH      0.00000       1.00800           0   0.00000       0.00000    
      2301 IM1      54       IM1      LPN21    LPD     -0.474000       0.00000          -1   0.00000       0.00000    
      2302 IM1      55       IM1      C1       CD33G     2.39060       11.6110           0  -1.08100       1.00000    
      2303 IM1      55       IM1      DC1      DRUD     -2.55160      0.400000           0   0.00000       0.00000    
      2304 IM1      55       IM1      H1       HDA3A    0.940000E-01   1.00800           0   0.00000       0.00000    
      2305 IM1      55       IM1      H2       HDA3A    0.940000E-01   1.00800           0   0.00000       0.00000    
      2306 IM1      55       IM1      H3       HDA3A    0.940000E-01   1.00800           0   0.00000       0.00000    
      2307 IM1      55       IM1      N1       ND2R5A    2.67030       13.6070           0  -1.06300       1.30000    
      2308 IM1      55       IM1      DN1      DRUD     -2.53030      0.400000           0   0.00000       0.00000    
      2309 IM1      55       IM1      C2       CD2R5A    2.51190       11.6110           0  -1.37800       1.30000    
      2310 IM1      55       IM1      DC2      DRUD     -2.88090      0.400000           0   0.00000       0.00000    
      2311 IM1      55       IM1      H4       HDR5A    0.150000       1.00800           0   0.00000       0.00000    
      2312 IM1      55       IM1      C3       CD2R5A    3.06890       11.6110           0  -1.37800       1.30000    
      2313 IM1      55       IM1      DC3      DRUD     -2.88090      0.400000           0   0.00000       0.00000    
      2314 IM1      55       IM1      H5       HDR5A    0.530000E-01   1.00800           0   0.00000       0.00000    
      2315 IM1      55       IM1      C4       CD2R5B    2.40440       11.6110           0 -0.868000       1.30000    
      2316 IM1      55       IM1      DC4      DRUD     -2.28640      0.400000           0   0.00000       0.00000    
      2317 IM1      55       IM1      H6       HDR5B    0.730000E-01   1.00800           0   0.00000       0.00000    
      2318 IM1      55       IM1      N2       ND2R5B    2.24930       13.6070           0 -0.840000       1.00000    
      2319 IM1      55       IM1      DN2      DRUD     -2.24930      0.400000           0   0.00000       0.00000    
      2320 IM1      55       IM1      H7       DUMH      0.00000       1.00800           0   0.00000       0.00000    
      2321 IM1      55       IM1      LPN21    LPD     -0.474000       0.00000          -1   0.00000       0.00000    
      2322 IM1      56       IM1      C1       CD33G     2.39060       11.6110           0  -1.08100       1.00000    
      2323 IM1      56       IM1      DC1      DRUD     -2.55160      0.400000           0   0.00000       0.00000    
      2324 IM1      56       IM1      H1       HDA3A    0.940000E-01   1.00800           0   0.00000       0.00000    
      2325 IM1      56       IM1      H2       HDA3A    0.940000E-01   1.00800           0   0.00000       0.00000    
      2326 IM1      56       IM1      H3       HDA3A    0.940000E-01   1.00800           0   0.00000       0.00000    
      2327 IM1      56       IM1      N1       ND2R5A    2.67030       13.6070           0  -1.06300       1.30000    
      2328 IM1      56       IM1      DN1      DRUD     -2.53030      0.400000           0   0.00000       0.00000    
      2329 IM1      56       IM1      C2       CD2R5A    2.51190       11.6110           0  -1.37800       1.30000    
      2330 IM1      56       IM1      DC2      DRUD     -2.88090      0.400000           0   0.00000       0.00000    
      2331 IM1      56       IM1      H4       HDR5A    0.150000       1.00800           0   0.00000       0.00000    
      2332 IM1      56       IM1      C3       CD2R5A    3.06890       11.6110           0  -1.37800       1.30000    
      2333 IM1      56       IM1      DC3      DRUD     -2.88090      0.400000           0   0.00000       0.00000    
      2334 IM1      56       IM1      H5       HDR5A    0.530000E-01   1.00800           0   0.00000       0.00000    
      2335 IM1      56       IM1      C4       CD2R5B    2.40440       11.6110           0 -0.868000       1.30000    
      2336 IM1      56       IM1      DC4      DRUD     -2.28640      0.400000           0   0.00000       0.00000    
      2337 IM1      56       IM1      H6       HDR5B    0.730000E-01   1.00800           0   0.00000       0.00000    
      2338 IM1      56       IM1      N2       ND2R5B    2.24930       13.6070           0 -0.840000       1.00000    
      2339 IM1      56       IM1      DN2      DRUD     -2.24930      0.400000           0   0.00000       0.00000    
      2340 IM1      56       IM1      H7       DUMH      0.00000       1.00800           0   0.00000       0.00000    
      2341 IM1      56       IM1      LPN21    LPD     -0.474000       0.00000          -1   0.00000       0.00000    
      2342 IM1      57       IM1      C1       CD33G     2.39060       11.6110           0  -1.08100       1.00000    
      2343 IM1      57       IM1      DC1      DRUD     -2.55160      0.400000           0   0.00000       0.00000    
      2344 IM1      57       IM1      H1       HDA3A    0.940000E-01   1.00800           0   0.00000       0.00000    
      2345 IM1      57       IM1      H2       HDA3A    0.940000E-01   1.00800           0   0.00000       0.00000    
      2346 IM1      57       IM1      H3       HDA3A    0.940000E-01   1.00800           0   0.00000       0.00000    
      2347 IM1      57       IM1      N1       ND2R5A    2.67030       13.6070           0  -1.06300       1.30000    
      2348 IM1      57       IM1      DN1      DRUD     -2.53030      0.400000           0   0.00000       0.00000    
      2349 IM1      57       IM1      C2       CD2R5A    2.51190       11.6110           0  -1.37800       1.30000    
      2350 IM1      57       IM1      DC2      DRUD     -2.88090      0.400000           0   0.00000       0.00000    
      2351 IM1      57       IM1      H4       HDR5A    0.150000       1.00800           0   0.00000       0.00000    
      2352 IM1      57       IM1      C3       CD2R5A    3.06890       11.6110           0  -1.37800       1.30000    
      2353 IM1      57       IM1      DC3      DRUD     -2.88090      0.400000           0   0.00000       0.00000    
      2354 IM1      57       IM1      H5       HDR5A    0.530000E-01   1.00800           0   0.00000       0.00000    
      2355 IM1      57       IM1      C4       CD2R5B    2.40440       11.6110           0 -0.868000       1.30000    
      2356 IM1      57       IM1      DC4      DRUD     -2.28640      0.400000           0   0.00000       0.00000    
      2357 IM1      57       IM1      H6       HDR5B    0.730000E-01   1.00800           0   0.00000       0.00000    
      2358 IM1      57       IM1      N2       ND2R5B    2.24930       13.6070           0 -0.840000       1.00000    
      2359 IM1      57       IM1      DN2      DRUD     -2.24930      0.400000           0   0.00000       0.00000    
      2360 IM1      57       IM1      H7       DUMH      0.00000       1.00800           0   0.00000       0.00000    
      2361 IM1      57       IM1      LPN21    LPD     -0.474000       0.00000          -1   0.00000       0.00000    
      2362 IM1      58       IM1      C1       CD33G     2.39060       11.6110           0  -1.08100       1.00000    
      2363 IM1      58       IM1      DC1      DRUD     -2.55160      0.400000           0   0.00000       0.00000    
      2364 IM1      58       IM1      H1       HDA3A    0.940000E-01   1.00800           0   0.00000       0.00000    
      2365 IM1      58       IM1      H2       HDA3A    0.940000E-01   1.00800           0   0.00000       0.00000    
      2366 IM1      58       IM1      H3       HDA3A    0.940000E-01   1.00800           0   0.00000       0.00000    
      2367 IM1      58       IM1      N1       ND2R5A    2.67030       13.6070           0  -1.06300       1.30000    
      2368 IM1      58       IM1      DN1      DRUD     -2.53030      0.400000           0   0.00000       0.00000    
      2369 IM1      58       IM1      C2       CD2R5A    2.51190       11.6110           0  -1.37800       1.30000    
      2370 IM1      58       IM1      DC2      DRUD     -2.88090      0.400000           0   0.00000       0.00000    
      2371 IM1      58       IM1      H4       HDR5A    0.150000       1.00800           0   0.00000       0.00000    
      2372 IM1      58       IM1      C3       CD2R5A    3.06890       11.6110           0  -1.37800       1.30000    
      2373 IM1      58       IM1      DC3      DRUD     -2.88090      0.400000           0   0.00000       0.00000    
      2374 IM1      58       IM1      H5       HDR5A    0.530000E-01   1.00800           0   0.00000       0.00000    
      2375 IM1      58       IM1      C4       CD2R5B    2.40440       11.6110           0 -0.868000       1.30000    
      2376 IM1      58       IM1      DC4      DRUD     -2.28640      0.400000           0   0.00000       0.00000    
      2377 IM1      58       IM1      H6       HDR5B    0.730000E-01   1.00800           0   0.00000       0.00000    
      2378 IM1      58       IM1      N2       ND2R5B    2.24930       13.6070           0 -0.840000       1.00000    
      2379 IM1      58       IM1      DN2      DRUD     -2.24930      0.400000           0   0.00000       0.00000    
      2380 IM1      58       IM1      H7       DUMH      0.00000       1.00800           0   0.00000       0.00000    
      2381 IM1      58       IM1      LPN21    LPD     -0.474000       0.00000          -1   0.00000       0.00000    
      2382 IM1      59       IM1      C1       CD33G     2.39060       11.6110           0  -1.08100       1.00000    
      2383 IM1      59       IM1      DC1      DRUD     -2.55160      0.400000           0   0.00000       0.00000    
      2384 IM1      59       IM1      H1       HDA3A    0.940000E-01   1.00800           0   0.00000       0.00000    
      2385 IM1      59       IM1      H2       HDA3A    0.940000E-01   1.00800           0   0.00000       0.00000    
      2386 IM1      59       IM1      H3       HDA3A    0.940000E-01   1.00800           0   0.00000       0.00000    
      2387 IM1      59       IM1      N1       ND2R5A    2.67030       13.6070           0  -1.06300       1.30000    
      2388 IM1      59       IM1      DN1      DRUD     -2.53030      0.400000           0   0.00000       0.00000    
      2389 IM1      59       IM1      C2       CD2R5A    2.51190       11.6110           0  -1.37800       1.30000    
      2390 IM1      59       IM1      DC2      DRUD     -2.88090      0.400000           0   0.00000       0.00000    
      2391 IM1      59       IM1      H4       HDR5A    0.150000       1.00800           0   0.00000       0.00000    
      2392 IM1      59       IM1      C3       CD2R5A    3.06890       11.6110           0  -1.37800       1.30000    
      2393 IM1      59       IM1      DC3      DRUD     -2.88090      0.400000           0   0.00000       0.00000    
      2394 IM1      59       IM1      H5       HDR5A    0.530000E-01   1.00800           0   0.00000       0.00000    
      2395 IM1      59       IM1      C4       CD2R5B    2.40440       11.6110           0 -0.868000       1.30000    
      2396 IM1      59       IM1      DC4      DRUD     -2.28640      0.400000           0   0.00000       0.00000    
      2397 IM1      59       IM1      H6       HDR5B    0.730000E-01   1.00800           0   0.00000       0.00000    
      2398 IM1      59       IM1      N2       ND2R5B    2.24930       13.6070           0 -0.840000       1.00000    
      2399 IM1      59       IM1      DN2      DRUD     -2.24930      0.400000           0   0.00000       0.00000    
      2400 IM1      59       IM1      H7       DUMH      0.00000       1.00800           0   0.00000       0.00000    
      2401 IM1      59       IM1      LPN21    LPD     -0.474000       0.00000          -1   0.00000       0.00000    
      2402 IM1      60       IM1      C1       CD33G     2.39060       11.6110           0  -1.08100       1.00000    
      2403 IM1      60       IM1      DC1      DRUD     -2.55160      0.400000           0   0.00000       0.00000    
      2404 IM1      60       IM1      H1       HDA3A    0.940000E-01   1.00800           0   0.00000       0.00000    
      2405 IM1      60       IM1      H2       HDA3A    0.940000E-01   1.00800           0   0.00000       0.00000    
      2406 IM1      60       IM1      H3       HDA3A    0.940000E-01   1.00800           0   0.00000       0.00000    
      2407 IM1      60       IM1      N1       ND2R5A    2.67030       13.6070           0  -1.06300       1.30000    
      2408 IM1      60       IM1      DN1      DRUD     -2.53030      0.400000           0   0.00000       0.00000    
      2409 IM1      60       IM1      C2       CD2R5A    2.51190       11.6110           0  -1.37800       1.30000    
      2410 IM1      60       IM1      DC2      DRUD     -2.88090      0.400000           0   0.00000       0.00000    
      2411 IM1      60       IM1      H4       HDR5A    0.150000       1.00800           0   0.00000       0.00000    
      2412 IM1      60       IM1      C3       CD2R5A    3.06890       11.6110           0  -1.37800       1.30000    
      2413 IM1      60       IM1      DC3      DRUD     -2.88090      0.400000           0   0.00000       0.00000    
      2414 IM1      60       IM1      H5       HDR5A    0.530000E-01   1.00800           0   0.00000       0.00000    
      2415 IM1      60       IM1      C4       CD2R5B    2.40440       11.6110           0 -0.868000       1.30000    
      2416 IM1      60       IM1      DC4      DRUD     -2.28640      0.400000           0   0.00000       0.00000    
      2417 IM1      60       IM1      H6       HDR5B    0.730000E-01   1.00800           0   0.00000       0.00000    
      2418 IM1      60       IM1      N2       ND2R5B    2.24930       13.6070           0 -0.840000       1.00000    
      2419 IM1      60       IM1      DN2      DRUD     -2.24930      0.400000           0   0.00000       0.00000    
      2420 IM1      60       IM1      H7       DUMH      0.00000       1.00800           0   0.00000       0.00000    
      2421 IM1      60       IM1      LPN21    LPD     -0.474000       0.00000          -1   0.00000       0.00000    
      2422 IM1      61       IM1      C1       CD33G     2.39060       11.6110           0  -1.08100       1.00000    
      2423 IM1      61       IM1      DC1      DRUD     -2.55160      0.400000           0   0.00000       0.00000    
      2424 IM1      61       IM1      H1       HDA3A    0.940000E-01   1.00800           0   0.00000       0.00000    
      2425 IM1      61       IM1      H2       HDA3A    0.940000E-01   1.00800           0   0.00000       0.00000    
      2426 IM1      61       IM1      H3       HDA3A    0.940000E-01   1.00800           0   0.00000       0.00000    
      2427 IM1      61       IM1      N1       ND2R5A    2.67030       13.6070           0  -1.06300       1.30000    
      2428 IM1      61       IM1      DN1      DRUD     -2.53030      0.400000           0   0.00000       0.00000    
      2429 IM1      61       IM1      C2       CD2R5A    2.51190       11.6110           0  -1.37800       1.30000    
      2430 IM1      61       IM1      DC2      DRUD     -2.88090      0.400000           0   0.00000       0.00000    
      2431 IM1      61       IM1      H4       HDR5A    0.150000       1.00800           0   0.00000       0.00000    
      2432 IM1      61       IM1      C3       CD2R5A    3.06890       11.6110           0  -1.37800       1.30000    
      2433 IM1      61       IM1      DC3      DRUD     -2.88090      0.400000           0   0.00000       0.00000    
      2434 IM1      61       IM1      H5       HDR5A    0.530000E-01   1.00800           0   0.00000       0.00000    
      2435 IM1      61       IM1      C4       CD2R5B    2.40440       11.6110           0 -0.868000       1.30000    
      2436 IM1      61       IM1      DC4      DRUD     -2.28640      0.400000           0   0.00000       0.00000    
      2437 IM1      61       IM1      H6       HDR5B    0.730000E-01   1.00800           0   0.00000       0.00000    
      2438 IM1      61       IM1      N2       ND2R5B    2.24930       13.6070           0 -0.840000       1.00000    
      2439 IM1      61       IM1      DN2      DRUD     -2.24930      0.400000           0   0.00000       0.00000    
      2440 IM1      61       IM1      H7       DUMH      0.00000       1.00800           0   0.00000       0.00000    
      2441 IM1      61       IM1      LPN21    LPD     -0.474000       0.00000          -1   0.00000       0.00000    
      2442 IM1      62       IM1      C1       CD33G     2.39060       11.6110           0  -1.08100       1.00000    
      2443 IM1      62       IM1      DC1      DRUD     -2.55160      0.400000           0   0.00000       0.00000    
      2444 IM1      62       IM1      H1       HDA3A    0.940000E-01   1.00800           0   0.00000       0.00000    
      2445 IM1      62       IM1      H2       HDA3A    0.940000E-01   1.00800           0   0.00000       0.00000    
      2446 IM1      62       IM1      H3       HDA3A    0.940000E-01   1.00800           0   0.00000       0.00000    
      2447 IM1      62       IM1      N1       ND2R5A    2.67030       13.6070           0  -1.06300       1.30000    
      2448 IM1      62       IM1      DN1      DRUD     -2.53030      0.400000           0   0.00000       0.00000    
      2449 IM1      62       IM1      C2       CD2R5A    2.51190       11.6110           0  -1.37800       1.30000    
      2450 IM1      62       IM1      DC2      DRUD     -2.88090      0.400000           0   0.00000       0.00000    
      2451 IM1      62       IM1      H4       HDR5A    0.150000       1.00800           0   0.00000       0.00000    
      2452 IM1      62       IM1      C3       CD2R5A    3.06890       11.6110           0  -1.37800       1.30000    
      2453 IM1      62       IM1      DC3      DRUD     -2.88090      0.400000           0   0.00000       0.00000    
      2454 IM1      62       IM1      H5       HDR5A    0.530000E-01   1.00800           0   0.00000       0.00000    
      2455 IM1      62       IM1      C4       CD2R5B    2.40440       11.6110           0 -0.868000       1.30000    
      2456 IM1      62       IM1      DC4      DRUD     -2.28640      0.400000           0   0.00000       0.00000    
      2457 IM1      62       IM1      H6       HDR5B    0.730000E-01   1.00800           0   0.00000       0.00000    
      2458 IM1      62       IM1      N2       ND2R5B    2.24930       13.6070           0 -0.840000       1.00000    
      2459 IM1      62       IM1      DN2      DRUD     -2.24930      0.400000           0   0.00000       0.00000    
      2460 IM1      62       IM1      H7       DUMH      0.00000       1.00800           0   0.00000       0.00000    
      2461 IM1      62       IM1      LPN21    LPD     -0.474000       0.00000          -1   0.00000       0.00000    
      2462 IM1      63       IM1      C1       CD33G     2.39060       11.6110           0  -1.08100       1.00000    
      2463 IM1      63       IM1      DC1      DRUD     -2.55160      0.400000           0   0.00000       0.00000    
      2464 IM1      63       IM1      H1       HDA3A    0.940000E-01   1.00800           0   0.00000       0.00000    
      2465 IM1      63       IM1      H2       HDA3A    0.940000E-01   1.00800           0   0.00000       0.00000    
      2466 IM1      63       IM1      H3       HDA3A    0.940000E-01   1.00800           0   0.00000       0.00000    
      2467 IM1      63       IM1      N1       ND2R5A    2.67030       13.6070           0  -1.06300       1.30000    
      2468 IM1      63       IM1      DN1      DRUD     -2.53030      0.400000           0   0.00000       0.00000    
      2469 IM1      63       IM1      C2       CD2R5A    2.51190       11.6110           0  -1.37800       1.30000    
      2470 IM1      63       IM1      DC2      DRUD     -2.88090      0.400000           0   0.00000       0.00000    
      2471 IM1      63       IM1      H4       HDR5A    0.150000       1.00800           0   0.00000       0.00000    
      2472 IM1      63       IM1      C3       CD2R5A    3.06890       11.6110           0  -1.37800       1.30000    
      2473 IM1      63       IM1      DC3      DRUD     -2.88090      0.400000           0   0.00000       0.00000    
      2474 IM1      63       IM1      H5       HDR5A    0.530000E-01   1.00800           0   0.00000       0.00000    
      2475 IM1      63       IM1      C4       CD2R5B    2.40440       11.6110           0 -0.868000       1.30000    
      2476 IM1      63       IM1      DC4      DRUD     -2.28640      0.400000           0   0.00000       0.00000    
      2477 IM1      63       IM1      H6       HDR5B    0.730000E-01   1.00800           0   0.00000       0.00000    
      2478 IM1      63       IM1      N2       ND2R5B    2.24930       13.6070           0 -0.840000       1.00000    
      2479 IM1      63       IM1      DN2      DRUD     -2.24930      0.400000           0   0.00000       0.00000    
      2480 IM1      63       IM1      H7       DUMH      0.00000       1.00800           0   0.00000       0.00000    
      2481 IM1      63       IM1      LPN21    LPD     -0.474000       0.00000          -1   0.00000       0.00000    
      2482 IM1      64       IM1      C1       CD33G     2.39060       11.6110           0  -1.08100       1.00000    
      2483 IM1      64       IM1      DC1      DRUD     -2.55160      0.400000           0   0.00000       0.00000    
      2484 IM1      64       IM1      H1       HDA3A    0.940000E-01   1.00800           0   0.00000       0.00000    
      2485 IM1      64       IM1      H2       HDA3A    0.940000E-01   1.00800           0   0.00000       0.00000    
      2486 IM1      64       IM1      H3       HDA3A    0.940000E-01   1.00800           0   0.00000       0.00000    
      2487 IM1      64       IM1      N1       ND2R5A    2.67030       13.6070           0  -1.06300       1.30000    
      2488 IM1      64       IM1      DN1      DRUD     -2.53030      0.400000           0   0.00000       0.00000    
      2489 IM1      64       IM1      C2       CD2R5A    2.51190       11.6110           0  -1.37800       1.30000    
      2490 IM1      64       IM1      DC2      DRUD     -2.88090      0.400000           0   0.00000       0.00000    
      2491 IM1      64       IM1      H4       HDR5A    0.150000       1.00800           0   0.00000       0.00000    
      2492 IM1      64       IM1      C3       CD2R5A    3.06890       11.6110           0  -1.37800       1.30000    
      2493 IM1      64       IM1      DC3      DRUD     -2.88090      0.400000           0   0.00000       0.00000    
      2494 IM1      64       IM1      H5       HDR5A    0.530000E-01   1.00800           0   0.00000       0.00000    
      2495 IM1      64       IM1      C4       CD2R5B    2.40440       11.6110           0 -0.868000       1.30000    
      2496 IM1      64       IM1      DC4      DRUD     -2.28640      0.400000           0   0.00000       0.00000    
      2497 IM1      64       IM1      H6       HDR5B    0.730000E-01   1.00800           0   0.00000       0.00000    
      2498 IM1      64       IM1      N2       ND2R5B    2.24930       13.6070           0 -0.840000       1.00000    
      2499 IM1      64       IM1      DN2      DRUD     -2.24930      0.400000           0   0.00000       0.00000    
      2500 IM1      64       IM1      H7       DUMH      0.00000       1.00800           0   0.00000       0.00000    
      2501 IM1      64       IM1      LPN21    LPD     -0.474000       0.00000          -1   0.00000       0.00000    
      2502 IM1      65       IM1      C1       CD33G     2.39060       11.6110           0  -1.08100       1.00000    
      2503 IM1      65       IM1      DC1      DRUD     -2.55160      0.400000           0   0.00000       0.00000    
      2504 IM1      65       IM1      H1       HDA3A    0.940000E-01   1.00800           0   0.00000       0.00000    
      2505 IM1      65       IM1      H2       HDA3A    0.940000E-01   1.00800           0   0.00000       0.00000    
      2506 IM1      65       IM1      H3       HDA3A    0.940000E-01   1.00800           0   0.00000       0.00000    
      2507 IM1      65       IM1      N1       ND2R5A    2.67030       13.6070           0  -1.06300       1.30000    
      2508 IM1      65       IM1      DN1      DRUD     -2.53030      0.400000           0   0.00000       0.00000    
      2509 IM1      65       IM1      C2       CD2R5A    2.51190       11.6110           0  -1.37800       1.30000    
      2510 IM1      65       IM1      DC2      DRUD     -2.88090      0.400000           0   0.00000       0.00000    
      2511 IM1      65       IM1      H4       HDR5A    0.150000       1.00800           0   0.00000       0.00000    
      2512 IM1      65       IM1      C3       CD2R5A    3.06890       11.6110           0  -1.37800       1.30000    
      2513 IM1      65       IM1      DC3      DRUD     -2.88090      0.400000           0   0.00000       0.00000    
      2514 IM1      65       IM1      H5       HDR5A    0.530000E-01   1.00800           0   0.00000       0.00000    
      2515 IM1      65       IM1      C4       CD2R5B    2.40440       11.6110           0 -0.868000       1.30000    
      2516 IM1      65       IM1      DC4      DRUD     -2.28640      0.400000           0   0.00000       0.00000    
      2517 IM1      65       IM1      H6       HDR5B    0.730000E-01   1.00800           0   0.00000       0.00000    
      2518 IM1      65       IM1      N2       ND2R5B    2.24930       13.6070           0 -0.840000       1.00000    
      2519 IM1      65       IM1      DN2      DRUD     -2.24930      0.400000           0   0.00000       0.00000    
      2520 IM1      65       IM1      H7       DUMH      0.00000       1.00800           0   0.00000       0.00000    
      2521 IM1      65       IM1      LPN21    LPD     -0.474000       0.00000          -1   0.00000       0.00000    
      2522 IM1      66       IM1      C1       CD33G     2.39060       11.6110           0  -1.08100       1.00000    
      2523 IM1      66       IM1      DC1      DRUD     -2.55160      0.400000           0   0.00000       0.00000    
      2524 IM1      66       IM1      H1       HDA3A    0.940000E-01   1.00800           0   0.00000       0.00000    
      2525 IM1      66       IM1      H2       HDA3A    0.940000E-01   1.00800           0   0.00000       0.00000    
      2526 IM1      66       IM1      H3       HDA3A    0.940000E-01   1.00800           0   0.00000       0.00000    
      2527 IM1      66       IM1      N1       ND2R5A    2.67030       13.6070           0  -1.06300       1.30000    
      2528 IM1      66       IM1      DN1      DRUD     -2.53030      0.400000           0   0.00000       0.00000    
      2529 IM1      66       IM1      C2       CD2R5A    2.51190       11.6110           0  -1.37800       1.30000    
      2530 IM1      66       IM1      DC2      DRUD     -2.88090      0.400000           0   0.00000       0.00000    
      2531 IM1      66       IM1      H4       HDR5A    0.150000       1.00800           0   0.00000       0.00000    
      2532 IM1      66       IM1      C3       CD2R5A    3.06890       11.6110           0  -1.37800       1.30000    
      2533 IM1      66       IM1      DC3      DRUD     -2.88090      0.400000           0   0.00000       0.00000    
      2534 IM1      66       IM1      H5       HDR5A    0.530000E-01   1.00800           0   0.00000       0.00000    
      2535 IM1      66       IM1      C4       CD2R5B    2.40440       11.6110           0 -0.868000       1.30000    
      2536 IM1      66       IM1      DC4      DRUD     -2.28640      0.400000           0   0.00000       0.00000    
      2537 IM1      66       IM1      H6       HDR5B    0.730000E-01   1.00800           0   0.00000       0.00000    
      2538 IM1      66       IM1      N2       ND2R5B    2.24930       13.6070           0 -0.840000       1.00000    
      2539 IM1      66       IM1      DN2      DRUD     -2.24930      0.400000           0   0.00000       0.00000    
      2540 IM1      66       IM1      H7       DUMH      0.00000       1.00800           0   0.00000       0.00000    
      2541 IM1      66       IM1      LPN21    LPD     -0.474000       0.00000          -1   0.00000       0.00000    
      2542 IM1      67       IM1      C1       CD33G     2.39060       11.6110           0  -1.08100       1.00000    
      2543 IM1      67       IM1      DC1      DRUD     -2.55160      0.400000           0   0.00000       0.00000    
      2544 IM1      67       IM1      H1       HDA3A    0.940000E-01   1.00800           0   0.00000       0.00000    
      2545 IM1      67       IM1      H2       HDA3A    0.940000E-01   1.00800           0   0.00000       0.00000    
      2546 IM1      67       IM1      H3       HDA3A    0.940000E-01   1.00800           0   0.00000       0.00000    
      2547 IM1      67       IM1      N1       ND2R5A    2.67030       13.6070           0  -1.06300       1.30000    
      2548 IM1      67       IM1      DN1      DRUD     -2.53030      0.400000           0   0.00000       0.00000    
      2549 IM1      67       IM1      C2       CD2R5A    2.51190       11.6110           0  -1.37800       1.30000    
      2550 IM1      67       IM1      DC2      DRUD     -2.88090      0.400000           0   0.00000       0.00000    
      2551 IM1      67       IM1      H4       HDR5A    0.150000       1.00800           0   0.00000       0.00000    
      2552 IM1      67       IM1      C3       CD2R5A    3.06890       11.6110           0  -1.37800       1.30000    
      2553 IM1      67       IM1      DC3      DRUD     -2.88090      0.400000           0   0.00000       0.00000    
      2554 IM1      67       IM1      H5       HDR5A    0.530000E-01   1.00800           0   0.00000       0.00000    
      2555 IM1      67       IM1      C4       CD2R5B    2.40440       11.6110           0 -0.868000       1.30000    
      2556 IM1      67       IM1      DC4      DRUD     -2.28640      0.400000           0   0.00000       0.00000    
      2557 IM1      67       IM1      H6       HDR5B    0.730000E-01   1.00800           0   0.00000       0.00000    
      2558 IM1      67       IM1      N2       ND2R5B    2.24930       13.6070           0 -0.840000       1.00000    
      2559 IM1      67       IM1      DN2      DRUD     -2.24930      0.400000           0   0.00000       0.00000    
      2560 IM1      67       IM1      H7       DUMH      0.00000       1.00800           0   0.00000       0.00000    
      2561 IM1      67       IM1      LPN21    LPD     -0.474000       0.00000          -1   0.00000       0.00000    
      2562 IM1      68       IM1      C1       CD33G     2.39060       11.6110           0  -1.08100       1.00000    
      2563 IM1      68       IM1      DC1      DRUD     -2.55160      0.400000           0   0.00000       0.00000    
      2564 IM1      68       IM1      H1       HDA3A    0.940000E-01   1.00800           0   0.00000       0.00000    
      2565 IM1      68       IM1      H2       HDA3A    0.940000E-01   1.00800           0   0.00000       0.00000    
      2566 IM1      68       IM1      H3       HDA3A    0.940000E-01   1.00800           0   0.00000       0.00000    
      2567 IM1      68       IM1      N1       ND2R5A    2.67030       13.6070           0  -1.06300       1.30000    
      2568 IM1      68       IM1      DN1      DRUD     -2.53030      0.400000           0   0.00000       0.00000    
      2569 IM1      68       IM1      C2       CD2R5A    2.51190       11.6110           0  -1.37800       1.30000    
      2570 IM1      68       IM1      DC2      DRUD     -2.88090      0.400000           0   0.00000       0.00000    
      2571 IM1      68       IM1      H4       HDR5A    0.150000       1.00800           0   0.00000       0.00000    
      2572 IM1      68       IM1      C3       CD2R5A    3.06890       11.6110           0  -1.37800       1.30000    
      2573 IM1      68       IM1      DC3      DRUD     -2.88090      0.400000           0   0.00000       0.00000    
      2574 IM1      68       IM1      H5       HDR5A    0.530000E-01   1.00800           0   0.00000       0.00000    
      2575 IM1      68       IM1      C4       CD2R5B    2.40440       11.6110           0 -0.868000       1.30000    
      2576 IM1      68       IM1      DC4      DRUD     -2.28640      0.400000           0   0.00000       0.00000    
      2577 IM1      68       IM1      H6       HDR5B    0.730000E-01   1.00800           0   0.00000       0.00000    
      2578 IM1      68       IM1      N2       ND2R5B    2.24930       13.6070           0 -0.840000       1.00000    
      2579 IM1      68       IM1      DN2      DRUD     -2.24930      0.400000           0   0.00000       0.00000    
      2580 IM1      68       IM1      H7       DUMH      0.00000       1.00800           0   0.00000       0.00000    
      2581 IM1      68       IM1      LPN21    LPD     -0.474000       0.00000          -1   0.00000       0.00000    
      2582 IM1      69       IM1      C1       CD33G     2.39060       11.6110           0  -1.08100       1.00000    
      2583 IM1      69       IM1      DC1      DRUD     -2.55160      0.400000           0   0.00000       0.00000    
      2584 IM1      69       IM1      H1       HDA3A    0.940000E-01   1.00800           0   0.00000       0.00000    
      2585 IM1      69       IM1      H2       HDA3A    0.940000E-01   1.00800           0   0.00000       0.00000    
      2586 IM1      69       IM1      H3       HDA3A    0.940000E-01   1.00800           0   0.00000       0.00000    
      2587 IM1      69       IM1      N1       ND2R5A    2.67030       13.6070           0  -1.06300       1.30000    
      2588 IM1      69       IM1      DN1      DRUD     -2.53030      0.400000           0   0.00000       0.00000    
      2589 IM1      69       IM1      C2       CD2R5A    2.51190       11.6110           0  -1.37800       1.30000    
      2590 IM1      69       IM1      DC2      DRUD     -2.88090      0.400000           0   0.00000       0.00000    
      2591 IM1      69       IM1      H4       HDR5A    0.150000       1.00800           0   0.00000       0.00000    
      2592 IM1      69       IM1      C3       CD2R5A    3.06890       11.6110           0  -1.37800       1.30000    
      2593 IM1      69       IM1      DC3      DRUD     -2.88090      0.400000           0   0.00000       0.00000    
      2594 IM1      69       IM1      H5       HDR5A    0.530000E-01   1.00800           0   0.00000       0.00000    
      2595 IM1      69       IM1      C4       CD2R5B    2.40440       11.6110           0 -0.868000       1.30000    
      2596 IM1      69       IM1      DC4      DRUD     -2.28640      0.400000           0   0.00000       0.00000    
      2597 IM1      69       IM1      H6       HDR5B    0.730000E-01   1.00800           0   0.00000       0.00000    
      2598 IM1      69       IM1      N2       ND2R5B    2.24930       13.6070           0 -0.840000       1.00000    
      2599 IM1      69       IM1      DN2      DRUD     -2.24930      0.400000           0   0.00000       0.00000    
      2600 IM1      69       IM1      H7       DUMH      0.00000       1.00800           0   0.00000       0.00000    
      2601 IM1      69       IM1      LPN21    LPD     -0.474000       0.00000          -1   0.00000       0.00000    
      2602 IM1      70       IM1      C1       CD33G     2.39060       11.6110           0  -1.08100       1.00000    
      2603 IM1      70       IM1      DC1      DRUD     -2.55160      0.400000           0   0.00000       0.00000    
      2604 IM1      70       IM1      H1       HDA3A    0.940000E-01   1.00800           0   0.00000       0.00000    
      2605 IM1      70       IM1      H2       HDA3A    0.940000E-01   1.00800           0   0.00000       0.00000    
      2606 IM1      70       IM1      H3       HDA3A    0.940000E-01   1.00800           0   0.00000       0.00000    
      2607 IM1      70       IM1      N1       ND2R5A    2.67030       13.6070           0  -1.06300       1.30000    
      2608 IM1      70       IM1      DN1      DRUD     -2.53030      0.400000           0   0.00000       0.00000    
      2609 IM1      70       IM1      C2       CD2R5A    2.51190       11.6110           0  -1.37800       1.30000    
      2610 IM1      70       IM1      DC2      DRUD     -2.88090      0.400000           0   0.00000       0.00000    
      2611 IM1      70       IM1      H4       HDR5A    0.150000       1.00800           0   0.00000       0.00000    
      2612 IM1      70       IM1      C3       CD2R5A    3.06890       11.6110           0  -1.37800       1.30000    
      2613 IM1      70       IM1      DC3      DRUD     -2.88090      0.400000           0   0.00000       0.00000    
      2614 IM1      70       IM1      H5       HDR5A    0.530000E-01   1.00800           0   0.00000       0.00000    
      2615 IM1      70       IM1      C4       CD2R5B    2.40440       11.6110           0 -0.868000       1.30000    
      2616 IM1      70       IM1      DC4      DRUD     -2.28640      0.400000           0   0.00000       0.00000    
      2617 IM1      70       IM1      H6       HDR5B    0.730000E-01   1.00800           0   0.00000       0.00000    
      2618 IM1      70       IM1      N2       ND2R5B    2.24930       13.6070           0 -0.840000       1.00000    
      2619 IM1      70       IM1      DN2      DRUD     -2.24930      0.400000           0   0.00000       0.00000    
      2620 IM1      70       IM1      H7       DUMH      0.00000       1.00800           0   0.00000       0.00000    
      2621 IM1      70       IM1      LPN21    LPD     -0.474000       0.00000          -1   0.00000       0.00000    
      2622 IM1      71       IM1      C1       CD33G     2.39060       11.6110           0  -1.08100       1.00000    
      2623 IM1      71       IM1      DC1      DRUD     -2.55160      0.400000           0   0.00000       0.00000    
      2624 IM1      71       IM1      H1       HDA3A    0.940000E-01   1.00800           0   0.00000       0.00000    
      2625 IM1      71       IM1      H2       HDA3A    0.940000E-01   1.00800           0   0.00000       0.00000    
      2626 IM1      71       IM1      H3       HDA3A    0.940000E-01   1.00800           0   0.00000       0.00000    
      2627 IM1      71       IM1      N1       ND2R5A    2.67030       13.6070           0  -1.06300       1.30000    
      2628 IM1      71       IM1      DN1      DRUD     -2.53030      0.400000           0   0.00000       0.00000    
      2629 IM1      71       IM1      C2       CD2R5A    2.51190       11.6110           0  -1.37800       1.30000    
      2630 IM1      71       IM1      DC2      DRUD     -2.88090      0.400000           0   0.00000       0.00000    
      2631 IM1      71       IM1      H4       HDR5A    0.150000       1.00800           0   0.00000       0.00000    
      2632 IM1      71       IM1      C3       CD2R5A    3.06890       11.6110           0  -1.37800       1.30000    
      2633 IM1      71       IM1      DC3      DRUD     -2.88090      0.400000           0   0.00000       0.00000    
      2634 IM1      71       IM1      H5       HDR5A    0.530000E-01   1.00800           0   0.00000       0.00000    
      2635 IM1      71       IM1      C4       CD2R5B    2.40440       11.6110           0 -0.868000       1.30000    
      2636 IM1      71       IM1      DC4      DRUD     -2.28640      0.400000           0   0.00000       0.00000    
      2637 IM1      71       IM1      H6       HDR5B    0.730000E-01   1.00800           0   0.00000       0.00000    
      2638 IM1      71       IM1      N2       ND2R5B    2.24930       13.6070           0 -0.840000       1.00000    
      2639 IM1      71       IM1      DN2      DRUD     -2.24930      0.400000           0   0.00000       0.00000    
      2640 IM1      71       IM1      H7       DUMH      0.00000       1.00800           0   0.00000       0.00000    
      2641 IM1      71       IM1      LPN21    LPD     -0.474000       0.00000          -1   0.00000       0.00000    
      2642 IM1      72       IM1      C1       CD33G     2.39060       11.6110           0  -1.08100       1.00000    
      2643 IM1      72       IM1      DC1      DRUD     -2.55160      0.400000           0   0.00000       0.00000    
      2644 IM1      72       IM1      H1       HDA3A    0.940000E-01   1.00800           0   0.00000       0.00000    
      2645 IM1      72       IM1      H2       HDA3A    0.940000E-01   1.00800           0   0.00000       0.00000    
      2646 IM1      72       IM1      H3       HDA3A    0.940000E-01   1.00800           0   0.00000       0.00000    
      2647 IM1      72       IM1      N1       ND2R5A    2.67030       13.6070           0  -1.06300       1.30000    
      2648 IM1      72       IM1      DN1      DRUD     -2.53030      0.400000           0   0.00000       0.00000    
      2649 IM1      72       IM1      C2       CD2R5A    2.51190       11.6110           0  -1.37800       1.30000    
      2650 IM1      72       IM1      DC2      DRUD     -2.88090      0.400000           0   0.00000       0.00000    
      2651 IM1      72       IM1      H4       HDR5A    0.150000       1.00800           0   0.00000       0.00000    
      2652 IM1      72       IM1      C3       CD2R5A    3.06890       11.6110           0  -1.37800       1.30000    
      2653 IM1      72       IM1      DC3      DRUD     -2.88090      0.400000           0   0.00000       0.00000    
      2654 IM1      72       IM1      H5       HDR5A    0.530000E-01   1.00800           0   0.00000       0.00000    
      2655 IM1      72       IM1      C4       CD2R5B    2.40440       11.6110           0 -0.868000       1.30000    
      2656 IM1      72       IM1      DC4      DRUD     -2.28640      0.400000           0   0.00000       0.00000    
      2657 IM1      72       IM1      H6       HDR5B    0.730000E-01   1.00800           0   0.00000       0.00000    
      2658 IM1      72       IM1      N2       ND2R5B    2.24930       13.6070           0 -0.840000       1.00000    
      2659 IM1      72       IM1      DN2      DRUD     -2.24930      0.400000           0   0.00000       0.00000    
      2660 IM1      72       IM1      H7       DUMH      0.00000       1.00800           0   0.00000       0.00000    
      2661 IM1      72       IM1      LPN21    LPD     -0.474000       0.00000          -1   0.00000       0.00000    
      2662 IM1      73       IM1      C1       CD33G     2.39060       11.6110           0  -1.08100       1.00000    
      2663 IM1      73       IM1      DC1      DRUD     -2.55160      0.400000           0   0.00000       0.00000    
      2664 IM1      73       IM1      H1       HDA3A    0.940000E-01   1.00800           0   0.00000       0.00000    
      2665 IM1      73       IM1      H2       HDA3A    0.940000E-01   1.00800           0   0.00000       0.00000    
      2666 IM1      73       IM1      H3       HDA3A    0.940000E-01   1.00800           0   0.00000       0.00000    
      2667 IM1      73       IM1      N1       ND2R5A    2.67030       13.6070           0  -1.06300       1.30000    
      2668 IM1      73       IM1      DN1      DRUD     -2.53030      0.400000           0   0.00000       0.00000    
      2669 IM1      73       IM1      C2       CD2R5A    2.51190       11.6110           0  -1.37800       1.30000    
      2670 IM1      73       IM1      DC2      DRUD     -2.88090      0.400000           0   0.00000       0.00000    
      2671 IM1      73       IM1      H4       HDR5A    0.150000       1.00800           0   0.00000       0.00000    
      2672 IM1      73       IM1      C3       CD2R5A    3.06890       11.6110           0  -1.37800       1.30000    
      2673 IM1      73       IM1      DC3      DRUD     -2.88090      0.400000           0   0.00000       0.00000    
      2674 IM1      73       IM1      H5       HDR5A    0.530000E-01   1.00800           0   0.00000       0.00000    
      2675 IM1      73       IM1      C4       CD2R5B    2.40440       11.6110           0 -0.868000       1.30000    
      2676 IM1      73       IM1      DC4      DRUD     -2.28640      0.400000           0   0.00000       0.00000    
      2677 IM1      73       IM1      H6       HDR5B    0.730000E-01   1.00800           0   0.00000       0.00000    
      2678 IM1      73       IM1      N2       ND2R5B    2.24930       13.6070           0 -0.840000       1.00000    
      2679 IM1      73       IM1      DN2      DRUD     -2.24930      0.400000           0   0.00000       0.00000    
      2680 IM1      73       IM1      H7       DUMH      0.00000       1.00800           0   0.00000       0.00000    
      2681 IM1      73       IM1      LPN21    LPD     -0.474000       0.00000          -1   0.00000       0.00000    
      2682 IM1      74       IM1      C1       CD33G     2.39060       11.6110           0  -1.08100       1.00000    
      2683 IM1      74       IM1      DC1      DRUD     -2.55160      0.400000           0   0.00000       0.00000    
      2684 IM1      74       IM1      H1       HDA3A    0.940000E-01   1.00800           0   0.00000       0.00000    
      2685 IM1      74       IM1      H2       HDA3A    0.940000E-01   1.00800           0   0.00000       0.00000    
      2686 IM1      74       IM1      H3       HDA3A    0.940000E-01   1.00800           0   0.00000       0.00000    
      2687 IM1      74       IM1      N1       ND2R5A    2.67030       13.6070           0  -1.06300       1.30000    
      2688 IM1      74       IM1      DN1      DRUD     -2.53030      0.400000           0   0.00000       0.00000    
      2689 IM1      74       IM1      C2       CD2R5A    2.51190       11.6110           0  -1.37800       1.30000    
      2690 IM1      74       IM1      DC2      DRUD     -2.88090      0.400000           0   0.00000       0.00000    
      2691 IM1      74       IM1      H4       HDR5A    0.150000       1.00800           0   0.00000       0.00000    
      2692 IM1      74       IM1      C3       CD2R5A    3.06890       11.6110           0  -1.37800       1.30000    
      2693 IM1      74       IM1      DC3      DRUD     -2.88090      0.400000           0   0.00000       0.00000    
      2694 IM1      74       IM1      H5       HDR5A    0.530000E-01   1.00800           0   0.00000       0.00000    
      2695 IM1      74       IM1      C4       CD2R5B    2.40440       11.6110           0 -0.868000       1.30000    
      2696 IM1      74       IM1      DC4      DRUD     -2.28640      0.400000           0   0.00000       0.00000    
      2697 IM1      74       IM1      H6       HDR5B    0.730000E-01   1.00800           0   0.00000       0.00000    
      2698 IM1      74       IM1      N2       ND2R5B    2.24930       13.6070           0 -0.840000       1.00000    
      2699 IM1      74       IM1      DN2      DRUD     -2.24930      0.400000           0   0.00000       0.00000    
      2700 IM1      74       IM1      H7       DUMH      0.00000       1.00800           0   0.00000       0.00000    
      2701 IM1      74       IM1      LPN21    LPD     -0.474000       0.00000          -1   0.00000       0.00000    
      2702 IM1      75       IM1      C1       CD33G     2.39060       11.6110           0  -1.08100       1.00000    
      2703 IM1      75       IM1      DC1      DRUD     -2.55160      0.400000           0   0.00000       0.00000    
      2704 IM1      75       IM1      H1       HDA3A    0.940000E-01   1.00800           0   0.00000       0.00000    
      2705 IM1      75       IM1      H2       HDA3A    0.940000E-01   1.00800           0   0.00000       0.00000    
      2706 IM1      75       IM1      H3       HDA3A    0.940000E-01   1.00800           0   0.00000       0.00000    
      2707 IM1      75       IM1      N1       ND2R5A    2.67030       13.6070           0  -1.06300       1.30000    
      2708 IM1      75       IM1      DN1      DRUD     -2.53030      0.400000           0   0.00000       0.00000    
      2709 IM1      75       IM1      C2       CD2R5A    2.51190       11.6110           0  -1.37800       1.30000    
      2710 IM1      75       IM1      DC2      DRUD     -2.88090      0.400000           0   0.00000       0.00000    
      2711 IM1      75       IM1      H4       HDR5A    0.150000       1.00800           0   0.00000       0.00000    
      2712 IM1      75       IM1      C3       CD2R5A    3.06890       11.6110           0  -1.37800       1.30000    
      2713 IM1      75       IM1      DC3      DRUD     -2.88090      0.400000           0   0.00000       0.00000    
      2714 IM1      75       IM1      H5       HDR5A    0.530000E-01   1.00800           0   0.00000       0.00000    
      2715 IM1      75       IM1      C4       CD2R5B    2.40440       11.6110           0 -0.868000       1.30000    
      2716 IM1      75       IM1      DC4      DRUD     -2.28640      0.400000           0   0.00000       0.00000    
      2717 IM1      75       IM1      H6       HDR5B    0.730000E-01   1.00800           0   0.00000       0.00000    
      2718 IM1      75       IM1      N2       ND2R5B    2.24930       13.6070           0 -0.840000       1.00000    
      2719 IM1      75       IM1      DN2      DRUD     -2.24930      0.400000           0   0.00000       0.00000    
      2720 IM1      75       IM1      H7       DUMH      0.00000       1.00800           0   0.00000       0.00000    
      2721 IM1      75       IM1      LPN21    LPD     -0.474000       0.00000          -1   0.00000       0.00000    
      2722 IM1      76       IM1      C1       CD33G     2.39060       11.6110           0  -1.08100       1.00000    
      2723 IM1      76       IM1      DC1      DRUD     -2.55160      0.400000           0   0.00000       0.00000    
      2724 IM1      76       IM1      H1       HDA3A    0.940000E-01   1.00800           0   0.00000       0.00000    
      2725 IM1      76       IM1      H2       HDA3A    0.940000E-01   1.00800           0   0.00000       0.00000    
      2726 IM1      76       IM1      H3       HDA3A    0.940000E-01   1.00800           0   0.00000       0.00000    
      2727 IM1      76       IM1      N1       ND2R5A    2.67030       13.6070           0  -1.06300       1.30000    
      2728 IM1      76       IM1      DN1      DRUD     -2.53030      0.400000           0   0.00000       0.00000    
      2729 IM1      76       IM1      C2       CD2R5A    2.51190       11.6110           0  -1.37800       1.30000    
      2730 IM1      76       IM1      DC2      DRUD     -2.88090      0.400000           0   0.00000       0.00000    
      2731 IM1      76       IM1      H4       HDR5A    0.150000       1.00800           0   0.00000       0.00000    
      2732 IM1      76       IM1      C3       CD2R5A    3.06890       11.6110           0  -1.37800       1.30000    
      2733 IM1      76       IM1      DC3      DRUD     -2.88090      0.400000           0   0.00000       0.00000    
      2734 IM1      76       IM1      H5       HDR5A    0.530000E-01   1.00800           0   0.00000       0.00000    
      2735 IM1      76       IM1      C4       CD2R5B    2.40440       11.6110           0 -0.868000       1.30000    
      2736 IM1      76       IM1      DC4      DRUD     -2.28640      0.400000           0   0.00000       0.00000    
      2737 IM1      76       IM1      H6       HDR5B    0.730000E-01   1.00800           0   0.00000       0.00000    
      2738 IM1      76       IM1      N2       ND2R5B    2.24930       13.6070           0 -0.840000       1.00000    
      2739 IM1      76       IM1      DN2      DRUD     -2.24930      0.400000           0   0.00000       0.00000    
      2740 IM1      76       IM1      H7       DUMH      0.00000       1.00800           0   0.00000       0.00000    
      2741 IM1      76       IM1      LPN21    LPD     -0.474000       0.00000          -1   0.00000       0.00000    
      2742 IM1      77       IM1      C1       CD33G     2.39060       11.6110           0  -1.08100       1.00000    
      2743 IM1      77       IM1      DC1      DRUD     -2.55160      0.400000           0   0.00000       0.00000    
      2744 IM1      77       IM1      H1       HDA3A    0.940000E-01   1.00800           0   0.00000       0.00000    
      2745 IM1      77       IM1      H2       HDA3A    0.940000E-01   1.00800           0   0.00000       0.00000    
      2746 IM1      77       IM1      H3       HDA3A    0.940000E-01   1.00800           0   0.00000       0.00000    
      2747 IM1      77       IM1      N1       ND2R5A    2.67030       13.6070           0  -1.06300       1.30000    
      2748 IM1      77       IM1      DN1      DRUD     -2.53030      0.400000           0   0.00000       0.00000    
      2749 IM1      77       IM1      C2       CD2R5A    2.51190       11.6110           0  -1.37800       1.30000    
      2750 IM1      77       IM1      DC2      DRUD     -2.88090      0.400000           0   0.00000       0.00000    
      2751 IM1      77       IM1      H4       HDR5A    0.150000       1.00800           0   0.00000       0.00000    
      2752 IM1      77       IM1      C3       CD2R5A    3.06890       11.6110           0  -1.37800       1.30000    
      2753 IM1      77       IM1      DC3      DRUD     -2.88090      0.400000           0   0.00000       0.00000    
      2754 IM1      77       IM1      H5       HDR5A    0.530000E-01   1.00800           0   0.00000       0.00000    
      2755 IM1      77       IM1      C4       CD2R5B    2.40440       11.6110           0 -0.868000       1.30000    
      2756 IM1      77       IM1      DC4      DRUD     -2.28640      0.400000           0   0.00000       0.00000    
      2757 IM1      77       IM1      H6       HDR5B    0.730000E-01   1.00800           0   0.00000       0.00000    
      2758 IM1      77       IM1      N2       ND2R5B    2.24930       13.6070           0 -0.840000       1.00000    
      2759 IM1      77       IM1      DN2      DRUD     -2.24930      0.400000           0   0.00000       0.00000    
      2760 IM1      77       IM1      H7       DUMH      0.00000       1.00800           0   0.00000       0.00000    
      2761 IM1      77       IM1      LPN21    LPD     -0.474000       0.00000          -1   0.00000       0.00000    
      2762 IM1      78       IM1      C1       CD33G     2.39060       11.6110           0  -1.08100       1.00000    
      2763 IM1      78       IM1      DC1      DRUD     -2.55160      0.400000           0   0.00000       0.00000    
      2764 IM1      78       IM1      H1       HDA3A    0.940000E-01   1.00800           0   0.00000       0.00000    
      2765 IM1      78       IM1      H2       HDA3A    0.940000E-01   1.00800           0   0.00000       0.00000    
      2766 IM1      78       IM1      H3       HDA3A    0.940000E-01   1.00800           0   0.00000       0.00000    
      2767 IM1      78       IM1      N1       ND2R5A    2.67030       13.6070           0  -1.06300       1.30000    
      2768 IM1      78       IM1      DN1      DRUD     -2.53030      0.400000           0   0.00000       0.00000    
      2769 IM1      78       IM1      C2       CD2R5A    2.51190       11.6110           0  -1.37800       1.30000    
      2770 IM1      78       IM1      DC2      DRUD     -2.88090      0.400000           0   0.00000       0.00000    
      2771 IM1      78       IM1      H4       HDR5A    0.150000       1.00800           0   0.00000       0.00000    
      2772 IM1      78       IM1      C3       CD2R5A    3.06890       11.6110           0  -1.37800       1.30000    
      2773 IM1      78       IM1      DC3      DRUD     -2.88090      0.400000           0   0.00000       0.00000    
      2774 IM1      78       IM1      H5       HDR5A    0.530000E-01   1.00800           0   0.00000       0.00000    
      2775 IM1      78       IM1      C4       CD2R5B    2.40440       11.6110           0 -0.868000       1.30000    
      2776 IM1      78       IM1      DC4      DRUD     -2.28640      0.400000           0   0.00000       0.00000    
      2777 IM1      78       IM1      H6       HDR5B    0.730000E-01   1.00800           0   0.00000       0.00000    
      2778 IM1      78       IM1      N2       ND2R5B    2.24930       13.6070           0 -0.840000       1.00000    
      2779 IM1      78       IM1      DN2      DRUD     -2.24930      0.400000           0   0.00000       0.00000    
      2780 IM1      78       IM1      H7       DUMH      0.00000       1.00800           0   0.00000       0.00000    
      2781 IM1      78       IM1      LPN21    LPD     -0.474000       0.00000          -1   0.00000       0.00000    
      2782 HOAC     1        HOAC     C1       CD2O3A    3.55420       11.6110           0  -1.20700      0.708000    
      2783 HOAC     1        HOAC     DC1      DRUD     -2.69620      0.400000           0   0.00000       0.00000    
      2784 HOAC     1        HOAC     C2       CD33C     3.26820       11.6110           0  -2.11400      0.750000    
      2785 HOAC     1        HOAC     DC2      DRUD     -3.56820      0.400000           0   0.00000       0.00000    
      2786 HOAC     1        HOAC     H1       HDA3A    0.920000E-01   1.00800           0   0.00000       0.00000    
      2787 HOAC     1        HOAC     H2       HDA3A    0.920000E-01   1.00800           0   0.00000       0.00000    
      2788 HOAC     1        HOAC     H3       HDA3A    0.920000E-01   1.00800           0   0.00000       0.00000    
      2789 HOAC     1        HOAC     O1       OD2C3A    2.35650       15.5994           0 -0.922000       1.53900    
      2790 HOAC     1        HOAC     DO1      DRUD     -2.35650      0.400000           0   0.00000       0.00000    
      2791 HOAC     1        HOAC     O2       OD31F     2.77650       15.5990           0  -1.28000       1.12400    
      2792 HOAC     1        HOAC     DO2      DRUD     -2.77650      0.400000           0   0.00000       0.00000    
      2793 HOAC     1        HOAC     HO2      HDP1A    0.374000       1.00800           0   0.00000       0.00000    
      2794 HOAC     1        HOAC     HO1      DUMH      0.00000       1.00800           0   0.00000       0.00000    
      2795 HOAC     1        HOAC     LPO11    LPD     -0.319000       0.00000          -1   0.00000       0.00000    
      2796 HOAC     1        HOAC     LPO12    LPD     -0.319000       0.00000          -1   0.00000       0.00000    
      2797 HOAC     1        HOAC     LPO21    LPD     -0.285000       0.00000          -1   0.00000       0.00000    
      2798 HOAC     1        HOAC     LPO22    LPD     -0.285000       0.00000          -1   0.00000       0.00000    
      2799 HOAC     2        HOAC     C1       CD2O3A    3.55420       11.6110           0  -1.20700      0.708000    
      2800 HOAC     2        HOAC     DC1      DRUD     -2.69620      0.400000           0   0.00000       0.00000    
      2801 HOAC     2        HOAC     C2       CD33C     3.26820       11.6110           0  -2.11400      0.750000    
      2802 HOAC     2        HOAC     DC2      DRUD     -3.56820      0.400000           0   0.00000       0.00000    
      2803 HOAC     2        HOAC     H1       HDA3A    0.920000E-01   1.00800           0   0.00000       0.00000    
      2804 HOAC     2        HOAC     H2       HDA3A    0.920000E-01   1.00800           0   0.00000       0.00000    
      2805 HOAC     2        HOAC     H3       HDA3A    0.920000E-01   1.00800           0   0.00000       0.00000    
      2806 HOAC     2        HOAC     O1       OD2C3A    2.35650       15.5994           0 -0.922000       1.53900    
      2807 HOAC     2        HOAC     DO1      DRUD     -2.35650      0.400000           0   0.00000       0.00000    
      2808 HOAC     2        HOAC     O2       OD31F     2.77650       15.5990           0  -1.28000       1.12400    
      2809 HOAC     2        HOAC     DO2      DRUD     -2.77650      0.400000           0   0.00000       0.00000    
      2810 HOAC     2        HOAC     HO2      HDP1A    0.374000       1.00800           0   0.00000       0.00000    
      2811 HOAC     2        HOAC     HO1      DUMH      0.00000       1.00800           0   0.00000       0.00000    
      2812 HOAC     2        HOAC     LPO11    LPD     -0.319000       0.00000          -1   0.00000       0.00000    
      2813 HOAC     2        HOAC     LPO12    LPD     -0.319000       0.00000          -1   0.00000       0.00000    
      2814 HOAC     2        HOAC     LPO21    LPD     -0.285000       0.00000          -1   0.00000       0.00000    
      2815 HOAC     2        HOAC     LPO22    LPD     -0.285000       0.00000          -1   0.00000       0.00000    
      2816 HOAC     3        HOAC     C1       CD2O3A    3.55420       11.6110           0  -1.20700      0.708000    
      2817 HOAC     3        HOAC     DC1      DRUD     -2.69620      0.400000           0   0.00000       0.00000    
      2818 HOAC     3        HOAC     C2       CD33C     3.26820       11.6110           0  -2.11400      0.750000    
      2819 HOAC     3        HOAC     DC2      DRUD     -3.56820      0.400000           0   0.00000       0.00000    
      2820 HOAC     3        HOAC     H1       HDA3A    0.920000E-01   1.00800           0   0.00000       0.00000    
      2821 HOAC     3        HOAC     H2       HDA3A    0.920000E-01   1.00800           0   0.00000       0.00000    
      2822 HOAC     3        HOAC     H3       HDA3A    0.920000E-01   1.00800           0   0.00000       0.00000    
      2823 HOAC     3        HOAC     O1       OD2C3A    2.35650       15.5994           0 -0.922000       1.53900    
      2824 HOAC     3        HOAC     DO1      DRUD     -2.35650      0.400000           0   0.00000       0.00000    
      2825 HOAC     3        HOAC     O2       OD31F     2.77650       15.5990           0  -1.28000       1.12400    
      2826 HOAC     3        HOAC     DO2      DRUD     -2.77650      0.400000           0   0.00000       0.00000    
      2827 HOAC     3        HOAC     HO2      HDP1A    0.374000       1.00800           0   0.00000       0.00000    
      2828 HOAC     3        HOAC     HO1      DUMH      0.00000       1.00800           0   0.00000       0.00000    
      2829 HOAC     3        HOAC     LPO11    LPD     -0.319000       0.00000          -1   0.00000       0.00000    
      2830 HOAC     3        HOAC     LPO12    LPD     -0.319000       0.00000          -1   0.00000       0.00000    
      2831 HOAC     3        HOAC     LPO21    LPD     -0.285000       0.00000          -1   0.00000       0.00000    
      2832 HOAC     3        HOAC     LPO22    LPD     -0.285000       0.00000          -1   0.00000       0.00000    
      2833 HOAC     4        HOAC     C1       CD2O3A    3.55420       11.6110           0  -1.20700      0.708000    
      2834 HOAC     4        HOAC     DC1      DRUD     -2.69620      0.400000           0   0.00000       0.00000    
      2835 HOAC     4        HOAC     C2       CD33C     3.26820       11.6110           0  -2.11400      0.750000    
      2836 HOAC     4        HOAC     DC2      DRUD     -3.56820      0.400000           0   0.00000       0.00000    
      2837 HOAC     4        HOAC     H1       HDA3A    0.920000E-01   1.00800           0   0.00000       0.00000    
      2838 HOAC     4        HOAC     H2       HDA3A    0.920000E-01   1.00800           0   0.00000       0.00000    
      2839 HOAC     4        HOAC     H3       HDA3A    0.920000E-01   1.00800           0   0.00000       0.00000    
      2840 HOAC     4        HOAC     O1       OD2C3A    2.35650       15.5994           0 -0.922000       1.53900    
      2841 HOAC     4        HOAC     DO1      DRUD     -2.35650      0.400000           0   0.00000       0.00000    
      2842 HOAC     4        HOAC     O2       OD31F     2.77650       15.5990           0  -1.28000       1.12400    
      2843 HOAC     4        HOAC     DO2      DRUD     -2.77650      0.400000           0   0.00000       0.00000    
      2844 HOAC     4        HOAC     HO2      HDP1A    0.374000       1.00800           0   0.00000       0.00000    
      2845 HOAC     4        HOAC     HO1      DUMH      0.00000       1.00800           0   0.00000       0.00000    
      2846 HOAC     4        HOAC     LPO11    LPD     -0.319000       0.00000          -1   0.00000       0.00000    
      2847 HOAC     4        HOAC     LPO12    LPD     -0.319000       0.00000          -1   0.00000       0.00000    
      2848 HOAC     4        HOAC     LPO21    LPD     -0.285000       0.00000          -1   0.00000       0.00000    
      2849 HOAC     4        HOAC     LPO22    LPD     -0.285000       0.00000          -1   0.00000       0.00000    
      2850 HOAC     5        HOAC     C1       CD2O3A    3.55420       11.6110           0  -1.20700      0.708000    
      2851 HOAC     5        HOAC     DC1      DRUD     -2.69620      0.400000           0   0.00000       0.00000    
      2852 HOAC     5        HOAC     C2       CD33C     3.26820       11.6110           0  -2.11400      0.750000    
      2853 HOAC     5        HOAC     DC2      DRUD     -3.56820      0.400000           0   0.00000       0.00000    
      2854 HOAC     5        HOAC     H1       HDA3A    0.920000E-01   1.00800           0   0.00000       0.00000    
      2855 HOAC     5        HOAC     H2       HDA3A    0.920000E-01   1.00800           0   0.00000       0.00000    
      2856 HOAC     5        HOAC     H3       HDA3A    0.920000E-01   1.00800           0   0.00000       0.00000    
      2857 HOAC     5        HOAC     O1       OD2C3A    2.35650       15.5994           0 -0.922000       1.53900    
      2858 HOAC     5        HOAC     DO1      DRUD     -2.35650      0.400000           0   0.00000       0.00000    
      2859 HOAC     5        HOAC     O2       OD31F     2.77650       15.5990           0  -1.28000       1.12400    
      2860 HOAC     5        HOAC     DO2      DRUD     -2.77650      0.400000           0   0.00000       0.00000    
      2861 HOAC     5        HOAC     HO2      HDP1A    0.374000       1.00800           0   0.00000       0.00000    
      2862 HOAC     5        HOAC     HO1      DUMH      0.00000       1.00800           0   0.00000       0.00000    
      2863 HOAC     5        HOAC     LPO11    LPD     -0.319000       0.00000          -1   0.00000       0.00000    
      2864 HOAC     5        HOAC     LPO12    LPD     -0.319000       0.00000          -1   0.00000       0.00000    
      2865 HOAC     5        HOAC     LPO21    LPD     -0.285000       0.00000          -1   0.00000       0.00000    
      2866 HOAC     5        HOAC     LPO22    LPD     -0.285000       0.00000          -1   0.00000       0.00000    
      2867 HOAC     6        HOAC     C1       CD2O3A    3.55420       11.6110           0  -1.20700      0.708000    
      2868 HOAC     6        HOAC     DC1      DRUD     -2.69620      0.400000           0   0.00000       0.00000    
      2869 HOAC     6        HOAC     C2       CD33C     3.26820       11.6110           0  -2.11400      0.750000    
      2870 HOAC     6        HOAC     DC2      DRUD     -3.56820      0.400000           0   0.00000       0.00000    
      2871 HOAC     6        HOAC     H1       HDA3A    0.920000E-01   1.00800           0   0.00000       0.00000    
      2872 HOAC     6        HOAC     H2       HDA3A    0.920000E-01   1.00800           0   0.00000       0.00000    
      2873 HOAC     6        HOAC     H3       HDA3A    0.920000E-01   1.00800           0   0.00000       0.00000    
      2874 HOAC     6        HOAC     O1       OD2C3A    2.35650       15.5994           0 -0.922000       1.53900    
      2875 HOAC     6        HOAC     DO1      DRUD     -2.35650      0.400000           0   0.00000       0.00000    
      2876 HOAC     6        HOAC     O2       OD31F     2.77650       15.5990           0  -1.28000       1.12400    
      2877 HOAC     6        HOAC     DO2      DRUD     -2.77650      0.400000           0   0.00000       0.00000    
      2878 HOAC     6        HOAC     HO2      HDP1A    0.374000       1.00800           0   0.00000       0.00000    
      2879 HOAC     6        HOAC     HO1      DUMH      0.00000       1.00800           0   0.00000       0.00000    
      2880 HOAC     6        HOAC     LPO11    LPD     -0.319000       0.00000          -1   0.00000       0.00000    
      2881 HOAC     6        HOAC     LPO12    LPD     -0.319000       0.00000          -1   0.00000       0.00000    
      2882 HOAC     6        HOAC     LPO21    LPD     -0.285000       0.00000          -1   0.00000       0.00000    
      2883 HOAC     6        HOAC     LPO22    LPD     -0.285000       0.00000          -1   0.00000       0.00000    
      2884 HOAC     7        HOAC     C1       CD2O3A    3.55420       11.6110           0  -1.20700      0.708000    
      2885 HOAC     7        HOAC     DC1      DRUD     -2.69620      0.400000           0   0.00000       0.00000    
      2886 HOAC     7        HOAC     C2       CD33C     3.26820       11.6110           0  -2.11400      0.750000    
      2887 HOAC     7        HOAC     DC2      DRUD     -3.56820      0.400000           0   0.00000       0.00000    
      2888 HOAC     7        HOAC     H1       HDA3A    0.920000E-01   1.00800           0   0.00000       0.00000    
      2889 HOAC     7        HOAC     H2       HDA3A    0.920000E-01   1.00800           0   0.00000       0.00000    
      2890 HOAC     7        HOAC     H3       HDA3A    0.920000E-01   1.00800           0   0.00000       0.00000    
      2891 HOAC     7        HOAC     O1       OD2C3A    2.35650       15.5994           0 -0.922000       1.53900    
      2892 HOAC     7        HOAC     DO1      DRUD     -2.35650      0.400000           0   0.00000       0.00000    
      2893 HOAC     7        HOAC     O2       OD31F     2.77650       15.5990           0  -1.28000       1.12400    
      2894 HOAC     7        HOAC     DO2      DRUD     -2.77650      0.400000           0   0.00000       0.00000    
      2895 HOAC     7        HOAC     HO2      HDP1A    0.374000       1.00800           0   0.00000       0.00000    
      2896 HOAC     7        HOAC     HO1      DUMH      0.00000       1.00800           0   0.00000       0.00000    
      2897 HOAC     7        HOAC     LPO11    LPD     -0.319000       0.00000          -1   0.00000       0.00000    
      2898 HOAC     7        HOAC     LPO12    LPD     -0.319000       0.00000          -1   0.00000       0.00000    
      2899 HOAC     7        HOAC     LPO21    LPD     -0.285000       0.00000          -1   0.00000       0.00000    
      2900 HOAC     7        HOAC     LPO22    LPD     -0.285000       0.00000          -1   0.00000       0.00000    
      2901 HOAC     8        HOAC     C1       CD2O3A    3.55420       11.6110           0  -1.20700      0.708000    
      2902 HOAC     8        HOAC     DC1      DRUD     -2.69620      0.400000           0   0.00000       0.00000    
      2903 HOAC     8        HOAC     C2       CD33C     3.26820       11.6110           0  -2.11400      0.750000    
      2904 HOAC     8        HOAC     DC2      DRUD     -3.56820      0.400000           0   0.00000       0.00000    
      2905 HOAC     8        HOAC     H1       HDA3A    0.920000E-01   1.00800           0   0.00000       0.00000    
      2906 HOAC     8        HOAC     H2       HDA3A    0.920000E-01   1.00800           0   0.00000       0.00000    
      2907 HOAC     8        HOAC     H3       HDA3A    0.920000E-01   1.00800           0   0.00000       0.00000    
      2908 HOAC     8        HOAC     O1       OD2C3A    2.35650       15.5994           0 -0.922000       1.53900    
      2909 HOAC     8        HOAC     DO1      DRUD     -2.35650      0.400000           0   0.00000       0.00000    
      2910 HOAC     8        HOAC     O2       OD31F     2.77650       15.5990           0  -1.28000       1.12400    
      2911 HOAC     8        HOAC     DO2      DRUD     -2.77650      0.400000           0   0.00000       0.00000    
      2912 HOAC     8        HOAC     HO2      HDP1A    0.374000       1.00800           0   0.00000       0.00000    
      2913 HOAC     8        HOAC     HO1      DUMH      0.00000       1.00800           0   0.00000       0.00000    
      2914 HOAC     8        HOAC     LPO11    LPD     -0.319000       0.00000          -1   0.00000       0.00000    
      2915 HOAC     8        HOAC     LPO12    LPD     -0.319000       0.00000          -1   0.00000       0.00000    
      2916 HOAC     8        HOAC     LPO21    LPD     -0.285000       0.00000          -1   0.00000       0.00000    
      2917 HOAC     8        HOAC     LPO22    LPD     -0.285000       0.00000          -1   0.00000       0.00000    
      2918 HOAC     9        HOAC     C1       CD2O3A    3.55420       11.6110           0  -1.20700      0.708000    
      2919 HOAC     9        HOAC     DC1      DRUD     -2.69620      0.400000           0   0.00000       0.00000    
      2920 HOAC     9        HOAC     C2       CD33C     3.26820       11.6110           0  -2.11400      0.750000    
      2921 HOAC     9        HOAC     DC2      DRUD     -3.56820      0.400000           0   0.00000       0.00000    
      2922 HOAC     9        HOAC     H1       HDA3A    0.920000E-01   1.00800           0   0.00000       0.00000    
      2923 HOAC     9        HOAC     H2       HDA3A    0.920000E-01   1.00800           0   0.00000       0.00000    
      2924 HOAC     9        HOAC     H3       HDA3A    0.920000E-01   1.00800           0   0.00000       0.00000    
      2925 HOAC     9        HOAC     O1       OD2C3A    2.35650       15.5994           0 -0.922000       1.53900    
      2926 HOAC     9        HOAC     DO1      DRUD     -2.35650      0.400000           0   0.00000       0.00000    
      2927 HOAC     9        HOAC     O2       OD31F     2.77650       15.5990           0  -1.28000       1.12400    
      2928 HOAC     9        HOAC     DO2      DRUD     -2.77650      0.400000           0   0.00000       0.00000    
      2929 HOAC     9        HOAC     HO2      HDP1A    0.374000       1.00800           0   0.00000       0.00000    
      2930 HOAC     9        HOAC     HO1      DUMH      0.00000       1.00800           0   0.00000       0.00000    
      2931 HOAC     9        HOAC     LPO11    LPD     -0.319000       0.00000          -1   0.00000       0.00000    
      2932 HOAC     9        HOAC     LPO12    LPD     -0.319000       0.00000          -1   0.00000       0.00000    
      2933 HOAC     9        HOAC     LPO21    LPD     -0.285000       0.00000          -1   0.00000       0.00000    
      2934 HOAC     9        HOAC     LPO22    LPD     -0.285000       0.00000          -1   0.00000       0.00000    
      2935 HOAC     10       HOAC     C1       CD2O3A    3.55420       11.6110           0  -1.20700      0.708000    
      2936 HOAC     10       HOAC     DC1      DRUD     -2.69620      0.400000           0   0.00000       0.00000    
      2937 HOAC     10       HOAC     C2       CD33C     3.26820       11.6110           0  -2.11400      0.750000    
      2938 HOAC     10       HOAC     DC2      DRUD     -3.56820      0.400000           0   0.00000       0.00000    
      2939 HOAC     10       HOAC     H1       HDA3A    0.920000E-01   1.00800           0   0.00000       0.00000    
      2940 HOAC     10       HOAC     H2       HDA3A    0.920000E-01   1.00800           0   0.00000       0.00000    
      2941 HOAC     10       HOAC     H3       HDA3A    0.920000E-01   1.00800           0   0.00000       0.00000    
      2942 HOAC     10       HOAC     O1       OD2C3A    2.35650       15.5994           0 -0.922000       1.53900    
      2943 HOAC     10       HOAC     DO1      DRUD     -2.35650      0.400000           0   0.00000       0.00000    
      2944 HOAC     10       HOAC     O2       OD31F     2.77650       15.5990           0  -1.28000       1.12400    
      2945 HOAC     10       HOAC     DO2      DRUD     -2.77650      0.400000           0   0.00000       0.00000    
      2946 HOAC     10       HOAC     HO2      HDP1A    0.374000       1.00800           0   0.00000       0.00000    
      2947 HOAC     10       HOAC     HO1      DUMH      0.00000       1.00800           0   0.00000       0.00000    
      2948 HOAC     10       HOAC     LPO11    LPD     -0.319000       0.00000          -1   0.00000       0.00000    
      2949 HOAC     10       HOAC     LPO12    LPD     -0.319000       0.00000          -1   0.00000       0.00000    
      2950 HOAC     10       HOAC     LPO21    LPD     -0.285000       0.00000          -1   0.00000       0.00000    
      2951 HOAC     10       HOAC     LPO22    LPD     -0.285000       0.00000          -1   0.00000       0.00000    
      2952 HOAC     11       HOAC     C1       CD2O3A    3.55420       11.6110           0  -1.20700      0.708000    
      2953 HOAC     11       HOAC     DC1      DRUD     -2.69620      0.400000           0   0.00000       0.00000    
      2954 HOAC     11       HOAC     C2       CD33C     3.26820       11.6110           0  -2.11400      0.750000    
      2955 HOAC     11       HOAC     DC2      DRUD     -3.56820      0.400000           0   0.00000       0.00000    
      2956 HOAC     11       HOAC     H1       HDA3A    0.920000E-01   1.00800           0   0.00000       0.00000    
      2957 HOAC     11       HOAC     H2       HDA3A    0.920000E-01   1.00800           0   0.00000       0.00000    
      2958 HOAC     11       HOAC     H3       HDA3A    0.920000E-01   1.00800           0   0.00000       0.00000    
      2959 HOAC     11       HOAC     O1       OD2C3A    2.35650       15.5994           0 -0.922000       1.53900    
      2960 HOAC     11       HOAC     DO1      DRUD     -2.35650      0.400000           0   0.00000       0.00000    
      2961 HOAC     11       HOAC     O2       OD31F     2.77650       15.5990           0  -1.28000       1.12400    
      2962 HOAC     11       HOAC     DO2      DRUD     -2.77650      0.400000           0   0.00000       0.00000    
      2963 HOAC     11       HOAC     HO2      HDP1A    0.374000       1.00800           0   0.00000       0.00000    
      2964 HOAC     11       HOAC     HO1      DUMH      0.00000       1.00800           0   0.00000       0.00000    
      2965 HOAC     11       HOAC     LPO11    LPD     -0.319000       0.00000          -1   0.00000       0.00000    
      2966 HOAC     11       HOAC     LPO12    LPD     -0.319000       0.00000          -1   0.00000       0.00000    
      2967 HOAC     11       HOAC     LPO21    LPD     -0.285000       0.00000          -1   0.00000       0.00000    
      2968 HOAC     11       HOAC     LPO22    LPD     -0.285000       0.00000          -1   0.00000       0.00000    
      2969 HOAC     12       HOAC     C1       CD2O3A    3.55420       11.6110           0  -1.20700      0.708000    
      2970 HOAC     12       HOAC     DC1      DRUD     -2.69620      0.400000           0   0.00000       0.00000    
      2971 HOAC     12       HOAC     C2       CD33C     3.26820       11.6110           0  -2.11400      0.750000    
      2972 HOAC     12       HOAC     DC2      DRUD     -3.56820      0.400000           0   0.00000       0.00000    
      2973 HOAC     12       HOAC     H1       HDA3A    0.920000E-01   1.00800           0   0.00000       0.00000    
      2974 HOAC     12       HOAC     H2       HDA3A    0.920000E-01   1.00800           0   0.00000       0.00000    
      2975 HOAC     12       HOAC     H3       HDA3A    0.920000E-01   1.00800           0   0.00000       0.00000    
      2976 HOAC     12       HOAC     O1       OD2C3A    2.35650       15.5994           0 -0.922000       1.53900    
      2977 HOAC     12       HOAC     DO1      DRUD     -2.35650      0.400000           0   0.00000       0.00000    
      2978 HOAC     12       HOAC     O2       OD31F     2.77650       15.5990           0  -1.28000       1.12400    
      2979 HOAC     12       HOAC     DO2      DRUD     -2.77650      0.400000           0   0.00000       0.00000    
      2980 HOAC     12       HOAC     HO2      HDP1A    0.374000       1.00800           0   0.00000       0.00000    
      2981 HOAC     12       HOAC     HO1      DUMH      0.00000       1.00800           0   0.00000       0.00000    
      2982 HOAC     12       HOAC     LPO11    LPD     -0.319000       0.00000          -1   0.00000       0.00000    
      2983 HOAC     12       HOAC     LPO12    LPD     -0.319000       0.00000          -1   0.00000       0.00000    
      2984 HOAC     12       HOAC     LPO21    LPD     -0.285000       0.00000          -1   0.00000       0.00000    
      2985 HOAC     12       HOAC     LPO22    LPD     -0.285000       0.00000          -1   0.00000       0.00000    
      2986 HOAC     13       HOAC     C1       CD2O3A    3.55420       11.6110           0  -1.20700      0.708000    
      2987 HOAC     13       HOAC     DC1      DRUD     -2.69620      0.400000           0   0.00000       0.00000    
      2988 HOAC     13       HOAC     C2       CD33C     3.26820       11.6110           0  -2.11400      0.750000    
      2989 HOAC     13       HOAC     DC2      DRUD     -3.56820      0.400000           0   0.00000       0.00000    
      2990 HOAC     13       HOAC     H1       HDA3A    0.920000E-01   1.00800           0   0.00000       0.00000    
      2991 HOAC     13       HOAC     H2       HDA3A    0.920000E-01   1.00800           0   0.00000       0.00000    
      2992 HOAC     13       HOAC     H3       HDA3A    0.920000E-01   1.00800           0   0.00000       0.00000    
      2993 HOAC     13       HOAC     O1       OD2C3A    2.35650       15.5994           0 -0.922000       1.53900    
      2994 HOAC     13       HOAC     DO1      DRUD     -2.35650      0.400000           0   0.00000       0.00000    
      2995 HOAC     13       HOAC     O2       OD31F     2.77650       15.5990           0  -1.28000       1.12400    
      2996 HOAC     13       HOAC     DO2      DRUD     -2.77650      0.400000           0   0.00000       0.00000    
      2997 HOAC     13       HOAC     HO2      HDP1A    0.374000       1.00800           0   0.00000       0.00000    
      2998 HOAC     13       HOAC     HO1      DUMH      0.00000       1.00800           0   0.00000       0.00000    
      2999 HOAC     13       HOAC     LPO11    LPD     -0.319000       0.00000          -1   0.00000       0.00000    
      3000 HOAC     13       HOAC     LPO12    LPD     -0.319000       0.00000          -1   0.00000       0.00000    
      3001 HOAC     13       HOAC     LPO21    LPD     -0.285000       0.00000          -1   0.00000       0.00000    
      3002 HOAC     13       HOAC     LPO22    LPD     -0.285000       0.00000          -1   0.00000       0.00000    
      3003 HOAC     14       HOAC     C1       CD2O3A    3.55420       11.6110           0  -1.20700      0.708000    
      3004 HOAC     14       HOAC     DC1      DRUD     -2.69620      0.400000           0   0.00000       0.00000    
      3005 HOAC     14       HOAC     C2       CD33C     3.26820       11.6110           0  -2.11400      0.750000    
      3006 HOAC     14       HOAC     DC2      DRUD     -3.56820      0.400000           0   0.00000       0.00000    
      3007 HOAC     14       HOAC     H1       HDA3A    0.920000E-01   1.00800           0   0.00000       0.00000    
      3008 HOAC     14       HOAC     H2       HDA3A    0.920000E-01   1.00800           0   0.00000       0.00000    
      3009 HOAC     14       HOAC     H3       HDA3A    0.920000E-01   1.00800           0   0.00000       0.00000    
      3010 HOAC     14       HOAC     O1       OD2C3A    2.35650       15.5994           0 -0.922000       1.53900    
      3011 HOAC     14       HOAC     DO1      DRUD     -2.35650      0.400000           0   0.00000       0.00000    
      3012 HOAC     14       HOAC     O2       OD31F     2.77650       15.5990           0  -1.28000       1.12400    
      3013 HOAC     14       HOAC     DO2      DRUD     -2.77650      0.400000           0   0.00000       0.00000    
      3014 HOAC     14       HOAC     HO2      HDP1A    0.374000       1.00800           0   0.00000       0.00000    
      3015 HOAC     14       HOAC     HO1      DUMH      0.00000       1.00800           0   0.00000       0.00000    
      3016 HOAC     14       HOAC     LPO11    LPD     -0.319000       0.00000          -1   0.00000       0.00000    
      3017 HOAC     14       HOAC     LPO12    LPD     -0.319000       0.00000          -1   0.00000       0.00000    
      3018 HOAC     14       HOAC     LPO21    LPD     -0.285000       0.00000          -1   0.00000       0.00000    
      3019 HOAC     14       HOAC     LPO22    LPD     -0.285000       0.00000          -1   0.00000       0.00000    
      3020 HOAC     15       HOAC     C1       CD2O3A    3.55420       11.6110           0  -1.20700      0.708000    
      3021 HOAC     15       HOAC     DC1      DRUD     -2.69620      0.400000           0   0.00000       0.00000    
      3022 HOAC     15       HOAC     C2       CD33C     3.26820       11.6110           0  -2.11400      0.750000    
      3023 HOAC     15       HOAC     DC2      DRUD     -3.56820      0.400000           0   0.00000       0.00000    
      3024 HOAC     15       HOAC     H1       HDA3A    0.920000E-01   1.00800           0   0.00000       0.00000    
      3025 HOAC     15       HOAC     H2       HDA3A    0.920000E-01   1.00800           0   0.00000       0.00000    
      3026 HOAC     15       HOAC     H3       HDA3A    0.920000E-01   1.00800           0   0.00000       0.00000    
      3027 HOAC     15       HOAC     O1       OD2C3A    2.35650       15.5994           0 -0.922000       1.53900    
      3028 HOAC     15       HOAC     DO1      DRUD     -2.35650      0.400000           0   0.00000       0.00000    
      3029 HOAC     15       HOAC     O2       OD31F     2.77650       15.5990           0  -1.28000       1.12400    
      3030 HOAC     15       HOAC     DO2      DRUD     -2.77650      0.400000           0   0.00000       0.00000    
      3031 HOAC     15       HOAC     HO2      HDP1A    0.374000       1.00800           0   0.00000       0.00000    
      3032 HOAC     15       HOAC     HO1      DUMH      0.00000       1.00800           0   0.00000       0.00000    
      3033 HOAC     15       HOAC     LPO11    LPD     -0.319000       0.00000          -1   0.00000       0.00000    
      3034 HOAC     15       HOAC     LPO12    LPD     -0.319000       0.00000          -1   0.00000       0.00000    
      3035 HOAC     15       HOAC     LPO21    LPD     -0.285000       0.00000          -1   0.00000       0.00000    
      3036 HOAC     15       HOAC     LPO22    LPD     -0.285000       0.00000          -1   0.00000       0.00000    
      3037 HOAC     16       HOAC     C1       CD2O3A    3.55420       11.6110           0  -1.20700      0.708000    
      3038 HOAC     16       HOAC     DC1      DRUD     -2.69620      0.400000           0   0.00000       0.00000    
      3039 HOAC     16       HOAC     C2       CD33C     3.26820       11.6110           0  -2.11400      0.750000    
      3040 HOAC     16       HOAC     DC2      DRUD     -3.56820      0.400000           0   0.00000       0.00000    
      3041 HOAC     16       HOAC     H1       HDA3A    0.920000E-01   1.00800           0   0.00000       0.00000    
      3042 HOAC     16       HOAC     H2       HDA3A    0.920000E-01   1.00800           0   0.00000       0.00000    
      3043 HOAC     16       HOAC     H3       HDA3A    0.920000E-01   1.00800           0   0.00000       0.00000    
      3044 HOAC     16       HOAC     O1       OD2C3A    2.35650       15.5994           0 -0.922000       1.53900    
      3045 HOAC     16       HOAC     DO1      DRUD     -2.35650      0.400000           0   0.00000       0.00000    
      3046 HOAC     16       HOAC     O2       OD31F     2.77650       15.5990           0  -1.28000       1.12400    
      3047 HOAC     16       HOAC     DO2      DRUD     -2.77650      0.400000           0   0.00000       0.00000    
      3048 HOAC     16       HOAC     HO2      HDP1A    0.374000       1.00800           0   0.00000       0.00000    
      3049 HOAC     16       HOAC     HO1      DUMH      0.00000       1.00800           0   0.00000       0.00000    
      3050 HOAC     16       HOAC     LPO11    LPD     -0.319000       0.00000          -1   0.00000       0.00000    
      3051 HOAC     16       HOAC     LPO12    LPD     -0.319000       0.00000          -1   0.00000       0.00000    
      3052 HOAC     16       HOAC     LPO21    LPD     -0.285000       0.00000          -1   0.00000       0.00000    
      3053 HOAC     16       HOAC     LPO22    LPD     -0.285000       0.00000          -1   0.00000       0.00000    
      3054 HOAC     17       HOAC     C1       CD2O3A    3.55420       11.6110           0  -1.20700      0.708000    
      3055 HOAC     17       HOAC     DC1      DRUD     -2.69620      0.400000           0   0.00000       0.00000    
      3056 HOAC     17       HOAC     C2       CD33C     3.26820       11.6110           0  -2.11400      0.750000    
      3057 HOAC     17       HOAC     DC2      DRUD     -3.56820      0.400000           0   0.00000       0.00000    
      3058 HOAC     17       HOAC     H1       HDA3A    0.920000E-01   1.00800           0   0.00000       0.00000    
      3059 HOAC     17       HOAC     H2       HDA3A    0.920000E-01   1.00800           0   0.00000       0.00000    
      3060 HOAC     17       HOAC     H3       HDA3A    0.920000E-01   1.00800           0   0.00000       0.00000    
      3061 HOAC     17       HOAC     O1       OD2C3A    2.35650       15.5994           0 -0.922000       1.53900    
      3062 HOAC     17       HOAC     DO1      DRUD     -2.35650      0.400000           0   0.00000       0.00000    
      3063 HOAC     17       HOAC     O2       OD31F     2.77650       15.5990           0  -1.28000       1.12400    
      3064 HOAC     17       HOAC     DO2      DRUD     -2.77650      0.400000           0   0.00000       0.00000    
      3065 HOAC     17       HOAC     HO2      HDP1A    0.374000       1.00800           0   0.00000       0.00000    
      3066 HOAC     17       HOAC     HO1      DUMH      0.00000       1.00800           0   0.00000       0.00000    
      3067 HOAC     17       HOAC     LPO11    LPD     -0.319000       0.00000          -1   0.00000       0.00000    
      3068 HOAC     17       HOAC     LPO12    LPD     -0.319000       0.00000          -1   0.00000       0.00000    
      3069 HOAC     17       HOAC     LPO21    LPD     -0.285000       0.00000          -1   0.00000       0.00000    
      3070 HOAC     17       HOAC     LPO22    LPD     -0.285000       0.00000          -1   0.00000       0.00000    
      3071 HOAC     18       HOAC     C1       CD2O3A    3.55420       11.6110           0  -1.20700      0.708000    
      3072 HOAC     18       HOAC     DC1      DRUD     -2.69620      0.400000           0   0.00000       0.00000    
      3073 HOAC     18       HOAC     C2       CD33C     3.26820       11.6110           0  -2.11400      0.750000    
      3074 HOAC     18       HOAC     DC2      DRUD     -3.56820      0.400000           0   0.00000       0.00000    
      3075 HOAC     18       HOAC     H1       HDA3A    0.920000E-01   1.00800           0   0.00000       0.00000    
      3076 HOAC     18       HOAC     H2       HDA3A    0.920000E-01   1.00800           0   0.00000       0.00000    
      3077 HOAC     18       HOAC     H3       HDA3A    0.920000E-01   1.00800           0   0.00000       0.00000    
      3078 HOAC     18       HOAC     O1       OD2C3A    2.35650       15.5994           0 -0.922000       1.53900    
      3079 HOAC     18       HOAC     DO1      DRUD     -2.35650      0.400000           0   0.00000       0.00000    
      3080 HOAC     18       HOAC     O2       OD31F     2.77650       15.5990           0  -1.28000       1.12400    
      3081 HOAC     18       HOAC     DO2      DRUD     -2.77650      0.400000           0   0.00000       0.00000    
      3082 HOAC     18       HOAC     HO2      HDP1A    0.374000       1.00800           0   0.00000       0.00000    
      3083 HOAC     18       HOAC     HO1      DUMH      0.00000       1.00800           0   0.00000       0.00000    
      3084 HOAC     18       HOAC     LPO11    LPD     -0.319000       0.00000          -1   0.00000       0.00000    
      3085 HOAC     18       HOAC     LPO12    LPD     -0.319000       0.00000          -1   0.00000       0.00000    
      3086 HOAC     18       HOAC     LPO21    LPD     -0.285000       0.00000          -1   0.00000       0.00000    
      3087 HOAC     18       HOAC     LPO22    LPD     -0.285000       0.00000          -1   0.00000       0.00000    
      3088 HOAC     19       HOAC     C1       CD2O3A    3.55420       11.6110           0  -1.20700      0.708000    
      3089 HOAC     19       HOAC     DC1      DRUD     -2.69620      0.400000           0   0.00000       0.00000    
      3090 HOAC     19       HOAC     C2       CD33C     3.26820       11.6110           0  -2.11400      0.750000    
      3091 HOAC     19       HOAC     DC2      DRUD     -3.56820      0.400000           0   0.00000       0.00000    
      3092 HOAC     19       HOAC     H1       HDA3A    0.920000E-01   1.00800           0   0.00000       0.00000    
      3093 HOAC     19       HOAC     H2       HDA3A    0.920000E-01   1.00800           0   0.00000       0.00000    
      3094 HOAC     19       HOAC     H3       HDA3A    0.920000E-01   1.00800           0   0.00000       0.00000    
      3095 HOAC     19       HOAC     O1       OD2C3A    2.35650       15.5994           0 -0.922000       1.53900    
      3096 HOAC     19       HOAC     DO1      DRUD     -2.35650      0.400000           0   0.00000       0.00000    
      3097 HOAC     19       HOAC     O2       OD31F     2.77650       15.5990           0  -1.28000       1.12400    
      3098 HOAC     19       HOAC     DO2      DRUD     -2.77650      0.400000           0   0.00000       0.00000    
      3099 HOAC     19       HOAC     HO2      HDP1A    0.374000       1.00800           0   0.00000       0.00000    
      3100 HOAC     19       HOAC     HO1      DUMH      0.00000       1.00800           0   0.00000       0.00000    
      3101 HOAC     19       HOAC     LPO11    LPD     -0.319000       0.00000          -1   0.00000       0.00000    
      3102 HOAC     19       HOAC     LPO12    LPD     -0.319000       0.00000          -1   0.00000       0.00000    
      3103 HOAC     19       HOAC     LPO21    LPD     -0.285000       0.00000          -1   0.00000       0.00000    
      3104 HOAC     19       HOAC     LPO22    LPD     -0.285000       0.00000          -1   0.00000       0.00000    
      3105 HOAC     20       HOAC     C1       CD2O3A    3.55420       11.6110           0  -1.20700      0.708000    
      3106 HOAC     20       HOAC     DC1      DRUD     -2.69620      0.400000           0   0.00000       0.00000    
      3107 HOAC     20       HOAC     C2       CD33C     3.26820       11.6110           0  -2.11400      0.750000    
      3108 HOAC     20       HOAC     DC2      DRUD     -3.56820      0.400000           0   0.00000       0.00000    
      3109 HOAC     20       HOAC     H1       HDA3A    0.920000E-01   1.00800           0   0.00000       0.00000    
      3110 HOAC     20       HOAC     H2       HDA3A    0.920000E-01   1.00800           0   0.00000       0.00000    
      3111 HOAC     20       HOAC     H3       HDA3A    0.920000E-01   1.00800           0   0.00000       0.00000    
      3112 HOAC     20       HOAC     O1       OD2C3A    2.35650       15.5994           0 -0.922000       1.53900    
      3113 HOAC     20       HOAC     DO1      DRUD     -2.35650      0.400000           0   0.00000       0.00000    
      3114 HOAC     20       HOAC     O2       OD31F     2.77650       15.5990           0  -1.28000       1.12400    
      3115 HOAC     20       HOAC     DO2      DRUD     -2.77650      0.400000           0   0.00000       0.00000    
      3116 HOAC     20       HOAC     HO2      HDP1A    0.374000       1.00800           0   0.00000       0.00000    
      3117 HOAC     20       HOAC     HO1      DUMH      0.00000       1.00800           0   0.00000       0.00000    
      3118 HOAC     20       HOAC     LPO11    LPD     -0.319000       0.00000          -1   0.00000       0.00000    
      3119 HOAC     20       HOAC     LPO12    LPD     -0.319000       0.00000          -1   0.00000       0.00000    
      3120 HOAC     20       HOAC     LPO21    LPD     -0.285000       0.00000          -1   0.00000       0.00000    
      3121 HOAC     20       HOAC     LPO22    LPD     -0.285000       0.00000          -1   0.00000       0.00000    
      3122 HOAC     21       HOAC     C1       CD2O3A    3.55420       11.6110           0  -1.20700      0.708000    
      3123 HOAC     21       HOAC     DC1      DRUD     -2.69620      0.400000           0   0.00000       0.00000    
      3124 HOAC     21       HOAC     C2       CD33C     3.26820       11.6110           0  -2.11400      0.750000    
      3125 HOAC     21       HOAC     DC2      DRUD     -3.56820      0.400000           0   0.00000       0.00000    
      3126 HOAC     21       HOAC     H1       HDA3A    0.920000E-01   1.00800           0   0.00000       0.00000    
      3127 HOAC     21       HOAC     H2       HDA3A    0.920000E-01   1.00800           0   0.00000       0.00000    
      3128 HOAC     21       HOAC     H3       HDA3A    0.920000E-01   1.00800           0   0.00000       0.00000    
      3129 HOAC     21       HOAC     O1       OD2C3A    2.35650       15.5994           0 -0.922000       1.53900    
      3130 HOAC     21       HOAC     DO1      DRUD     -2.35650      0.400000           0   0.00000       0.00000    
      3131 HOAC     21       HOAC     O2       OD31F     2.77650       15.5990           0  -1.28000       1.12400    
      3132 HOAC     21       HOAC     DO2      DRUD     -2.77650      0.400000           0   0.00000       0.00000    
      3133 HOAC     21       HOAC     HO2      HDP1A    0.374000       1.00800           0   0.00000       0.00000    
      3134 HOAC     21       HOAC     HO1      DUMH      0.00000       1.00800           0   0.00000       0.00000    
      3135 HOAC     21       HOAC     LPO11    LPD     -0.319000       0.00000          -1   0.00000       0.00000    
      3136 HOAC     21       HOAC     LPO12    LPD     -0.319000       0.00000          -1   0.00000       0.00000    
      3137 HOAC     21       HOAC     LPO21    LPD     -0.285000       0.00000          -1   0.00000       0.00000    
      3138 HOAC     21       HOAC     LPO22    LPD     -0.285000       0.00000          -1   0.00000       0.00000    
      3139 HOAC     22       HOAC     C1       CD2O3A    3.55420       11.6110           0  -1.20700      0.708000    
      3140 HOAC     22       HOAC     DC1      DRUD     -2.69620      0.400000           0   0.00000       0.00000    
      3141 HOAC     22       HOAC     C2       CD33C     3.26820       11.6110           0  -2.11400      0.750000    
      3142 HOAC     22       HOAC     DC2      DRUD     -3.56820      0.400000           0   0.00000       0.00000    
      3143 HOAC     22       HOAC     H1       HDA3A    0.920000E-01   1.00800           0   0.00000       0.00000    
      3144 HOAC     22       HOAC     H2       HDA3A    0.920000E-01   1.00800           0   0.00000       0.00000    
      3145 HOAC     22       HOAC     H3       HDA3A    0.920000E-01   1.00800           0   0.00000       0.00000    
      3146 HOAC     22       HOAC     O1       OD2C3A    2.35650       15.5994           0 -0.922000       1.53900    
      3147 HOAC     22       HOAC     DO1      DRUD     -2.35650      0.400000           0   0.00000       0.00000    
      3148 HOAC     22       HOAC     O2       OD31F     2.77650       15.5990           0  -1.28000       1.12400    
      3149 HOAC     22       HOAC     DO2      DRUD     -2.77650      0.400000           0   0.00000       0.00000    
      3150 HOAC     22       HOAC     HO2      HDP1A    0.374000       1.00800           0   0.00000       0.00000    
      3151 HOAC     22       HOAC     HO1      DUMH      0.00000       1.00800           0   0.00000       0.00000    
      3152 HOAC     22       HOAC     LPO11    LPD     -0.319000       0.00000          -1   0.00000       0.00000    
      3153 HOAC     22       HOAC     LPO12    LPD     -0.319000       0.00000          -1   0.00000       0.00000    
      3154 HOAC     22       HOAC     LPO21    LPD     -0.285000       0.00000          -1   0.00000       0.00000    
      3155 HOAC     22       HOAC     LPO22    LPD     -0.285000       0.00000          -1   0.00000       0.00000    
      3156 HOAC     23       HOAC     C1       CD2O3A    3.55420       11.6110           0  -1.20700      0.708000    
      3157 HOAC     23       HOAC     DC1      DRUD     -2.69620      0.400000           0   0.00000       0.00000    
      3158 HOAC     23       HOAC     C2       CD33C     3.26820       11.6110           0  -2.11400      0.750000    
      3159 HOAC     23       HOAC     DC2      DRUD     -3.56820      0.400000           0   0.00000       0.00000    
      3160 HOAC     23       HOAC     H1       HDA3A    0.920000E-01   1.00800           0   0.00000       0.00000    
      3161 HOAC     23       HOAC     H2       HDA3A    0.920000E-01   1.00800           0   0.00000       0.00000    
      3162 HOAC     23       HOAC     H3       HDA3A    0.920000E-01   1.00800           0   0.00000       0.00000    
      3163 HOAC     23       HOAC     O1       OD2C3A    2.35650       15.5994           0 -0.922000       1.53900    
      3164 HOAC     23       HOAC     DO1      DRUD     -2.35650      0.400000           0   0.00000       0.00000    
      3165 HOAC     23       HOAC     O2       OD31F     2.77650       15.5990           0  -1.28000       1.12400    
      3166 HOAC     23       HOAC     DO2      DRUD     -2.77650      0.400000           0   0.00000       0.00000    
      3167 HOAC     23       HOAC     HO2      HDP1A    0.374000       1.00800           0   0.00000       0.00000    
      3168 HOAC     23       HOAC     HO1      DUMH      0.00000       1.00800           0   0.00000       0.00000    
      3169 HOAC     23       HOAC     LPO11    LPD     -0.319000       0.00000          -1   0.00000       0.00000    
      3170 HOAC     23       HOAC     LPO12    LPD     -0.319000       0.00000          -1   0.00000       0.00000    
      3171 HOAC     23       HOAC     LPO21    LPD     -0.285000       0.00000          -1   0.00000       0.00000    
      3172 HOAC     23       HOAC     LPO22    LPD     -0.285000       0.00000          -1   0.00000       0.00000    
      3173 HOAC     24       HOAC     C1       CD2O3A    3.55420       11.6110           0  -1.20700      0.708000    
      3174 HOAC     24       HOAC     DC1      DRUD     -2.69620      0.400000           0   0.00000       0.00000    
      3175 HOAC     24       HOAC     C2       CD33C     3.26820       11.6110           0  -2.11400      0.750000    
      3176 HOAC     24       HOAC     DC2      DRUD     -3.56820      0.400000           0   0.00000       0.00000    
      3177 HOAC     24       HOAC     H1       HDA3A    0.920000E-01   1.00800           0   0.00000       0.00000    
      3178 HOAC     24       HOAC     H2       HDA3A    0.920000E-01   1.00800           0   0.00000       0.00000    
      3179 HOAC     24       HOAC     H3       HDA3A    0.920000E-01   1.00800           0   0.00000       0.00000    
      3180 HOAC     24       HOAC     O1       OD2C3A    2.35650       15.5994           0 -0.922000       1.53900    
      3181 HOAC     24       HOAC     DO1      DRUD     -2.35650      0.400000           0   0.00000       0.00000    
      3182 HOAC     24       HOAC     O2       OD31F     2.77650       15.5990           0  -1.28000       1.12400    
      3183 HOAC     24       HOAC     DO2      DRUD     -2.77650      0.400000           0   0.00000       0.00000    
      3184 HOAC     24       HOAC     HO2      HDP1A    0.374000       1.00800           0   0.00000       0.00000    
      3185 HOAC     24       HOAC     HO1      DUMH      0.00000       1.00800           0   0.00000       0.00000    
      3186 HOAC     24       HOAC     LPO11    LPD     -0.319000       0.00000          -1   0.00000       0.00000    
      3187 HOAC     24       HOAC     LPO12    LPD     -0.319000       0.00000          -1   0.00000       0.00000    
      3188 HOAC     24       HOAC     LPO21    LPD     -0.285000       0.00000          -1   0.00000       0.00000    
      3189 HOAC     24       HOAC     LPO22    LPD     -0.285000       0.00000          -1   0.00000       0.00000    
      3190 HOAC     25       HOAC     C1       CD2O3A    3.55420       11.6110           0  -1.20700      0.708000    
      3191 HOAC     25       HOAC     DC1      DRUD     -2.69620      0.400000           0   0.00000       0.00000    
      3192 HOAC     25       HOAC     C2       CD33C     3.26820       11.6110           0  -2.11400      0.750000    
      3193 HOAC     25       HOAC     DC2      DRUD     -3.56820      0.400000           0   0.00000       0.00000    
      3194 HOAC     25       HOAC     H1       HDA3A    0.920000E-01   1.00800           0   0.00000       0.00000    
      3195 HOAC     25       HOAC     H2       HDA3A    0.920000E-01   1.00800           0   0.00000       0.00000    
      3196 HOAC     25       HOAC     H3       HDA3A    0.920000E-01   1.00800           0   0.00000       0.00000    
      3197 HOAC     25       HOAC     O1       OD2C3A    2.35650       15.5994           0 -0.922000       1.53900    
      3198 HOAC     25       HOAC     DO1      DRUD     -2.35650      0.400000           0   0.00000       0.00000    
      3199 HOAC     25       HOAC     O2       OD31F     2.77650       15.5990           0  -1.28000       1.12400    
      3200 HOAC     25       HOAC     DO2      DRUD     -2.77650      0.400000           0   0.00000       0.00000    
      3201 HOAC     25       HOAC     HO2      HDP1A    0.374000       1.00800           0   0.00000       0.00000    
      3202 HOAC     25       HOAC     HO1      DUMH      0.00000       1.00800           0   0.00000       0.00000    
      3203 HOAC     25       HOAC     LPO11    LPD     -0.319000       0.00000          -1   0.00000       0.00000    
      3204 HOAC     25       HOAC     LPO12    LPD     -0.319000       0.00000          -1   0.00000       0.00000    
      3205 HOAC     25       HOAC     LPO21    LPD     -0.285000       0.00000          -1   0.00000       0.00000    
      3206 HOAC     25       HOAC     LPO22    LPD     -0.285000       0.00000          -1   0.00000       0.00000    
      3207 HOAC     26       HOAC     C1       CD2O3A    3.55420       11.6110           0  -1.20700      0.708000    
      3208 HOAC     26       HOAC     DC1      DRUD     -2.69620      0.400000           0   0.00000       0.00000    
      3209 HOAC     26       HOAC     C2       CD33C     3.26820       11.6110           0  -2.11400      0.750000    
      3210 HOAC     26       HOAC     DC2      DRUD     -3.56820      0.400000           0   0.00000       0.00000    
      3211 HOAC     26       HOAC     H1       HDA3A    0.920000E-01   1.00800           0   0.00000       0.00000    
      3212 HOAC     26       HOAC     H2       HDA3A    0.920000E-01   1.00800           0   0.00000       0.00000    
      3213 HOAC     26       HOAC     H3       HDA3A    0.920000E-01   1.00800           0   0.00000       0.00000    
      3214 HOAC     26       HOAC     O1       OD2C3A    2.35650       15.5994           0 -0.922000       1.53900    
      3215 HOAC     26       HOAC     DO1      DRUD     -2.35650      0.400000           0   0.00000       0.00000    
      3216 HOAC     26       HOAC     O2       OD31F     2.77650       15.5990           0  -1.28000       1.12400    
      3217 HOAC     26       HOAC     DO2      DRUD     -2.77650      0.400000           0   0.00000       0.00000    
      3218 HOAC     26       HOAC     HO2      HDP1A    0.374000       1.00800           0   0.00000       0.00000    
      3219 HOAC     26       HOAC     HO1      DUMH      0.00000       1.00800           0   0.00000       0.00000    
      3220 HOAC     26       HOAC     LPO11    LPD     -0.319000       0.00000          -1   0.00000       0.00000    
      3221 HOAC     26       HOAC     LPO12    LPD     -0.319000       0.00000          -1   0.00000       0.00000    
      3222 HOAC     26       HOAC     LPO21    LPD     -0.285000       0.00000          -1   0.00000       0.00000    
      3223 HOAC     26       HOAC     LPO22    LPD     -0.285000       0.00000          -1   0.00000       0.00000    
      3224 HOAC     27       HOAC     C1       CD2O3A    3.55420       11.6110           0  -1.20700      0.708000    
      3225 HOAC     27       HOAC     DC1      DRUD     -2.69620      0.400000           0   0.00000       0.00000    
      3226 HOAC     27       HOAC     C2       CD33C     3.26820       11.6110           0  -2.11400      0.750000    
      3227 HOAC     27       HOAC     DC2      DRUD     -3.56820      0.400000           0   0.00000       0.00000    
      3228 HOAC     27       HOAC     H1       HDA3A    0.920000E-01   1.00800           0   0.00000       0.00000    
      3229 HOAC     27       HOAC     H2       HDA3A    0.920000E-01   1.00800           0   0.00000       0.00000    
      3230 HOAC     27       HOAC     H3       HDA3A    0.920000E-01   1.00800           0   0.00000       0.00000    
      3231 HOAC     27       HOAC     O1       OD2C3A    2.35650       15.5994           0 -0.922000       1.53900    
      3232 HOAC     27       HOAC     DO1      DRUD     -2.35650      0.400000           0   0.00000       0.00000    
      3233 HOAC     27       HOAC     O2       OD31F     2.77650       15.5990           0  -1.28000       1.12400    
      3234 HOAC     27       HOAC     DO2      DRUD     -2.77650      0.400000           0   0.00000       0.00000    
      3235 HOAC     27       HOAC     HO2      HDP1A    0.374000       1.00800           0   0.00000       0.00000    
      3236 HOAC     27       HOAC     HO1      DUMH      0.00000       1.00800           0   0.00000       0.00000    
      3237 HOAC     27       HOAC     LPO11    LPD     -0.319000       0.00000          -1   0.00000       0.00000    
      3238 HOAC     27       HOAC     LPO12    LPD     -0.319000       0.00000          -1   0.00000       0.00000    
      3239 HOAC     27       HOAC     LPO21    LPD     -0.285000       0.00000          -1   0.00000       0.00000    
      3240 HOAC     27       HOAC     LPO22    LPD     -0.285000       0.00000          -1   0.00000       0.00000    
      3241 HOAC     28       HOAC     C1       CD2O3A    3.55420       11.6110           0  -1.20700      0.708000    
      3242 HOAC     28       HOAC     DC1      DRUD     -2.69620      0.400000           0   0.00000       0.00000    
      3243 HOAC     28       HOAC     C2       CD33C     3.26820       11.6110           0  -2.11400      0.750000    
      3244 HOAC     28       HOAC     DC2      DRUD     -3.56820      0.400000           0   0.00000       0.00000    
      3245 HOAC     28       HOAC     H1       HDA3A    0.920000E-01   1.00800           0   0.00000       0.00000    
      3246 HOAC     28       HOAC     H2       HDA3A    0.920000E-01   1.00800           0   0.00000       0.00000    
      3247 HOAC     28       HOAC     H3       HDA3A    0.920000E-01   1.00800           0   0.00000       0.00000    
      3248 HOAC     28       HOAC     O1       OD2C3A    2.35650       15.5994           0 -0.922000       1.53900    
      3249 HOAC     28       HOAC     DO1      DRUD     -2.35650      0.400000           0   0.00000       0.00000    
      3250 HOAC     28       HOAC     O2       OD31F     2.77650       15.5990           0  -1.28000       1.12400    
      3251 HOAC     28       HOAC     DO2      DRUD     -2.77650      0.400000           0   0.00000       0.00000    
      3252 HOAC     28       HOAC     HO2      HDP1A    0.374000       1.00800           0   0.00000       0.00000    
      3253 HOAC     28       HOAC     HO1      DUMH      0.00000       1.00800           0   0.00000       0.00000    
      3254 HOAC     28       HOAC     LPO11    LPD     -0.319000       0.00000          -1   0.00000       0.00000    
      3255 HOAC     28       HOAC     LPO12    LPD     -0.319000       0.00000          -1   0.00000       0.00000    
      3256 HOAC     28       HOAC     LPO21    LPD     -0.285000       0.00000          -1   0.00000       0.00000    
      3257 HOAC     28       HOAC     LPO22    LPD     -0.285000       0.00000          -1   0.00000       0.00000    
      3258 HOAC     29       HOAC     C1       CD2O3A    3.55420       11.6110           0  -1.20700      0.708000    
      3259 HOAC     29       HOAC     DC1      DRUD     -2.69620      0.400000           0   0.00000       0.00000    
      3260 HOAC     29       HOAC     C2       CD33C     3.26820       11.6110           0  -2.11400      0.750000    
      3261 HOAC     29       HOAC     DC2      DRUD     -3.56820      0.400000           0   0.00000       0.00000    
      3262 HOAC     29       HOAC     H1       HDA3A    0.920000E-01   1.00800           0   0.00000       0.00000    
      3263 HOAC     29       HOAC     H2       HDA3A    0.920000E-01   1.00800           0   0.00000       0.00000    
      3264 HOAC     29       HOAC     H3       HDA3A    0.920000E-01   1.00800           0   0.00000       0.00000    
      3265 HOAC     29       HOAC     O1       OD2C3A    2.35650       15.5994           0 -0.922000       1.53900    
      3266 HOAC     29       HOAC     DO1      DRUD     -2.35650      0.400000           0   0.00000       0.00000    
      3267 HOAC     29       HOAC     O2       OD31F     2.77650       15.5990           0  -1.28000       1.12400    
      3268 HOAC     29       HOAC     DO2      DRUD     -2.77650      0.400000           0   0.00000       0.00000    
      3269 HOAC     29       HOAC     HO2      HDP1A    0.374000       1.00800           0   0.00000       0.00000    
      3270 HOAC     29       HOAC     HO1      DUMH      0.00000       1.00800           0   0.00000       0.00000    
      3271 HOAC     29       HOAC     LPO11    LPD     -0.319000       0.00000          -1   0.00000       0.00000    
      3272 HOAC     29       HOAC     LPO12    LPD     -0.319000       0.00000          -1   0.00000       0.00000    
      3273 HOAC     29       HOAC     LPO21    LPD     -0.285000       0.00000          -1   0.00000       0.00000    
      3274 HOAC     29       HOAC     LPO22    LPD     -0.285000       0.00000          -1   0.00000       0.00000    
      3275 HOAC     30       HOAC     C1       CD2O3A    3.55420       11.6110           0  -1.20700      0.708000    
      3276 HOAC     30       HOAC     DC1      DRUD     -2.69620      0.400000           0   0.00000       0.00000    
      3277 HOAC     30       HOAC     C2       CD33C     3.26820       11.6110           0  -2.11400      0.750000    
      3278 HOAC     30       HOAC     DC2      DRUD     -3.56820      0.400000           0   0.00000       0.00000    
      3279 HOAC     30       HOAC     H1       HDA3A    0.920000E-01   1.00800           0   0.00000       0.00000    
      3280 HOAC     30       HOAC     H2       HDA3A    0.920000E-01   1.00800           0   0.00000       0.00000    
      3281 HOAC     30       HOAC     H3       HDA3A    0.920000E-01   1.00800           0   0.00000       0.00000    
      3282 HOAC     30       HOAC     O1       OD2C3A    2.35650       15.5994           0 -0.922000       1.53900    
      3283 HOAC     30       HOAC     DO1      DRUD     -2.35650      0.400000           0   0.00000       0.00000    
      3284 HOAC     30       HOAC     O2       OD31F     2.77650       15.5990           0  -1.28000       1.12400    
      3285 HOAC     30       HOAC     DO2      DRUD     -2.77650      0.400000           0   0.00000       0.00000    
      3286 HOAC     30       HOAC     HO2      HDP1A    0.374000       1.00800           0   0.00000       0.00000    
      3287 HOAC     30       HOAC     HO1      DUMH      0.00000       1.00800           0   0.00000       0.00000    
      3288 HOAC     30       HOAC     LPO11    LPD     -0.319000       0.00000          -1   0.00000       0.00000    
      3289 HOAC     30       HOAC     LPO12    LPD     -0.319000       0.00000          -1   0.00000       0.00000    
      3290 HOAC     30       HOAC     LPO21    LPD     -0.285000       0.00000          -1   0.00000       0.00000    
      3291 HOAC     30       HOAC     LPO22    LPD     -0.285000       0.00000          -1   0.00000       0.00000    
      3292 HOAC     31       HOAC     C1       CD2O3A    3.55420       11.6110           0  -1.20700      0.708000    
      3293 HOAC     31       HOAC     DC1      DRUD     -2.69620      0.400000           0   0.00000       0.00000    
      3294 HOAC     31       HOAC     C2       CD33C     3.26820       11.6110           0  -2.11400      0.750000    
      3295 HOAC     31       HOAC     DC2      DRUD     -3.56820      0.400000           0   0.00000       0.00000    
      3296 HOAC     31       HOAC     H1       HDA3A    0.920000E-01   1.00800           0   0.00000       0.00000    
      3297 HOAC     31       HOAC     H2       HDA3A    0.920000E-01   1.00800           0   0.00000       0.00000    
      3298 HOAC     31       HOAC     H3       HDA3A    0.920000E-01   1.00800           0   0.00000       0.00000    
      3299 HOAC     31       HOAC     O1       OD2C3A    2.35650       15.5994           0 -0.922000       1.53900    
      3300 HOAC     31       HOAC     DO1      DRUD     -2.35650      0.400000           0   0.00000       0.00000    
      3301 HOAC     31       HOAC     O2       OD31F     2.77650       15.5990           0  -1.28000       1.12400    
      3302 HOAC     31       HOAC     DO2      DRUD     -2.77650      0.400000           0   0.00000       0.00000    
      3303 HOAC     31       HOAC     HO2      HDP1A    0.374000       1.00800           0   0.00000       0.00000    
      3304 HOAC     31       HOAC     HO1      DUMH      0.00000       1.00800           0   0.00000       0.00000    
      3305 HOAC     31       HOAC     LPO11    LPD     -0.319000       0.00000          -1   0.00000       0.00000    
      3306 HOAC     31       HOAC     LPO12    LPD     -0.319000       0.00000          -1   0.00000       0.00000    
      3307 HOAC     31       HOAC     LPO21    LPD     -0.285000       0.00000          -1   0.00000       0.00000    
      3308 HOAC     31       HOAC     LPO22    LPD     -0.285000       0.00000          -1   0.00000       0.00000    
      3309 HOAC     32       HOAC     C1       CD2O3A    3.55420       11.6110           0  -1.20700      0.708000    
      3310 HOAC     32       HOAC     DC1      DRUD     -2.69620      0.400000           0   0.00000       0.00000    
      3311 HOAC     32       HOAC     C2       CD33C     3.26820       11.6110           0  -2.11400      0.750000    
      3312 HOAC     32       HOAC     DC2      DRUD     -3.56820      0.400000           0   0.00000       0.00000    
      3313 HOAC     32       HOAC     H1       HDA3A    0.920000E-01   1.00800           0   0.00000       0.00000    
      3314 HOAC     32       HOAC     H2       HDA3A    0.920000E-01   1.00800           0   0.00000       0.00000    
      3315 HOAC     32       HOAC     H3       HDA3A    0.920000E-01   1.00800           0   0.00000       0.00000    
      3316 HOAC     32       HOAC     O1       OD2C3A    2.35650       15.5994           0 -0.922000       1.53900    
      3317 HOAC     32       HOAC     DO1      DRUD     -2.35650      0.400000           0   0.00000       0.00000    
      3318 HOAC     32       HOAC     O2       OD31F     2.77650       15.5990           0  -1.28000       1.12400    
      3319 HOAC     32       HOAC     DO2      DRUD     -2.77650      0.400000           0   0.00000       0.00000    
      3320 HOAC     32       HOAC     HO2      HDP1A    0.374000       1.00800           0   0.00000       0.00000    
      3321 HOAC     32       HOAC     HO1      DUMH      0.00000       1.00800           0   0.00000       0.00000    
      3322 HOAC     32       HOAC     LPO11    LPD     -0.319000       0.00000          -1   0.00000       0.00000    
      3323 HOAC     32       HOAC     LPO12    LPD     -0.319000       0.00000          -1   0.00000       0.00000    
      3324 HOAC     32       HOAC     LPO21    LPD     -0.285000       0.00000          -1   0.00000       0.00000    
      3325 HOAC     32       HOAC     LPO22    LPD     -0.285000       0.00000          -1   0.00000       0.00000    
      3326 HOAC     33       HOAC     C1       CD2O3A    3.55420       11.6110           0  -1.20700      0.708000    
      3327 HOAC     33       HOAC     DC1      DRUD     -2.69620      0.400000           0   0.00000       0.00000    
      3328 HOAC     33       HOAC     C2       CD33C     3.26820       11.6110           0  -2.11400      0.750000    
      3329 HOAC     33       HOAC     DC2      DRUD     -3.56820      0.400000           0   0.00000       0.00000    
      3330 HOAC     33       HOAC     H1       HDA3A    0.920000E-01   1.00800           0   0.00000       0.00000    
      3331 HOAC     33       HOAC     H2       HDA3A    0.920000E-01   1.00800           0   0.00000       0.00000    
      3332 HOAC     33       HOAC     H3       HDA3A    0.920000E-01   1.00800           0   0.00000       0.00000    
      3333 HOAC     33       HOAC     O1       OD2C3A    2.35650       15.5994           0 -0.922000       1.53900    
      3334 HOAC     33       HOAC     DO1      DRUD     -2.35650      0.400000           0   0.00000       0.00000    
      3335 HOAC     33       HOAC     O2       OD31F     2.77650       15.5990           0  -1.28000       1.12400    
      3336 HOAC     33       HOAC     DO2      DRUD     -2.77650      0.400000           0   0.00000       0.00000    
      3337 HOAC     33       HOAC     HO2      HDP1A    0.374000       1.00800           0   0.00000       0.00000    
      3338 HOAC     33       HOAC     HO1      DUMH      0.00000       1.00800           0   0.00000       0.00000    
      3339 HOAC     33       HOAC     LPO11    LPD     -0.319000       0.00000          -1   0.00000       0.00000    
      3340 HOAC     33       HOAC     LPO12    LPD     -0.319000       0.00000          -1   0.00000       0.00000    
      3341 HOAC     33       HOAC     LPO21    LPD     -0.285000       0.00000          -1   0.00000       0.00000    
      3342 HOAC     33       HOAC     LPO22    LPD     -0.285000       0.00000          -1   0.00000       0.00000    
      3343 HOAC     34       HOAC     C1       CD2O3A    3.55420       11.6110           0  -1.20700      0.708000    
      3344 HOAC     34       HOAC     DC1      DRUD     -2.69620      0.400000           0   0.00000       0.00000    
      3345 HOAC     34       HOAC     C2       CD33C     3.26820       11.6110           0  -2.11400      0.750000    
      3346 HOAC     34       HOAC     DC2      DRUD     -3.56820      0.400000           0   0.00000       0.00000    
      3347 HOAC     34       HOAC     H1       HDA3A    0.920000E-01   1.00800           0   0.00000       0.00000    
      3348 HOAC     34       HOAC     H2       HDA3A    0.920000E-01   1.00800           0   0.00000       0.00000    
      3349 HOAC     34       HOAC     H3       HDA3A    0.920000E-01   1.00800           0   0.00000       0.00000    
      3350 HOAC     34       HOAC     O1       OD2C3A    2.35650       15.5994           0 -0.922000       1.53900    
      3351 HOAC     34       HOAC     DO1      DRUD     -2.35650      0.400000           0   0.00000       0.00000    
      3352 HOAC     34       HOAC     O2       OD31F     2.77650       15.5990           0  -1.28000       1.12400    
      3353 HOAC     34       HOAC     DO2      DRUD     -2.77650      0.400000           0   0.00000       0.00000    
      3354 HOAC     34       HOAC     HO2      HDP1A    0.374000       1.00800           0   0.00000       0.00000    
      3355 HOAC     34       HOAC     HO1      DUMH      0.00000       1.00800           0   0.00000       0.00000    
      3356 HOAC     34       HOAC     LPO11    LPD     -0.319000       0.00000          -1   0.00000       0.00000    
      3357 HOAC     34       HOAC     LPO12    LPD     -0.319000       0.00000          -1   0.00000       0.00000    
      3358 HOAC     34       HOAC     LPO21    LPD     -0.285000       0.00000          -1   0.00000       0.00000    
      3359 HOAC     34       HOAC     LPO22    LPD     -0.285000       0.00000          -1   0.00000       0.00000    
      3360 HOAC     35       HOAC     C1       CD2O3A    3.55420       11.6110           0  -1.20700      0.708000    
      3361 HOAC     35       HOAC     DC1      DRUD     -2.69620      0.400000           0   0.00000       0.00000    
      3362 HOAC     35       HOAC     C2       CD33C     3.26820       11.6110           0  -2.11400      0.750000    
      3363 HOAC     35       HOAC     DC2      DRUD     -3.56820      0.400000           0   0.00000       0.00000    
      3364 HOAC     35       HOAC     H1       HDA3A    0.920000E-01   1.00800           0   0.00000       0.00000    
      3365 HOAC     35       HOAC     H2       HDA3A    0.920000E-01   1.00800           0   0.00000       0.00000    
      3366 HOAC     35       HOAC     H3       HDA3A    0.920000E-01   1.00800           0   0.00000       0.00000    
      3367 HOAC     35       HOAC     O1       OD2C3A    2.35650       15.5994           0 -0.922000       1.53900    
      3368 HOAC     35       HOAC     DO1      DRUD     -2.35650      0.400000           0   0.00000       0.00000    
      3369 HOAC     35       HOAC     O2       OD31F     2.77650       15.5990           0  -1.28000       1.12400    
      3370 HOAC     35       HOAC     DO2      DRUD     -2.77650      0.400000           0   0.00000       0.00000    
      3371 HOAC     35       HOAC     HO2      HDP1A    0.374000       1.00800           0   0.00000       0.00000    
      3372 HOAC     35       HOAC     HO1      DUMH      0.00000       1.00800           0   0.00000       0.00000    
      3373 HOAC     35       HOAC     LPO11    LPD     -0.319000       0.00000          -1   0.00000       0.00000    
      3374 HOAC     35       HOAC     LPO12    LPD     -0.319000       0.00000          -1   0.00000       0.00000    
      3375 HOAC     35       HOAC     LPO21    LPD     -0.285000       0.00000          -1   0.00000       0.00000    
      3376 HOAC     35       HOAC     LPO22    LPD     -0.285000       0.00000          -1   0.00000       0.00000    
      3377 HOAC     36       HOAC     C1       CD2O3A    3.55420       11.6110           0  -1.20700      0.708000    
      3378 HOAC     36       HOAC     DC1      DRUD     -2.69620      0.400000           0   0.00000       0.00000    
      3379 HOAC     36       HOAC     C2       CD33C     3.26820       11.6110           0  -2.11400      0.750000    
      3380 HOAC     36       HOAC     DC2      DRUD     -3.56820      0.400000           0   0.00000       0.00000    
      3381 HOAC     36       HOAC     H1       HDA3A    0.920000E-01   1.00800           0   0.00000       0.00000    
      3382 HOAC     36       HOAC     H2       HDA3A    0.920000E-01   1.00800           0   0.00000       0.00000    
      3383 HOAC     36       HOAC     H3       HDA3A    0.920000E-01   1.00800           0   0.00000       0.00000    
      3384 HOAC     36       HOAC     O1       OD2C3A    2.35650       15.5994           0 -0.922000       1.53900    
      3385 HOAC     36       HOAC     DO1      DRUD     -2.35650      0.400000           0   0.00000       0.00000    
      3386 HOAC     36       HOAC     O2       OD31F     2.77650       15.5990           0  -1.28000       1.12400    
      3387 HOAC     36       HOAC     DO2      DRUD     -2.77650      0.400000           0   0.00000       0.00000    
      3388 HOAC     36       HOAC     HO2      HDP1A    0.374000       1.00800           0   0.00000       0.00000    
      3389 HOAC     36       HOAC     HO1      DUMH      0.00000       1.00800           0   0.00000       0.00000    
      3390 HOAC     36       HOAC     LPO11    LPD     -0.319000       0.00000          -1   0.00000       0.00000    
      3391 HOAC     36       HOAC     LPO12    LPD     -0.319000       0.00000          -1   0.00000       0.00000    
      3392 HOAC     36       HOAC     LPO21    LPD     -0.285000       0.00000          -1   0.00000       0.00000    
      3393 HOAC     36       HOAC     LPO22    LPD     -0.285000       0.00000          -1   0.00000       0.00000    
      3394 HOAC     37       HOAC     C1       CD2O3A    3.55420       11.6110           0  -1.20700      0.708000    
      3395 HOAC     37       HOAC     DC1      DRUD     -2.69620      0.400000           0   0.00000       0.00000    
      3396 HOAC     37       HOAC     C2       CD33C     3.26820       11.6110           0  -2.11400      0.750000    
      3397 HOAC     37       HOAC     DC2      DRUD     -3.56820      0.400000           0   0.00000       0.00000    
      3398 HOAC     37       HOAC     H1       HDA3A    0.920000E-01   1.00800           0   0.00000       0.00000    
      3399 HOAC     37       HOAC     H2       HDA3A    0.920000E-01   1.00800           0   0.00000       0.00000    
      3400 HOAC     37       HOAC     H3       HDA3A    0.920000E-01   1.00800           0   0.00000       0.00000    
      3401 HOAC     37       HOAC     O1       OD2C3A    2.35650       15.5994           0 -0.922000       1.53900    
      3402 HOAC     37       HOAC     DO1      DRUD     -2.35650      0.400000           0   0.00000       0.00000    
      3403 HOAC     37       HOAC     O2       OD31F     2.77650       15.5990           0  -1.28000       1.12400    
      3404 HOAC     37       HOAC     DO2      DRUD     -2.77650      0.400000           0   0.00000       0.00000    
      3405 HOAC     37       HOAC     HO2      HDP1A    0.374000       1.00800           0   0.00000       0.00000    
      3406 HOAC     37       HOAC     HO1      DUMH      0.00000       1.00800           0   0.00000       0.00000    
      3407 HOAC     37       HOAC     LPO11    LPD     -0.319000       0.00000          -1   0.00000       0.00000    
      3408 HOAC     37       HOAC     LPO12    LPD     -0.319000       0.00000          -1   0.00000       0.00000    
      3409 HOAC     37       HOAC     LPO21    LPD     -0.285000       0.00000          -1   0.00000       0.00000    
      3410 HOAC     37       HOAC     LPO22    LPD     -0.285000       0.00000          -1   0.00000       0.00000    
      3411 HOAC     38       HOAC     C1       CD2O3A    3.55420       11.6110           0  -1.20700      0.708000    
      3412 HOAC     38       HOAC     DC1      DRUD     -2.69620      0.400000           0   0.00000       0.00000    
      3413 HOAC     38       HOAC     C2       CD33C     3.26820       11.6110           0  -2.11400      0.750000    
      3414 HOAC     38       HOAC     DC2      DRUD     -3.56820      0.400000           0   0.00000       0.00000    
      3415 HOAC     38       HOAC     H1       HDA3A    0.920000E-01   1.00800           0   0.00000       0.00000    
      3416 HOAC     38       HOAC     H2       HDA3A    0.920000E-01   1.00800           0   0.00000       0.00000    
      3417 HOAC     38       HOAC     H3       HDA3A    0.920000E-01   1.00800           0   0.00000       0.00000    
      3418 HOAC     38       HOAC     O1       OD2C3A    2.35650       15.5994           0 -0.922000       1.53900    
      3419 HOAC     38       HOAC     DO1      DRUD     -2.35650      0.400000           0   0.00000       0.00000    
      3420 HOAC     38       HOAC     O2       OD31F     2.77650       15.5990           0  -1.28000       1.12400    
      3421 HOAC     38       HOAC     DO2      DRUD     -2.77650      0.400000           0   0.00000       0.00000    
      3422 HOAC     38       HOAC     HO2      HDP1A    0.374000       1.00800           0   0.00000       0.00000    
      3423 HOAC     38       HOAC     HO1      DUMH      0.00000       1.00800           0   0.00000       0.00000    
      3424 HOAC     38       HOAC     LPO11    LPD     -0.319000       0.00000          -1   0.00000       0.00000    
      3425 HOAC     38       HOAC     LPO12    LPD     -0.319000       0.00000          -1   0.00000       0.00000    
      3426 HOAC     38       HOAC     LPO21    LPD     -0.285000       0.00000          -1   0.00000       0.00000    
      3427 HOAC     38       HOAC     LPO22    LPD     -0.285000       0.00000          -1   0.00000       0.00000    
      3428 HOAC     39       HOAC     C1       CD2O3A    3.55420       11.6110           0  -1.20700      0.708000    
      3429 HOAC     39       HOAC     DC1      DRUD     -2.69620      0.400000           0   0.00000       0.00000    
      3430 HOAC     39       HOAC     C2       CD33C     3.26820       11.6110           0  -2.11400      0.750000    
      3431 HOAC     39       HOAC     DC2      DRUD     -3.56820      0.400000           0   0.00000       0.00000    
      3432 HOAC     39       HOAC     H1       HDA3A    0.920000E-01   1.00800           0   0.00000       0.00000    
      3433 HOAC     39       HOAC     H2       HDA3A    0.920000E-01   1.00800           0   0.00000       0.00000    
      3434 HOAC     39       HOAC     H3       HDA3A    0.920000E-01   1.00800           0   0.00000       0.00000    
      3435 HOAC     39       HOAC     O1       OD2C3A    2.35650       15.5994           0 -0.922000       1.53900    
      3436 HOAC     39       HOAC     DO1      DRUD     -2.35650      0.400000           0   0.00000       0.00000    
      3437 HOAC     39       HOAC     O2       OD31F     2.77650       15.5990           0  -1.28000       1.12400    
      3438 HOAC     39       HOAC     DO2      DRUD     -2.77650      0.400000           0   0.00000       0.00000    
      3439 HOAC     39       HOAC     HO2      HDP1A    0.374000       1.00800           0   0.00000       0.00000    
      3440 HOAC     39       HOAC     HO1      DUMH      0.00000       1.00800           0   0.00000       0.00000    
      3441 HOAC     39       HOAC     LPO11    LPD     -0.319000       0.00000          -1   0.00000       0.00000    
      3442 HOAC     39       HOAC     LPO12    LPD     -0.319000       0.00000          -1   0.00000       0.00000    
      3443 HOAC     39       HOAC     LPO21    LPD     -0.285000       0.00000          -1   0.00000       0.00000    
      3444 HOAC     39       HOAC     LPO22    LPD     -0.285000       0.00000          -1   0.00000       0.00000    
      3445 HOAC     40       HOAC     C1       CD2O3A    3.55420       11.6110           0  -1.20700      0.708000    
      3446 HOAC     40       HOAC     DC1      DRUD     -2.69620      0.400000           0   0.00000       0.00000    
      3447 HOAC     40       HOAC     C2       CD33C     3.26820       11.6110           0  -2.11400      0.750000    
      3448 HOAC     40       HOAC     DC2      DRUD     -3.56820      0.400000           0   0.00000       0.00000    
      3449 HOAC     40       HOAC     H1       HDA3A    0.920000E-01   1.00800           0   0.00000       0.00000    
      3450 HOAC     40       HOAC     H2       HDA3A    0.920000E-01   1.00800           0   0.00000       0.00000    
      3451 HOAC     40       HOAC     H3       HDA3A    0.920000E-01   1.00800           0   0.00000       0.00000    
      3452 HOAC     40       HOAC     O1       OD2C3A    2.35650       15.5994           0 -0.922000       1.53900    
      3453 HOAC     40       HOAC     DO1      DRUD     -2.35650      0.400000           0   0.00000       0.00000    
      3454 HOAC     40       HOAC     O2       OD31F     2.77650       15.5990           0  -1.28000       1.12400    
      3455 HOAC     40       HOAC     DO2      DRUD     -2.77650      0.400000           0   0.00000       0.00000    
      3456 HOAC     40       HOAC     HO2      HDP1A    0.374000       1.00800           0   0.00000       0.00000    
      3457 HOAC     40       HOAC     HO1      DUMH      0.00000       1.00800           0   0.00000       0.00000    
      3458 HOAC     40       HOAC     LPO11    LPD     -0.319000       0.00000          -1   0.00000       0.00000    
      3459 HOAC     40       HOAC     LPO12    LPD     -0.319000       0.00000          -1   0.00000       0.00000    
      3460 HOAC     40       HOAC     LPO21    LPD     -0.285000       0.00000          -1   0.00000       0.00000    
      3461 HOAC     40       HOAC     LPO22    LPD     -0.285000       0.00000          -1   0.00000       0.00000    
      3462 HOAC     41       HOAC     C1       CD2O3A    3.55420       11.6110           0  -1.20700      0.708000    
      3463 HOAC     41       HOAC     DC1      DRUD     -2.69620      0.400000           0   0.00000       0.00000    
      3464 HOAC     41       HOAC     C2       CD33C     3.26820       11.6110           0  -2.11400      0.750000    
      3465 HOAC     41       HOAC     DC2      DRUD     -3.56820      0.400000           0   0.00000       0.00000    
      3466 HOAC     41       HOAC     H1       HDA3A    0.920000E-01   1.00800           0   0.00000       0.00000    
      3467 HOAC     41       HOAC     H2       HDA3A    0.920000E-01   1.00800           0   0.00000       0.00000    
      3468 HOAC     41       HOAC     H3       HDA3A    0.920000E-01   1.00800           0   0.00000       0.00000    
      3469 HOAC     41       HOAC     O1       OD2C3A    2.35650       15.5994           0 -0.922000       1.53900    
      3470 HOAC     41       HOAC     DO1      DRUD     -2.35650      0.400000           0   0.00000       0.00000    
      3471 HOAC     41       HOAC     O2       OD31F     2.77650       15.5990           0  -1.28000       1.12400    
      3472 HOAC     41       HOAC     DO2      DRUD     -2.77650      0.400000           0   0.00000       0.00000    
      3473 HOAC     41       HOAC     HO2      HDP1A    0.374000       1.00800           0   0.00000       0.00000    
      3474 HOAC     41       HOAC     HO1      DUMH      0.00000       1.00800           0   0.00000       0.00000    
      3475 HOAC     41       HOAC     LPO11    LPD     -0.319000       0.00000          -1   0.00000       0.00000    
      3476 HOAC     41       HOAC     LPO12    LPD     -0.319000       0.00000          -1   0.00000       0.00000    
      3477 HOAC     41       HOAC     LPO21    LPD     -0.285000       0.00000          -1   0.00000       0.00000    
      3478 HOAC     41       HOAC     LPO22    LPD     -0.285000       0.00000          -1   0.00000       0.00000    
      3479 HOAC     42       HOAC     C1       CD2O3A    3.55420       11.6110           0  -1.20700      0.708000    
      3480 HOAC     42       HOAC     DC1      DRUD     -2.69620      0.400000           0   0.00000       0.00000    
      3481 HOAC     42       HOAC     C2       CD33C     3.26820       11.6110           0  -2.11400      0.750000    
      3482 HOAC     42       HOAC     DC2      DRUD     -3.56820      0.400000           0   0.00000       0.00000    
      3483 HOAC     42       HOAC     H1       HDA3A    0.920000E-01   1.00800           0   0.00000       0.00000    
      3484 HOAC     42       HOAC     H2       HDA3A    0.920000E-01   1.00800           0   0.00000       0.00000    
      3485 HOAC     42       HOAC     H3       HDA3A    0.920000E-01   1.00800           0   0.00000       0.00000    
      3486 HOAC     42       HOAC     O1       OD2C3A    2.35650       15.5994           0 -0.922000       1.53900    
      3487 HOAC     42       HOAC     DO1      DRUD     -2.35650      0.400000           0   0.00000       0.00000    
      3488 HOAC     42       HOAC     O2       OD31F     2.77650       15.5990           0  -1.28000       1.12400    
      3489 HOAC     42       HOAC     DO2      DRUD     -2.77650      0.400000           0   0.00000       0.00000    
      3490 HOAC     42       HOAC     HO2      HDP1A    0.374000       1.00800           0   0.00000       0.00000    
      3491 HOAC     42       HOAC     HO1      DUMH      0.00000       1.00800           0   0.00000       0.00000    
      3492 HOAC     42       HOAC     LPO11    LPD     -0.319000       0.00000          -1   0.00000       0.00000    
      3493 HOAC     42       HOAC     LPO12    LPD     -0.319000       0.00000          -1   0.00000       0.00000    
      3494 HOAC     42       HOAC     LPO21    LPD     -0.285000       0.00000          -1   0.00000       0.00000    
      3495 HOAC     42       HOAC     LPO22    LPD     -0.285000       0.00000          -1   0.00000       0.00000    
      3496 HOAC     43       HOAC     C1       CD2O3A    3.55420       11.6110           0  -1.20700      0.708000    
      3497 HOAC     43       HOAC     DC1      DRUD     -2.69620      0.400000           0   0.00000       0.00000    
      3498 HOAC     43       HOAC     C2       CD33C     3.26820       11.6110           0  -2.11400      0.750000    
      3499 HOAC     43       HOAC     DC2      DRUD     -3.56820      0.400000           0   0.00000       0.00000    
      3500 HOAC     43       HOAC     H1       HDA3A    0.920000E-01   1.00800           0   0.00000       0.00000    
      3501 HOAC     43       HOAC     H2       HDA3A    0.920000E-01   1.00800           0   0.00000       0.00000    
      3502 HOAC     43       HOAC     H3       HDA3A    0.920000E-01   1.00800           0   0.00000       0.00000    
      3503 HOAC     43       HOAC     O1       OD2C3A    2.35650       15.5994           0 -0.922000       1.53900    
      3504 HOAC     43       HOAC     DO1      DRUD     -2.35650      0.400000           0   0.00000       0.00000    
      3505 HOAC     43       HOAC     O2       OD31F     2.77650       15.5990           0  -1.28000       1.12400    
      3506 HOAC     43       HOAC     DO2      DRUD     -2.77650      0.400000           0   0.00000       0.00000    
      3507 HOAC     43       HOAC     HO2      HDP1A    0.374000       1.00800           0   0.00000       0.00000    
      3508 HOAC     43       HOAC     HO1      DUMH      0.00000       1.00800           0   0.00000       0.00000    
      3509 HOAC     43       HOAC     LPO11    LPD     -0.319000       0.00000          -1   0.00000       0.00000    
      3510 HOAC     43       HOAC     LPO12    LPD     -0.319000       0.00000          -1   0.00000       0.00000    
      3511 HOAC     43       HOAC     LPO21    LPD     -0.285000       0.00000          -1   0.00000       0.00000    
      3512 HOAC     43       HOAC     LPO22    LPD     -0.285000       0.00000          -1   0.00000       0.00000    
      3513 HOAC     44       HOAC     C1       CD2O3A    3.55420       11.6110           0  -1.20700      0.708000    
      3514 HOAC     44       HOAC     DC1      DRUD     -2.69620      0.400000           0   0.00000       0.00000    
      3515 HOAC     44       HOAC     C2       CD33C     3.26820       11.6110           0  -2.11400      0.750000    
      3516 HOAC     44       HOAC     DC2      DRUD     -3.56820      0.400000           0   0.00000       0.00000    
      3517 HOAC     44       HOAC     H1       HDA3A    0.920000E-01   1.00800           0   0.00000       0.00000    
      3518 HOAC     44       HOAC     H2       HDA3A    0.920000E-01   1.00800           0   0.00000       0.00000    
      3519 HOAC     44       HOAC     H3       HDA3A    0.920000E-01   1.00800           0   0.00000       0.00000    
      3520 HOAC     44       HOAC     O1       OD2C3A    2.35650       15.5994           0 -0.922000       1.53900    
      3521 HOAC     44       HOAC     DO1      DRUD     -2.35650      0.400000           0   0.00000       0.00000    
      3522 HOAC     44       HOAC     O2       OD31F     2.77650       15.5990           0  -1.28000       1.12400    
      3523 HOAC     44       HOAC     DO2      DRUD     -2.77650      0.400000           0   0.00000       0.00000    
      3524 HOAC     44       HOAC     HO2      HDP1A    0.374000       1.00800           0   0.00000       0.00000    
      3525 HOAC     44       HOAC     HO1      DUMH      0.00000       1.00800           0   0.00000       0.00000    
      3526 HOAC     44       HOAC     LPO11    LPD     -0.319000       0.00000          -1   0.00000       0.00000    
      3527 HOAC     44       HOAC     LPO12    LPD     -0.319000       0.00000          -1   0.00000       0.00000    
      3528 HOAC     44       HOAC     LPO21    LPD     -0.285000       0.00000          -1   0.00000       0.00000    
      3529 HOAC     44       HOAC     LPO22    LPD     -0.285000       0.00000          -1   0.00000       0.00000    
      3530 HOAC     45       HOAC     C1       CD2O3A    3.55420       11.6110           0  -1.20700      0.708000    
      3531 HOAC     45       HOAC     DC1      DRUD     -2.69620      0.400000           0   0.00000       0.00000    
      3532 HOAC     45       HOAC     C2       CD33C     3.26820       11.6110           0  -2.11400      0.750000    
      3533 HOAC     45       HOAC     DC2      DRUD     -3.56820      0.400000           0   0.00000       0.00000    
      3534 HOAC     45       HOAC     H1       HDA3A    0.920000E-01   1.00800           0   0.00000       0.00000    
      3535 HOAC     45       HOAC     H2       HDA3A    0.920000E-01   1.00800           0   0.00000       0.00000    
      3536 HOAC     45       HOAC     H3       HDA3A    0.920000E-01   1.00800           0   0.00000       0.00000    
      3537 HOAC     45       HOAC     O1       OD2C3A    2.35650       15.5994           0 -0.922000       1.53900    
      3538 HOAC     45       HOAC     DO1      DRUD     -2.35650      0.400000           0   0.00000       0.00000    
      3539 HOAC     45       HOAC     O2       OD31F     2.77650       15.5990           0  -1.28000       1.12400    
      3540 HOAC     45       HOAC     DO2      DRUD     -2.77650      0.400000           0   0.00000       0.00000    
      3541 HOAC     45       HOAC     HO2      HDP1A    0.374000       1.00800           0   0.00000       0.00000    
      3542 HOAC     45       HOAC     HO1      DUMH      0.00000       1.00800           0   0.00000       0.00000    
      3543 HOAC     45       HOAC     LPO11    LPD     -0.319000       0.00000          -1   0.00000       0.00000    
      3544 HOAC     45       HOAC     LPO12    LPD     -0.319000       0.00000          -1   0.00000       0.00000    
      3545 HOAC     45       HOAC     LPO21    LPD     -0.285000       0.00000          -1   0.00000       0.00000    
      3546 HOAC     45       HOAC     LPO22    LPD     -0.285000       0.00000          -1   0.00000       0.00000    
      3547 HOAC     46       HOAC     C1       CD2O3A    3.55420       11.6110           0  -1.20700      0.708000    
      3548 HOAC     46       HOAC     DC1      DRUD     -2.69620      0.400000           0   0.00000       0.00000    
      3549 HOAC     46       HOAC     C2       CD33C     3.26820       11.6110           0  -2.11400      0.750000    
      3550 HOAC     46       HOAC     DC2      DRUD     -3.56820      0.400000           0   0.00000       0.00000    
      3551 HOAC     46       HOAC     H1       HDA3A    0.920000E-01   1.00800           0   0.00000       0.00000    
      3552 HOAC     46       HOAC     H2       HDA3A    0.920000E-01   1.00800           0   0.00000       0.00000    
      3553 HOAC     46       HOAC     H3       HDA3A    0.920000E-01   1.00800           0   0.00000       0.00000    
      3554 HOAC     46       HOAC     O1       OD2C3A    2.35650       15.5994           0 -0.922000       1.53900    
      3555 HOAC     46       HOAC     DO1      DRUD     -2.35650      0.400000           0   0.00000       0.00000    
      3556 HOAC     46       HOAC     O2       OD31F     2.77650       15.5990           0  -1.28000       1.12400    
      3557 HOAC     46       HOAC     DO2      DRUD     -2.77650      0.400000           0   0.00000       0.00000    
      3558 HOAC     46       HOAC     HO2      HDP1A    0.374000       1.00800           0   0.00000       0.00000    
      3559 HOAC     46       HOAC     HO1      DUMH      0.00000       1.00800           0   0.00000       0.00000    
      3560 HOAC     46       HOAC     LPO11    LPD     -0.319000       0.00000          -1   0.00000       0.00000    
      3561 HOAC     46       HOAC     LPO12    LPD     -0.319000       0.00000          -1   0.00000       0.00000    
      3562 HOAC     46       HOAC     LPO21    LPD     -0.285000       0.00000          -1   0.00000       0.00000    
      3563 HOAC     46       HOAC     LPO22    LPD     -0.285000       0.00000          -1   0.00000       0.00000    
      3564 HOAC     47       HOAC     C1       CD2O3A    3.55420       11.6110           0  -1.20700      0.708000    
      3565 HOAC     47       HOAC     DC1      DRUD     -2.69620      0.400000           0   0.00000       0.00000    
      3566 HOAC     47       HOAC     C2       CD33C     3.26820       11.6110           0  -2.11400      0.750000    
      3567 HOAC     47       HOAC     DC2      DRUD     -3.56820      0.400000           0   0.00000       0.00000    
      3568 HOAC     47       HOAC     H1       HDA3A    0.920000E-01   1.00800           0   0.00000       0.00000    
      3569 HOAC     47       HOAC     H2       HDA3A    0.920000E-01   1.00800           0   0.00000       0.00000    
      3570 HOAC     47       HOAC     H3       HDA3A    0.920000E-01   1.00800           0   0.00000       0.00000    
      3571 HOAC     47       HOAC     O1       OD2C3A    2.35650       15.5994           0 -0.922000       1.53900    
      3572 HOAC     47       HOAC     DO1      DRUD     -2.35650      0.400000           0   0.00000       0.00000    
      3573 HOAC     47       HOAC     O2       OD31F     2.77650       15.5990           0  -1.28000       1.12400    
      3574 HOAC     47       HOAC     DO2      DRUD     -2.77650      0.400000           0   0.00000       0.00000    
      3575 HOAC     47       HOAC     HO2      HDP1A    0.374000       1.00800           0   0.00000       0.00000    
      3576 HOAC     47       HOAC     HO1      DUMH      0.00000       1.00800           0   0.00000       0.00000    
      3577 HOAC     47       HOAC     LPO11    LPD     -0.319000       0.00000          -1   0.00000       0.00000    
      3578 HOAC     47       HOAC     LPO12    LPD     -0.319000       0.00000          -1   0.00000       0.00000    
      3579 HOAC     47       HOAC     LPO21    LPD     -0.285000       0.00000          -1   0.00000       0.00000    
      3580 HOAC     47       HOAC     LPO22    LPD     -0.285000       0.00000          -1   0.00000       0.00000    
      3581 HOAC     48       HOAC     C1       CD2O3A    3.55420       11.6110           0  -1.20700      0.708000    
      3582 HOAC     48       HOAC     DC1      DRUD     -2.69620      0.400000           0   0.00000       0.00000    
      3583 HOAC     48       HOAC     C2       CD33C     3.26820       11.6110           0  -2.11400      0.750000    
      3584 HOAC     48       HOAC     DC2      DRUD     -3.56820      0.400000           0   0.00000       0.00000    
      3585 HOAC     48       HOAC     H1       HDA3A    0.920000E-01   1.00800           0   0.00000       0.00000    
      3586 HOAC     48       HOAC     H2       HDA3A    0.920000E-01   1.00800           0   0.00000       0.00000    
      3587 HOAC     48       HOAC     H3       HDA3A    0.920000E-01   1.00800           0   0.00000       0.00000    
      3588 HOAC     48       HOAC     O1       OD2C3A    2.35650       15.5994           0 -0.922000       1.53900    
      3589 HOAC     48       HOAC     DO1      DRUD     -2.35650      0.400000           0   0.00000       0.00000    
      3590 HOAC     48       HOAC     O2       OD31F     2.77650       15.5990           0  -1.28000       1.12400    
      3591 HOAC     48       HOAC     DO2      DRUD     -2.77650      0.400000           0   0.00000       0.00000    
      3592 HOAC     48       HOAC     HO2      HDP1A    0.374000       1.00800           0   0.00000       0.00000    
      3593 HOAC     48       HOAC     HO1      DUMH      0.00000       1.00800           0   0.00000       0.00000    
      3594 HOAC     48       HOAC     LPO11    LPD     -0.319000       0.00000          -1   0.00000       0.00000    
      3595 HOAC     48       HOAC     LPO12    LPD     -0.319000       0.00000          -1   0.00000       0.00000    
      3596 HOAC     48       HOAC     LPO21    LPD     -0.285000       0.00000          -1   0.00000       0.00000    
      3597 HOAC     48       HOAC     LPO22    LPD     -0.285000       0.00000          -1   0.00000       0.00000    
      3598 HOAC     49       HOAC     C1       CD2O3A    3.55420       11.6110           0  -1.20700      0.708000    
      3599 HOAC     49       HOAC     DC1      DRUD     -2.69620      0.400000           0   0.00000       0.00000    
      3600 HOAC     49       HOAC     C2       CD33C     3.26820       11.6110           0  -2.11400      0.750000    
      3601 HOAC     49       HOAC     DC2      DRUD     -3.56820      0.400000           0   0.00000       0.00000    
      3602 HOAC     49       HOAC     H1       HDA3A    0.920000E-01   1.00800           0   0.00000       0.00000    
      3603 HOAC     49       HOAC     H2       HDA3A    0.920000E-01   1.00800           0   0.00000       0.00000    
      3604 HOAC     49       HOAC     H3       HDA3A    0.920000E-01   1.00800           0   0.00000       0.00000    
      3605 HOAC     49       HOAC     O1       OD2C3A    2.35650       15.5994           0 -0.922000       1.53900    
      3606 HOAC     49       HOAC     DO1      DRUD     -2.35650      0.400000           0   0.00000       0.00000    
      3607 HOAC     49       HOAC     O2       OD31F     2.77650       15.5990           0  -1.28000       1.12400    
      3608 HOAC     49       HOAC     DO2      DRUD     -2.77650      0.400000           0   0.00000       0.00000    
      3609 HOAC     49       HOAC     HO2      HDP1A    0.374000       1.00800           0   0.00000       0.00000    
      3610 HOAC     49       HOAC     HO1      DUMH      0.00000       1.00800           0   0.00000       0.00000    
      3611 HOAC     49       HOAC     LPO11    LPD     -0.319000       0.00000          -1   0.00000       0.00000    
      3612 HOAC     49       HOAC     LPO12    LPD     -0.319000       0.00000          -1   0.00000       0.00000    
      3613 HOAC     49       HOAC     LPO21    LPD     -0.285000       0.00000          -1   0.00000       0.00000    
      3614 HOAC     49       HOAC     LPO22    LPD     -0.285000       0.00000          -1   0.00000       0.00000    
      3615 HOAC     50       HOAC     C1       CD2O3A    3.55420       11.6110           0  -1.20700      0.708000    
      3616 HOAC     50       HOAC     DC1      DRUD     -2.69620      0.400000           0   0.00000       0.00000    
      3617 HOAC     50       HOAC     C2       CD33C     3.26820       11.6110           0  -2.11400      0.750000    
      3618 HOAC     50       HOAC     DC2      DRUD     -3.56820      0.400000           0   0.00000       0.00000    
      3619 HOAC     50       HOAC     H1       HDA3A    0.920000E-01   1.00800           0   0.00000       0.00000    
      3620 HOAC     50       HOAC     H2       HDA3A    0.920000E-01   1.00800           0   0.00000       0.00000    
      3621 HOAC     50       HOAC     H3       HDA3A    0.920000E-01   1.00800           0   0.00000       0.00000    
      3622 HOAC     50       HOAC     O1       OD2C3A    2.35650       15.5994           0 -0.922000       1.53900    
      3623 HOAC     50       HOAC     DO1      DRUD     -2.35650      0.400000           0   0.00000       0.00000    
      3624 HOAC     50       HOAC     O2       OD31F     2.77650       15.5990           0  -1.28000       1.12400    
      3625 HOAC     50       HOAC     DO2      DRUD     -2.77650      0.400000           0   0.00000       0.00000    
      3626 HOAC     50       HOAC     HO2      HDP1A    0.374000       1.00800           0   0.00000       0.00000    
      3627 HOAC     50       HOAC     HO1      DUMH      0.00000       1.00800           0   0.00000       0.00000    
      3628 HOAC     50       HOAC     LPO11    LPD     -0.319000       0.00000          -1   0.00000       0.00000    
      3629 HOAC     50       HOAC     LPO12    LPD     -0.319000       0.00000          -1   0.00000       0.00000    
      3630 HOAC     50       HOAC     LPO21    LPD     -0.285000       0.00000          -1   0.00000       0.00000    
      3631 HOAC     50       HOAC     LPO22    LPD     -0.285000       0.00000          -1   0.00000       0.00000    
      3632 HOAC     51       HOAC     C1       CD2O3A    3.55420       11.6110           0  -1.20700      0.708000    
      3633 HOAC     51       HOAC     DC1      DRUD     -2.69620      0.400000           0   0.00000       0.00000    
      3634 HOAC     51       HOAC     C2       CD33C     3.26820       11.6110           0  -2.11400      0.750000    
      3635 HOAC     51       HOAC     DC2      DRUD     -3.56820      0.400000           0   0.00000       0.00000    
      3636 HOAC     51       HOAC     H1       HDA3A    0.920000E-01   1.00800           0   0.00000       0.00000    
      3637 HOAC     51       HOAC     H2       HDA3A    0.920000E-01   1.00800           0   0.00000       0.00000    
      3638 HOAC     51       HOAC     H3       HDA3A    0.920000E-01   1.00800           0   0.00000       0.00000    
      3639 HOAC     51       HOAC     O1       OD2C3A    2.35650       15.5994           0 -0.922000       1.53900    
      3640 HOAC     51       HOAC     DO1      DRUD     -2.35650      0.400000           0   0.00000       0.00000    
      3641 HOAC     51       HOAC     O2       OD31F     2.77650       15.5990           0  -1.28000       1.12400    
      3642 HOAC     51       HOAC     DO2      DRUD     -2.77650      0.400000           0   0.00000       0.00000    
      3643 HOAC     51       HOAC     HO2      HDP1A    0.374000       1.00800           0   0.00000       0.00000    
      3644 HOAC     51       HOAC     HO1      DUMH      0.00000       1.00800           0   0.00000       0.00000    
      3645 HOAC     51       HOAC     LPO11    LPD     -0.319000       0.00000          -1   0.00000       0.00000    
      3646 HOAC     51       HOAC     LPO12    LPD     -0.319000       0.00000          -1   0.00000       0.00000    
      3647 HOAC     51       HOAC     LPO21    LPD     -0.285000       0.00000          -1   0.00000       0.00000    
      3648 HOAC     51       HOAC     LPO22    LPD     -0.285000       0.00000          -1   0.00000       0.00000    
      3649 HOAC     52       HOAC     C1       CD2O3A    3.55420       11.6110           0  -1.20700      0.708000    
      3650 HOAC     52       HOAC     DC1      DRUD     -2.69620      0.400000           0   0.00000       0.00000    
      3651 HOAC     52       HOAC     C2       CD33C     3.26820       11.6110           0  -2.11400      0.750000    
      3652 HOAC     52       HOAC     DC2      DRUD     -3.56820      0.400000           0   0.00000       0.00000    
      3653 HOAC     52       HOAC     H1       HDA3A    0.920000E-01   1.00800           0   0.00000       0.00000    
      3654 HOAC     52       HOAC     H2       HDA3A    0.920000E-01   1.00800           0   0.00000       0.00000    
      3655 HOAC     52       HOAC     H3       HDA3A    0.920000E-01   1.00800           0   0.00000       0.00000    
      3656 HOAC     52       HOAC     O1       OD2C3A    2.35650       15.5994           0 -0.922000       1.53900    
      3657 HOAC     52       HOAC     DO1      DRUD     -2.35650      0.400000           0   0.00000       0.00000    
      3658 HOAC     52       HOAC     O2       OD31F     2.77650       15.5990           0  -1.28000       1.12400    
      3659 HOAC     52       HOAC     DO2      DRUD     -2.77650      0.400000           0   0.00000       0.00000    
      3660 HOAC     52       HOAC     HO2      HDP1A    0.374000       1.00800           0   0.00000       0.00000    
      3661 HOAC     52       HOAC     HO1      DUMH      0.00000       1.00800           0   0.00000       0.00000    
      3662 HOAC     52       HOAC     LPO11    LPD     -0.319000       0.00000          -1   0.00000       0.00000    
      3663 HOAC     52       HOAC     LPO12    LPD     -0.319000       0.00000          -1   0.00000       0.00000    
      3664 HOAC     52       HOAC     LPO21    LPD     -0.285000       0.00000          -1   0.00000       0.00000    
      3665 HOAC     52       HOAC     LPO22    LPD     -0.285000       0.00000          -1   0.00000       0.00000    
      3666 HOAC     53       HOAC     C1       CD2O3A    3.55420       11.6110           0  -1.20700      0.708000    
      3667 HOAC     53       HOAC     DC1      DRUD     -2.69620      0.400000           0   0.00000       0.00000    
      3668 HOAC     53       HOAC     C2       CD33C     3.26820       11.6110           0  -2.11400      0.750000    
      3669 HOAC     53       HOAC     DC2      DRUD     -3.56820      0.400000           0   0.00000       0.00000    
      3670 HOAC     53       HOAC     H1       HDA3A    0.920000E-01   1.00800           0   0.00000       0.00000    
      3671 HOAC     53       HOAC     H2       HDA3A    0.920000E-01   1.00800           0   0.00000       0.00000    
      3672 HOAC     53       HOAC     H3       HDA3A    0.920000E-01   1.00800           0   0.00000       0.00000    
      3673 HOAC     53       HOAC     O1       OD2C3A    2.35650       15.5994           0 -0.922000       1.53900    
      3674 HOAC     53       HOAC     DO1      DRUD     -2.35650      0.400000           0   0.00000       0.00000    
      3675 HOAC     53       HOAC     O2       OD31F     2.77650       15.5990           0  -1.28000       1.12400    
      3676 HOAC     53       HOAC     DO2      DRUD     -2.77650      0.400000           0   0.00000       0.00000    
      3677 HOAC     53       HOAC     HO2      HDP1A    0.374000       1.00800           0   0.00000       0.00000    
      3678 HOAC     53       HOAC     HO1      DUMH      0.00000       1.00800           0   0.00000       0.00000    
      3679 HOAC     53       HOAC     LPO11    LPD     -0.319000       0.00000          -1   0.00000       0.00000    
      3680 HOAC     53       HOAC     LPO12    LPD     -0.319000       0.00000          -1   0.00000       0.00000    
      3681 HOAC     53       HOAC     LPO21    LPD     -0.285000       0.00000          -1   0.00000       0.00000    
      3682 HOAC     53       HOAC     LPO22    LPD     -0.285000       0.00000          -1   0.00000       0.00000    
      3683 HOAC     54       HOAC     C1       CD2O3A    3.55420       11.6110           0  -1.20700      0.708000    
      3684 HOAC     54       HOAC     DC1      DRUD     -2.69620      0.400000           0   0.00000       0.00000    
      3685 HOAC     54       HOAC     C2       CD33C     3.26820       11.6110           0  -2.11400      0.750000    
      3686 HOAC     54       HOAC     DC2      DRUD     -3.56820      0.400000           0   0.00000       0.00000    
      3687 HOAC     54       HOAC     H1       HDA3A    0.920000E-01   1.00800           0   0.00000       0.00000    
      3688 HOAC     54       HOAC     H2       HDA3A    0.920000E-01   1.00800           0   0.00000       0.00000    
      3689 HOAC     54       HOAC     H3       HDA3A    0.920000E-01   1.00800           0   0.00000       0.00000    
      3690 HOAC     54       HOAC     O1       OD2C3A    2.35650       15.5994           0 -0.922000       1.53900    
      3691 HOAC     54       HOAC     DO1      DRUD     -2.35650      0.400000           0   0.00000       0.00000    
      3692 HOAC     54       HOAC     O2       OD31F     2.77650       15.5990           0  -1.28000       1.12400    
      3693 HOAC     54       HOAC     DO2      DRUD     -2.77650      0.400000           0   0.00000       0.00000    
      3694 HOAC     54       HOAC     HO2      HDP1A    0.374000       1.00800           0   0.00000       0.00000    
      3695 HOAC     54       HOAC     HO1      DUMH      0.00000       1.00800           0   0.00000       0.00000    
      3696 HOAC     54       HOAC     LPO11    LPD     -0.319000       0.00000          -1   0.00000       0.00000    
      3697 HOAC     54       HOAC     LPO12    LPD     -0.319000       0.00000          -1   0.00000       0.00000    
      3698 HOAC     54       HOAC     LPO21    LPD     -0.285000       0.00000          -1   0.00000       0.00000    
      3699 HOAC     54       HOAC     LPO22    LPD     -0.285000       0.00000          -1   0.00000       0.00000    
      3700 HOAC     55       HOAC     C1       CD2O3A    3.55420       11.6110           0  -1.20700      0.708000    
      3701 HOAC     55       HOAC     DC1      DRUD     -2.69620      0.400000           0   0.00000       0.00000    
      3702 HOAC     55       HOAC     C2       CD33C     3.26820       11.6110           0  -2.11400      0.750000    
      3703 HOAC     55       HOAC     DC2      DRUD     -3.56820      0.400000           0   0.00000       0.00000    
      3704 HOAC     55       HOAC     H1       HDA3A    0.920000E-01   1.00800           0   0.00000       0.00000    
      3705 HOAC     55       HOAC     H2       HDA3A    0.920000E-01   1.00800           0   0.00000       0.00000    
      3706 HOAC     55       HOAC     H3       HDA3A    0.920000E-01   1.00800           0   0.00000       0.00000    
      3707 HOAC     55       HOAC     O1       OD2C3A    2.35650       15.5994           0 -0.922000       1.53900    
      3708 HOAC     55       HOAC     DO1      DRUD     -2.35650      0.400000           0   0.00000       0.00000    
      3709 HOAC     55       HOAC     O2       OD31F     2.77650       15.5990           0  -1.28000       1.12400    
      3710 HOAC     55       HOAC     DO2      DRUD     -2.77650      0.400000           0   0.00000       0.00000    
      3711 HOAC     55       HOAC     HO2      HDP1A    0.374000       1.00800           0   0.00000       0.00000    
      3712 HOAC     55       HOAC     HO1      DUMH      0.00000       1.00800           0   0.00000       0.00000    
      3713 HOAC     55       HOAC     LPO11    LPD     -0.319000       0.00000          -1   0.00000       0.00000    
      3714 HOAC     55       HOAC     LPO12    LPD     -0.319000       0.00000          -1   0.00000       0.00000    
      3715 HOAC     55       HOAC     LPO21    LPD     -0.285000       0.00000          -1   0.00000       0.00000    
      3716 HOAC     55       HOAC     LPO22    LPD     -0.285000       0.00000          -1   0.00000       0.00000    
      3717 HOAC     56       HOAC     C1       CD2O3A    3.55420       11.6110           0  -1.20700      0.708000    
      3718 HOAC     56       HOAC     DC1      DRUD     -2.69620      0.400000           0   0.00000       0.00000    
      3719 HOAC     56       HOAC     C2       CD33C     3.26820       11.6110           0  -2.11400      0.750000    
      3720 HOAC     56       HOAC     DC2      DRUD     -3.56820      0.400000           0   0.00000       0.00000    
      3721 HOAC     56       HOAC     H1       HDA3A    0.920000E-01   1.00800           0   0.00000       0.00000    
      3722 HOAC     56       HOAC     H2       HDA3A    0.920000E-01   1.00800           0   0.00000       0.00000    
      3723 HOAC     56       HOAC     H3       HDA3A    0.920000E-01   1.00800           0   0.00000       0.00000    
      3724 HOAC     56       HOAC     O1       OD2C3A    2.35650       15.5994           0 -0.922000       1.53900    
      3725 HOAC     56       HOAC     DO1      DRUD     -2.35650      0.400000           0   0.00000       0.00000    
      3726 HOAC     56       HOAC     O2       OD31F     2.77650       15.5990           0  -1.28000       1.12400    
      3727 HOAC     56       HOAC     DO2      DRUD     -2.77650      0.400000           0   0.00000       0.00000    
      3728 HOAC     56       HOAC     HO2      HDP1A    0.374000       1.00800           0   0.00000       0.00000    
      3729 HOAC     56       HOAC     HO1      DUMH      0.00000       1.00800           0   0.00000       0.00000    
      3730 HOAC     56       HOAC     LPO11    LPD     -0.319000       0.00000          -1   0.00000       0.00000    
      3731 HOAC     56       HOAC     LPO12    LPD     -0.319000       0.00000          -1   0.00000       0.00000    
      3732 HOAC     56       HOAC     LPO21    LPD     -0.285000       0.00000          -1   0.00000       0.00000    
      3733 HOAC     56       HOAC     LPO22    LPD     -0.285000       0.00000          -1   0.00000       0.00000    
      3734 HOAC     57       HOAC     C1       CD2O3A    3.55420       11.6110           0  -1.20700      0.708000    
      3735 HOAC     57       HOAC     DC1      DRUD     -2.69620      0.400000           0   0.00000       0.00000    
      3736 HOAC     57       HOAC     C2       CD33C     3.26820       11.6110           0  -2.11400      0.750000    
      3737 HOAC     57       HOAC     DC2      DRUD     -3.56820      0.400000           0   0.00000       0.00000    
      3738 HOAC     57       HOAC     H1       HDA3A    0.920000E-01   1.00800           0   0.00000       0.00000    
      3739 HOAC     57       HOAC     H2       HDA3A    0.920000E-01   1.00800           0   0.00000       0.00000    
      3740 HOAC     57       HOAC     H3       HDA3A    0.920000E-01   1.00800           0   0.00000       0.00000    
      3741 HOAC     57       HOAC     O1       OD2C3A    2.35650       15.5994           0 -0.922000       1.53900    
      3742 HOAC     57       HOAC     DO1      DRUD     -2.35650      0.400000           0   0.00000       0.00000    
      3743 HOAC     57       HOAC     O2       OD31F     2.77650       15.5990           0  -1.28000       1.12400    
      3744 HOAC     57       HOAC     DO2      DRUD     -2.77650      0.400000           0   0.00000       0.00000    
      3745 HOAC     57       HOAC     HO2      HDP1A    0.374000       1.00800           0   0.00000       0.00000    
      3746 HOAC     57       HOAC     HO1      DUMH      0.00000       1.00800           0   0.00000       0.00000    
      3747 HOAC     57       HOAC     LPO11    LPD     -0.319000       0.00000          -1   0.00000       0.00000    
      3748 HOAC     57       HOAC     LPO12    LPD     -0.319000       0.00000          -1   0.00000       0.00000    
      3749 HOAC     57       HOAC     LPO21    LPD     -0.285000       0.00000          -1   0.00000       0.00000    
      3750 HOAC     57       HOAC     LPO22    LPD     -0.285000       0.00000          -1   0.00000       0.00000    
      3751 HOAC     58       HOAC     C1       CD2O3A    3.55420       11.6110           0  -1.20700      0.708000    
      3752 HOAC     58       HOAC     DC1      DRUD     -2.69620      0.400000           0   0.00000       0.00000    
      3753 HOAC     58       HOAC     C2       CD33C     3.26820       11.6110           0  -2.11400      0.750000    
      3754 HOAC     58       HOAC     DC2      DRUD     -3.56820      0.400000           0   0.00000       0.00000    
      3755 HOAC     58       HOAC     H1       HDA3A    0.920000E-01   1.00800           0   0.00000       0.00000    
      3756 HOAC     58       HOAC     H2       HDA3A    0.920000E-01   1.00800           0   0.00000       0.00000    
      3757 HOAC     58       HOAC     H3       HDA3A    0.920000E-01   1.00800           0   0.00000       0.00000    
      3758 HOAC     58       HOAC     O1       OD2C3A    2.35650       15.5994           0 -0.922000       1.53900    
      3759 HOAC     58       HOAC     DO1      DRUD     -2.35650      0.400000           0   0.00000       0.00000    
      3760 HOAC     58       HOAC     O2       OD31F     2.77650       15.5990           0  -1.28000       1.12400    
      3761 HOAC     58       HOAC     DO2      DRUD     -2.77650      0.400000           0   0.00000       0.00000    
      3762 HOAC     58       HOAC     HO2      HDP1A    0.374000       1.00800           0   0.00000       0.00000    
      3763 HOAC     58       HOAC     HO1      DUMH      0.00000       1.00800           0   0.00000       0.00000    
      3764 HOAC     58       HOAC     LPO11    LPD     -0.319000       0.00000          -1   0.00000       0.00000    
      3765 HOAC     58       HOAC     LPO12    LPD     -0.319000       0.00000          -1   0.00000       0.00000    
      3766 HOAC     58       HOAC     LPO21    LPD     -0.285000       0.00000          -1   0.00000       0.00000    
      3767 HOAC     58       HOAC     LPO22    LPD     -0.285000       0.00000          -1   0.00000       0.00000    
      3768 HOAC     59       HOAC     C1       CD2O3A    3.55420       11.6110           0  -1.20700      0.708000    
      3769 HOAC     59       HOAC     DC1      DRUD     -2.69620      0.400000           0   0.00000       0.00000    
      3770 HOAC     59       HOAC     C2       CD33C     3.26820       11.6110           0  -2.11400      0.750000    
      3771 HOAC     59       HOAC     DC2      DRUD     -3.56820      0.400000           0   0.00000       0.00000    
      3772 HOAC     59       HOAC     H1       HDA3A    0.920000E-01   1.00800           0   0.00000       0.00000    
      3773 HOAC     59       HOAC     H2       HDA3A    0.920000E-01   1.00800           0   0.00000       0.00000    
      3774 HOAC     59       HOAC     H3       HDA3A    0.920000E-01   1.00800           0   0.00000       0.00000    
      3775 HOAC     59       HOAC     O1       OD2C3A    2.35650       15.5994           0 -0.922000       1.53900    
      3776 HOAC     59       HOAC     DO1      DRUD     -2.35650      0.400000           0   0.00000       0.00000    
      3777 HOAC     59       HOAC     O2       OD31F     2.77650       15.5990           0  -1.28000       1.12400    
      3778 HOAC     59       HOAC     DO2      DRUD     -2.77650      0.400000           0   0.00000       0.00000    
      3779 HOAC     59       HOAC     HO2      HDP1A    0.374000       1.00800           0   0.00000       0.00000    
      3780 HOAC     59       HOAC     HO1      DUMH      0.00000       1.00800           0   0.00000       0.00000    
      3781 HOAC     59       HOAC     LPO11    LPD     -0.319000       0.00000          -1   0.00000       0.00000    
      3782 HOAC     59       HOAC     LPO12    LPD     -0.319000       0.00000          -1   0.00000       0.00000    
      3783 HOAC     59       HOAC     LPO21    LPD     -0.285000       0.00000          -1   0.00000       0.00000    
      3784 HOAC     59       HOAC     LPO22    LPD     -0.285000       0.00000          -1   0.00000       0.00000    
      3785 HOAC     60       HOAC     C1       CD2O3A    3.55420       11.6110           0  -1.20700      0.708000    
      3786 HOAC     60       HOAC     DC1      DRUD     -2.69620      0.400000           0   0.00000       0.00000    
      3787 HOAC     60       HOAC     C2       CD33C     3.26820       11.6110           0  -2.11400      0.750000    
      3788 HOAC     60       HOAC     DC2      DRUD     -3.56820      0.400000           0   0.00000       0.00000    
      3789 HOAC     60       HOAC     H1       HDA3A    0.920000E-01   1.00800           0   0.00000       0.00000    
      3790 HOAC     60       HOAC     H2       HDA3A    0.920000E-01   1.00800           0   0.00000       0.00000    
      3791 HOAC     60       HOAC     H3       HDA3A    0.920000E-01   1.00800           0   0.00000       0.00000    
      3792 HOAC     60       HOAC     O1       OD2C3A    2.35650       15.5994           0 -0.922000       1.53900    
      3793 HOAC     60       HOAC     DO1      DRUD     -2.35650      0.400000           0   0.00000       0.00000    
      3794 HOAC     60       HOAC     O2       OD31F     2.77650       15.5990           0  -1.28000       1.12400    
      3795 HOAC     60       HOAC     DO2      DRUD     -2.77650      0.400000           0   0.00000       0.00000    
      3796 HOAC     60       HOAC     HO2      HDP1A    0.374000       1.00800           0   0.00000       0.00000    
      3797 HOAC     60       HOAC     HO1      DUMH      0.00000       1.00800           0   0.00000       0.00000    
      3798 HOAC     60       HOAC     LPO11    LPD     -0.319000       0.00000          -1   0.00000       0.00000    
      3799 HOAC     60       HOAC     LPO12    LPD     -0.319000       0.00000          -1   0.00000       0.00000    
      3800 HOAC     60       HOAC     LPO21    LPD     -0.285000       0.00000          -1   0.00000       0.00000    
      3801 HOAC     60       HOAC     LPO22    LPD     -0.285000       0.00000          -1   0.00000       0.00000    
      3802 HOAC     61       HOAC     C1       CD2O3A    3.55420       11.6110           0  -1.20700      0.708000    
      3803 HOAC     61       HOAC     DC1      DRUD     -2.69620      0.400000           0   0.00000       0.00000    
      3804 HOAC     61       HOAC     C2       CD33C     3.26820       11.6110           0  -2.11400      0.750000    
      3805 HOAC     61       HOAC     DC2      DRUD     -3.56820      0.400000           0   0.00000       0.00000    
      3806 HOAC     61       HOAC     H1       HDA3A    0.920000E-01   1.00800           0   0.00000       0.00000    
      3807 HOAC     61       HOAC     H2       HDA3A    0.920000E-01   1.00800           0   0.00000       0.00000    
      3808 HOAC     61       HOAC     H3       HDA3A    0.920000E-01   1.00800           0   0.00000       0.00000    
      3809 HOAC     61       HOAC     O1       OD2C3A    2.35650       15.5994           0 -0.922000       1.53900    
      3810 HOAC     61       HOAC     DO1      DRUD     -2.35650      0.400000           0   0.00000       0.00000    
      3811 HOAC     61       HOAC     O2       OD31F     2.77650       15.5990           0  -1.28000       1.12400    
      3812 HOAC     61       HOAC     DO2      DRUD     -2.77650      0.400000           0   0.00000       0.00000    
      3813 HOAC     61       HOAC     HO2      HDP1A    0.374000       1.00800           0   0.00000       0.00000    
      3814 HOAC     61       HOAC     HO1      DUMH      0.00000       1.00800           0   0.00000       0.00000    
      3815 HOAC     61       HOAC     LPO11    LPD     -0.319000       0.00000          -1   0.00000       0.00000    
      3816 HOAC     61       HOAC     LPO12    LPD     -0.319000       0.00000          -1   0.00000       0.00000    
      3817 HOAC     61       HOAC     LPO21    LPD     -0.285000       0.00000          -1   0.00000       0.00000    
      3818 HOAC     61       HOAC     LPO22    LPD     -0.285000       0.00000          -1   0.00000       0.00000    
      3819 HOAC     62       HOAC     C1       CD2O3A    3.55420       11.6110           0  -1.20700      0.708000    
      3820 HOAC     62       HOAC     DC1      DRUD     -2.69620      0.400000           0   0.00000       0.00000    
      3821 HOAC     62       HOAC     C2       CD33C     3.26820       11.6110           0  -2.11400      0.750000    
      3822 HOAC     62       HOAC     DC2      DRUD     -3.56820      0.400000           0   0.00000       0.00000    
      3823 HOAC     62       HOAC     H1       HDA3A    0.920000E-01   1.00800           0   0.00000       0.00000    
      3824 HOAC     62       HOAC     H2       HDA3A    0.920000E-01   1.00800           0   0.00000       0.00000    
      3825 HOAC     62       HOAC     H3       HDA3A    0.920000E-01   1.00800           0   0.00000       0.00000    
      3826 HOAC     62       HOAC     O1       OD2C3A    2.35650       15.5994           0 -0.922000       1.53900    
      3827 HOAC     62       HOAC     DO1      DRUD     -2.35650      0.400000           0   0.00000       0.00000    
      3828 HOAC     62       HOAC     O2       OD31F     2.77650       15.5990           0  -1.28000       1.12400    
      3829 HOAC     62       HOAC     DO2      DRUD     -2.77650      0.400000           0   0.00000       0.00000    
      3830 HOAC     62       HOAC     HO2      HDP1A    0.374000       1.00800           0   0.00000       0.00000    
      3831 HOAC     62       HOAC     HO1      DUMH      0.00000       1.00800           0   0.00000       0.00000    
      3832 HOAC     62       HOAC     LPO11    LPD     -0.319000       0.00000          -1   0.00000       0.00000    
      3833 HOAC     62       HOAC     LPO12    LPD     -0.319000       0.00000          -1   0.00000       0.00000    
      3834 HOAC     62       HOAC     LPO21    LPD     -0.285000       0.00000          -1   0.00000       0.00000    
      3835 HOAC     62       HOAC     LPO22    LPD     -0.285000       0.00000          -1   0.00000       0.00000    
      3836 HOAC     63       HOAC     C1       CD2O3A    3.55420       11.6110           0  -1.20700      0.708000    
      3837 HOAC     63       HOAC     DC1      DRUD     -2.69620      0.400000           0   0.00000       0.00000    
      3838 HOAC     63       HOAC     C2       CD33C     3.26820       11.6110           0  -2.11400      0.750000    
      3839 HOAC     63       HOAC     DC2      DRUD     -3.56820      0.400000           0   0.00000       0.00000    
      3840 HOAC     63       HOAC     H1       HDA3A    0.920000E-01   1.00800           0   0.00000       0.00000    
      3841 HOAC     63       HOAC     H2       HDA3A    0.920000E-01   1.00800           0   0.00000       0.00000    
      3842 HOAC     63       HOAC     H3       HDA3A    0.920000E-01   1.00800           0   0.00000       0.00000    
      3843 HOAC     63       HOAC     O1       OD2C3A    2.35650       15.5994           0 -0.922000       1.53900    
      3844 HOAC     63       HOAC     DO1      DRUD     -2.35650      0.400000           0   0.00000       0.00000    
      3845 HOAC     63       HOAC     O2       OD31F     2.77650       15.5990           0  -1.28000       1.12400    
      3846 HOAC     63       HOAC     DO2      DRUD     -2.77650      0.400000           0   0.00000       0.00000    
      3847 HOAC     63       HOAC     HO2      HDP1A    0.374000       1.00800           0   0.00000       0.00000    
      3848 HOAC     63       HOAC     HO1      DUMH      0.00000       1.00800           0   0.00000       0.00000    
      3849 HOAC     63       HOAC     LPO11    LPD     -0.319000       0.00000          -1   0.00000       0.00000    
      3850 HOAC     63       HOAC     LPO12    LPD     -0.319000       0.00000          -1   0.00000       0.00000    
      3851 HOAC     63       HOAC     LPO21    LPD     -0.285000       0.00000          -1   0.00000       0.00000    
      3852 HOAC     63       HOAC     LPO22    LPD     -0.285000       0.00000          -1   0.00000       0.00000    
      3853 HOAC     64       HOAC     C1       CD2O3A    3.55420       11.6110           0  -1.20700      0.708000    
      3854 HOAC     64       HOAC     DC1      DRUD     -2.69620      0.400000           0   0.00000       0.00000    
      3855 HOAC     64       HOAC     C2       CD33C     3.26820       11.6110           0  -2.11400      0.750000    
      3856 HOAC     64       HOAC     DC2      DRUD     -3.56820      0.400000           0   0.00000       0.00000    
      3857 HOAC     64       HOAC     H1       HDA3A    0.920000E-01   1.00800           0   0.00000       0.00000    
      3858 HOAC     64       HOAC     H2       HDA3A    0.920000E-01   1.00800           0   0.00000       0.00000    
      3859 HOAC     64       HOAC     H3       HDA3A    0.920000E-01   1.00800           0   0.00000       0.00000    
      3860 HOAC     64       HOAC     O1       OD2C3A    2.35650       15.5994           0 -0.922000       1.53900    
      3861 HOAC     64       HOAC     DO1      DRUD     -2.35650      0.400000           0   0.00000       0.00000    
      3862 HOAC     64       HOAC     O2       OD31F     2.77650       15.5990           0  -1.28000       1.12400    
      3863 HOAC     64       HOAC     DO2      DRUD     -2.77650      0.400000           0   0.00000       0.00000    
      3864 HOAC     64       HOAC     HO2      HDP1A    0.374000       1.00800           0   0.00000       0.00000    
      3865 HOAC     64       HOAC     HO1      DUMH      0.00000       1.00800           0   0.00000       0.00000    
      3866 HOAC     64       HOAC     LPO11    LPD     -0.319000       0.00000          -1   0.00000       0.00000    
      3867 HOAC     64       HOAC     LPO12    LPD     -0.319000       0.00000          -1   0.00000       0.00000    
      3868 HOAC     64       HOAC     LPO21    LPD     -0.285000       0.00000          -1   0.00000       0.00000    
      3869 HOAC     64       HOAC     LPO22    LPD     -0.285000       0.00000          -1   0.00000       0.00000    
      3870 HOAC     65       HOAC     C1       CD2O3A    3.55420       11.6110           0  -1.20700      0.708000    
      3871 HOAC     65       HOAC     DC1      DRUD     -2.69620      0.400000           0   0.00000       0.00000    
      3872 HOAC     65       HOAC     C2       CD33C     3.26820       11.6110           0  -2.11400      0.750000    
      3873 HOAC     65       HOAC     DC2      DRUD     -3.56820      0.400000           0   0.00000       0.00000    
      3874 HOAC     65       HOAC     H1       HDA3A    0.920000E-01   1.00800           0   0.00000       0.00000    
      3875 HOAC     65       HOAC     H2       HDA3A    0.920000E-01   1.00800           0   0.00000       0.00000    
      3876 HOAC     65       HOAC     H3       HDA3A    0.920000E-01   1.00800           0   0.00000       0.00000    
      3877 HOAC     65       HOAC     O1       OD2C3A    2.35650       15.5994           0 -0.922000       1.53900    
      3878 HOAC     65       HOAC     DO1      DRUD     -2.35650      0.400000           0   0.00000       0.00000    
      3879 HOAC     65       HOAC     O2       OD31F     2.77650       15.5990           0  -1.28000       1.12400    
      3880 HOAC     65       HOAC     DO2      DRUD     -2.77650      0.400000           0   0.00000       0.00000    
      3881 HOAC     65       HOAC     HO2      HDP1A    0.374000       1.00800           0   0.00000       0.00000    
      3882 HOAC     65       HOAC     HO1      DUMH      0.00000       1.00800           0   0.00000       0.00000    
      3883 HOAC     65       HOAC     LPO11    LPD     -0.319000       0.00000          -1   0.00000       0.00000    
      3884 HOAC     65       HOAC     LPO12    LPD     -0.319000       0.00000          -1   0.00000       0.00000    
      3885 HOAC     65       HOAC     LPO21    LPD     -0.285000       0.00000          -1   0.00000       0.00000    
      3886 HOAC     65       HOAC     LPO22    LPD     -0.285000       0.00000          -1   0.00000       0.00000    
      3887 HOAC     66       HOAC     C1       CD2O3A    3.55420       11.6110           0  -1.20700      0.708000    
      3888 HOAC     66       HOAC     DC1      DRUD     -2.69620      0.400000           0   0.00000       0.00000    
      3889 HOAC     66       HOAC     C2       CD33C     3.26820       11.6110           0  -2.11400      0.750000    
      3890 HOAC     66       HOAC     DC2      DRUD     -3.56820      0.400000           0   0.00000       0.00000    
      3891 HOAC     66       HOAC     H1       HDA3A    0.920000E-01   1.00800           0   0.00000       0.00000    
      3892 HOAC     66       HOAC     H2       HDA3A    0.920000E-01   1.00800           0   0.00000       0.00000    
      3893 HOAC     66       HOAC     H3       HDA3A    0.920000E-01   1.00800           0   0.00000       0.00000    
      3894 HOAC     66       HOAC     O1       OD2C3A    2.35650       15.5994           0 -0.922000       1.53900    
      3895 HOAC     66       HOAC     DO1      DRUD     -2.35650      0.400000           0   0.00000       0.00000    
      3896 HOAC     66       HOAC     O2       OD31F     2.77650       15.5990           0  -1.28000       1.12400    
      3897 HOAC     66       HOAC     DO2      DRUD     -2.77650      0.400000           0   0.00000       0.00000    
      3898 HOAC     66       HOAC     HO2      HDP1A    0.374000       1.00800           0   0.00000       0.00000    
      3899 HOAC     66       HOAC     HO1      DUMH      0.00000       1.00800           0   0.00000       0.00000    
      3900 HOAC     66       HOAC     LPO11    LPD     -0.319000       0.00000          -1   0.00000       0.00000    
      3901 HOAC     66       HOAC     LPO12    LPD     -0.319000       0.00000          -1   0.00000       0.00000    
      3902 HOAC     66       HOAC     LPO21    LPD     -0.285000       0.00000          -1   0.00000       0.00000    
      3903 HOAC     66       HOAC     LPO22    LPD     -0.285000       0.00000          -1   0.00000       0.00000    
      3904 HOAC     67       HOAC     C1       CD2O3A    3.55420       11.6110           0  -1.20700      0.708000    
      3905 HOAC     67       HOAC     DC1      DRUD     -2.69620      0.400000           0   0.00000       0.00000    
      3906 HOAC     67       HOAC     C2       CD33C     3.26820       11.6110           0  -2.11400      0.750000    
      3907 HOAC     67       HOAC     DC2      DRUD     -3.56820      0.400000           0   0.00000       0.00000    
      3908 HOAC     67       HOAC     H1       HDA3A    0.920000E-01   1.00800           0   0.00000       0.00000    
      3909 HOAC     67       HOAC     H2       HDA3A    0.920000E-01   1.00800           0   0.00000       0.00000    
      3910 HOAC     67       HOAC     H3       HDA3A    0.920000E-01   1.00800           0   0.00000       0.00000    
      3911 HOAC     67       HOAC     O1       OD2C3A    2.35650       15.5994           0 -0.922000       1.53900    
      3912 HOAC     67       HOAC     DO1      DRUD     -2.35650      0.400000           0   0.00000       0.00000    
      3913 HOAC     67       HOAC     O2       OD31F     2.77650       15.5990           0  -1.28000       1.12400    
      3914 HOAC     67       HOAC     DO2      DRUD     -2.77650      0.400000           0   0.00000       0.00000    
      3915 HOAC     67       HOAC     HO2      HDP1A    0.374000       1.00800           0   0.00000       0.00000    
      3916 HOAC     67       HOAC     HO1      DUMH      0.00000       1.00800           0   0.00000       0.00000    
      3917 HOAC     67       HOAC     LPO11    LPD     -0.319000       0.00000          -1   0.00000       0.00000    
      3918 HOAC     67       HOAC     LPO12    LPD     -0.319000       0.00000          -1   0.00000       0.00000    
      3919 HOAC     67       HOAC     LPO21    LPD     -0.285000       0.00000          -1   0.00000       0.00000    
      3920 HOAC     67       HOAC     LPO22    LPD     -0.285000       0.00000          -1   0.00000       0.00000    
      3921 HOAC     68       HOAC     C1       CD2O3A    3.55420       11.6110           0  -1.20700      0.708000    
      3922 HOAC     68       HOAC     DC1      DRUD     -2.69620      0.400000           0   0.00000       0.00000    
      3923 HOAC     68       HOAC     C2       CD33C     3.26820       11.6110           0  -2.11400      0.750000    
      3924 HOAC     68       HOAC     DC2      DRUD     -3.56820      0.400000           0   0.00000       0.00000    
      3925 HOAC     68       HOAC     H1       HDA3A    0.920000E-01   1.00800           0   0.00000       0.00000    
      3926 HOAC     68       HOAC     H2       HDA3A    0.920000E-01   1.00800           0   0.00000       0.00000    
      3927 HOAC     68       HOAC     H3       HDA3A    0.920000E-01   1.00800           0   0.00000       0.00000    
      3928 HOAC     68       HOAC     O1       OD2C3A    2.35650       15.5994           0 -0.922000       1.53900    
      3929 HOAC     68       HOAC     DO1      DRUD     -2.35650      0.400000           0   0.00000       0.00000    
      3930 HOAC     68       HOAC     O2       OD31F     2.77650       15.5990           0  -1.28000       1.12400    
      3931 HOAC     68       HOAC     DO2      DRUD     -2.77650      0.400000           0   0.00000       0.00000    
      3932 HOAC     68       HOAC     HO2      HDP1A    0.374000       1.00800           0   0.00000       0.00000    
      3933 HOAC     68       HOAC     HO1      DUMH      0.00000       1.00800           0   0.00000       0.00000    
      3934 HOAC     68       HOAC     LPO11    LPD     -0.319000       0.00000          -1   0.00000       0.00000    
      3935 HOAC     68       HOAC     LPO12    LPD     -0.319000       0.00000          -1   0.00000       0.00000    
      3936 HOAC     68       HOAC     LPO21    LPD     -0.285000       0.00000          -1   0.00000       0.00000    
      3937 HOAC     68       HOAC     LPO22    LPD     -0.285000       0.00000          -1   0.00000       0.00000    
      3938 HOAC     69       HOAC     C1       CD2O3A    3.55420       11.6110           0  -1.20700      0.708000    
      3939 HOAC     69       HOAC     DC1      DRUD     -2.69620      0.400000           0   0.00000       0.00000    
      3940 HOAC     69       HOAC     C2       CD33C     3.26820       11.6110           0  -2.11400      0.750000    
      3941 HOAC     69       HOAC     DC2      DRUD     -3.56820      0.400000           0   0.00000       0.00000    
      3942 HOAC     69       HOAC     H1       HDA3A    0.920000E-01   1.00800           0   0.00000       0.00000    
      3943 HOAC     69       HOAC     H2       HDA3A    0.920000E-01   1.00800           0   0.00000       0.00000    
      3944 HOAC     69       HOAC     H3       HDA3A    0.920000E-01   1.00800           0   0.00000       0.00000    
      3945 HOAC     69       HOAC     O1       OD2C3A    2.35650       15.5994           0 -0.922000       1.53900    
      3946 HOAC     69       HOAC     DO1      DRUD     -2.35650      0.400000           0   0.00000       0.00000    
      3947 HOAC     69       HOAC     O2       OD31F     2.77650       15.5990           0  -1.28000       1.12400    
      3948 HOAC     69       HOAC     DO2      DRUD     -2.77650      0.400000           0   0.00000       0.00000    
      3949 HOAC     69       HOAC     HO2      HDP1A    0.374000       1.00800           0   0.00000       0.00000    
      3950 HOAC     69       HOAC     HO1      DUMH      0.00000       1.00800           0   0.00000       0.00000    
      3951 HOAC     69       HOAC     LPO11    LPD     -0.319000       0.00000          -1   0.00000       0.00000    
      3952 HOAC     69       HOAC     LPO12    LPD     -0.319000       0.00000          -1   0.00000       0.00000    
      3953 HOAC     69       HOAC     LPO21    LPD     -0.285000       0.00000          -1   0.00000       0.00000    
      3954 HOAC     69       HOAC     LPO22    LPD     -0.285000       0.00000          -1   0.00000       0.00000    
      3955 HOAC     70       HOAC     C1       CD2O3A    3.55420       11.6110           0  -1.20700      0.708000    
      3956 HOAC     70       HOAC     DC1      DRUD     -2.69620      0.400000           0   0.00000       0.00000    
      3957 HOAC     70       HOAC     C2       CD33C     3.26820       11.6110           0  -2.11400      0.750000    
      3958 HOAC     70       HOAC     DC2      DRUD     -3.56820      0.400000           0   0.00000       0.00000    
      3959 HOAC     70       HOAC     H1       HDA3A    0.920000E-01   1.00800           0   0.00000       0.00000    
      3960 HOAC     70       HOAC     H2       HDA3A    0.920000E-01   1.00800           0   0.00000       0.00000    
      3961 HOAC     70       HOAC     H3       HDA3A    0.920000E-01   1.00800           0   0.00000       0.00000    
      3962 HOAC     70       HOAC     O1       OD2C3A    2.35650       15.5994           0 -0.922000       1.53900    
      3963 HOAC     70       HOAC     DO1      DRUD     -2.35650      0.400000           0   0.00000       0.00000    
      3964 HOAC     70       HOAC     O2       OD31F     2.77650       15.5990           0  -1.28000       1.12400    
      3965 HOAC     70       HOAC     DO2      DRUD     -2.77650      0.400000           0   0.00000       0.00000    
      3966 HOAC     70       HOAC     HO2      HDP1A    0.374000       1.00800           0   0.00000       0.00000    
      3967 HOAC     70       HOAC     HO1      DUMH      0.00000       1.00800           0   0.00000       0.00000    
      3968 HOAC     70       HOAC     LPO11    LPD     -0.319000       0.00000          -1   0.00000       0.00000    
      3969 HOAC     70       HOAC     LPO12    LPD     -0.319000       0.00000          -1   0.00000       0.00000    
      3970 HOAC     70       HOAC     LPO21    LPD     -0.285000       0.00000          -1   0.00000       0.00000    
      3971 HOAC     70       HOAC     LPO22    LPD     -0.285000       0.00000          -1   0.00000       0.00000    
      3972 HOAC     71       HOAC     C1       CD2O3A    3.55420       11.6110           0  -1.20700      0.708000    
      3973 HOAC     71       HOAC     DC1      DRUD     -2.69620      0.400000           0   0.00000       0.00000    
      3974 HOAC     71       HOAC     C2       CD33C     3.26820       11.6110           0  -2.11400      0.750000    
      3975 HOAC     71       HOAC     DC2      DRUD     -3.56820      0.400000           0   0.00000       0.00000    
      3976 HOAC     71       HOAC     H1       HDA3A    0.920000E-01   1.00800           0   0.00000       0.00000    
      3977 HOAC     71       HOAC     H2       HDA3A    0.920000E-01   1.00800           0   0.00000       0.00000    
      3978 HOAC     71       HOAC     H3       HDA3A    0.920000E-01   1.00800           0   0.00000       0.00000    
      3979 HOAC     71       HOAC     O1       OD2C3A    2.35650       15.5994           0 -0.922000       1.53900    
      3980 HOAC     71       HOAC     DO1      DRUD     -2.35650      0.400000           0   0.00000       0.00000    
      3981 HOAC     71       HOAC     O2       OD31F     2.77650       15.5990           0  -1.28000       1.12400    
      3982 HOAC     71       HOAC     DO2      DRUD     -2.77650      0.400000           0   0.00000       0.00000    
      3983 HOAC     71       HOAC     HO2      HDP1A    0.374000       1.00800           0   0.00000       0.00000    
      3984 HOAC     71       HOAC     HO1      DUMH      0.00000       1.00800           0   0.00000       0.00000    
      3985 HOAC     71       HOAC     LPO11    LPD     -0.319000       0.00000          -1   0.00000       0.00000    
      3986 HOAC     71       HOAC     LPO12    LPD     -0.319000       0.00000          -1   0.00000       0.00000    
      3987 HOAC     71       HOAC     LPO21    LPD     -0.285000       0.00000          -1   0.00000       0.00000    
      3988 HOAC     71       HOAC     LPO22    LPD     -0.285000       0.00000          -1   0.00000       0.00000    
      3989 HOAC     72       HOAC     C1       CD2O3A    3.55420       11.6110           0  -1.20700      0.708000    
      3990 HOAC     72       HOAC     DC1      DRUD     -2.69620      0.400000           0   0.00000       0.00000    
      3991 HOAC     72       HOAC     C2       CD33C     3.26820       11.6110           0  -2.11400      0.750000    
      3992 HOAC     72       HOAC     DC2      DRUD     -3.56820      0.400000           0   0.00000       0.00000    
      3993 HOAC     72       HOAC     H1       HDA3A    0.920000E-01   1.00800           0   0.00000       0.00000    
      3994 HOAC     72       HOAC     H2       HDA3A    0.920000E-01   1.00800           0   0.00000       0.00000    
      3995 HOAC     72       HOAC     H3       HDA3A    0.920000E-01   1.00800           0   0.00000       0.00000    
      3996 HOAC     72       HOAC     O1       OD2C3A    2.35650       15.5994           0 -0.922000       1.53900    
      3997 HOAC     72       HOAC     DO1      DRUD     -2.35650      0.400000           0   0.00000       0.00000    
      3998 HOAC     72       HOAC     O2       OD31F     2.77650       15.5990           0  -1.28000       1.12400    
      3999 HOAC     72       HOAC     DO2      DRUD     -2.77650      0.400000           0   0.00000       0.00000    
      4000 HOAC     72       HOAC     HO2      HDP1A    0.374000       1.00800           0   0.00000       0.00000    
      4001 HOAC     72       HOAC     HO1      DUMH      0.00000       1.00800           0   0.00000       0.00000    
      4002 HOAC     72       HOAC     LPO11    LPD     -0.319000       0.00000          -1   0.00000       0.00000    
      4003 HOAC     72       HOAC     LPO12    LPD     -0.319000       0.00000          -1   0.00000       0.00000    
      4004 HOAC     72       HOAC     LPO21    LPD     -0.285000       0.00000          -1   0.00000       0.00000    
      4005 HOAC     72       HOAC     LPO22    LPD     -0.285000       0.00000          -1   0.00000       0.00000    
      4006 HOAC     73       HOAC     C1       CD2O3A    3.55420       11.6110           0  -1.20700      0.708000    
      4007 HOAC     73       HOAC     DC1      DRUD     -2.69620      0.400000           0   0.00000       0.00000    
      4008 HOAC     73       HOAC     C2       CD33C     3.26820       11.6110           0  -2.11400      0.750000    
      4009 HOAC     73       HOAC     DC2      DRUD     -3.56820      0.400000           0   0.00000       0.00000    
      4010 HOAC     73       HOAC     H1       HDA3A    0.920000E-01   1.00800           0   0.00000       0.00000    
      4011 HOAC     73       HOAC     H2       HDA3A    0.920000E-01   1.00800           0   0.00000       0.00000    
      4012 HOAC     73       HOAC     H3       HDA3A    0.920000E-01   1.00800           0   0.00000       0.00000    
      4013 HOAC     73       HOAC     O1       OD2C3A    2.35650       15.5994           0 -0.922000       1.53900    
      4014 HOAC     73       HOAC     DO1      DRUD     -2.35650      0.400000           0   0.00000       0.00000    
      4015 HOAC     73       HOAC     O2       OD31F     2.77650       15.5990           0  -1.28000       1.12400    
      4016 HOAC     73       HOAC     DO2      DRUD     -2.77650      0.400000           0   0.00000       0.00000    
      4017 HOAC     73       HOAC     HO2      HDP1A    0.374000       1.00800           0   0.00000       0.00000    
      4018 HOAC     73       HOAC     HO1      DUMH      0.00000       1.00800           0   0.00000       0.00000    
      4019 HOAC     73       HOAC     LPO11    LPD     -0.319000       0.00000          -1   0.00000       0.00000    
      4020 HOAC     73       HOAC     LPO12    LPD     -0.319000       0.00000          -1   0.00000       0.00000    
      4021 HOAC     73       HOAC     LPO21    LPD     -0.285000       0.00000          -1   0.00000       0.00000    
      4022 HOAC     73       HOAC     LPO22    LPD     -0.285000       0.00000          -1   0.00000       0.00000    
      4023 HOAC     74       HOAC     C1       CD2O3A    3.55420       11.6110           0  -1.20700      0.708000    
      4024 HOAC     74       HOAC     DC1      DRUD     -2.69620      0.400000           0   0.00000       0.00000    
      4025 HOAC     74       HOAC     C2       CD33C     3.26820       11.6110           0  -2.11400      0.750000    
      4026 HOAC     74       HOAC     DC2      DRUD     -3.56820      0.400000           0   0.00000       0.00000    
      4027 HOAC     74       HOAC     H1       HDA3A    0.920000E-01   1.00800           0   0.00000       0.00000    
      4028 HOAC     74       HOAC     H2       HDA3A    0.920000E-01   1.00800           0   0.00000       0.00000    
      4029 HOAC     74       HOAC     H3       HDA3A    0.920000E-01   1.00800           0   0.00000       0.00000    
      4030 HOAC     74       HOAC     O1       OD2C3A    2.35650       15.5994           0 -0.922000       1.53900    
      4031 HOAC     74       HOAC     DO1      DRUD     -2.35650      0.400000           0   0.00000       0.00000    
      4032 HOAC     74       HOAC     O2       OD31F     2.77650       15.5990           0  -1.28000       1.12400    
      4033 HOAC     74       HOAC     DO2      DRUD     -2.77650      0.400000           0   0.00000       0.00000    
      4034 HOAC     74       HOAC     HO2      HDP1A    0.374000       1.00800           0   0.00000       0.00000    
      4035 HOAC     74       HOAC     HO1      DUMH      0.00000       1.00800           0   0.00000       0.00000    
      4036 HOAC     74       HOAC     LPO11    LPD     -0.319000       0.00000          -1   0.00000       0.00000    
      4037 HOAC     74       HOAC     LPO12    LPD     -0.319000       0.00000          -1   0.00000       0.00000    
      4038 HOAC     74       HOAC     LPO21    LPD     -0.285000       0.00000          -1   0.00000       0.00000    
      4039 HOAC     74       HOAC     LPO22    LPD     -0.285000       0.00000          -1   0.00000       0.00000    
      4040 HOAC     75       HOAC     C1       CD2O3A    3.55420       11.6110           0  -1.20700      0.708000    
      4041 HOAC     75       HOAC     DC1      DRUD     -2.69620      0.400000           0   0.00000       0.00000    
      4042 HOAC     75       HOAC     C2       CD33C     3.26820       11.6110           0  -2.11400      0.750000    
      4043 HOAC     75       HOAC     DC2      DRUD     -3.56820      0.400000           0   0.00000       0.00000    
      4044 HOAC     75       HOAC     H1       HDA3A    0.920000E-01   1.00800           0   0.00000       0.00000    
      4045 HOAC     75       HOAC     H2       HDA3A    0.920000E-01   1.00800           0   0.00000       0.00000    
      4046 HOAC     75       HOAC     H3       HDA3A    0.920000E-01   1.00800           0   0.00000       0.00000    
      4047 HOAC     75       HOAC     O1       OD2C3A    2.35650       15.5994           0 -0.922000       1.53900    
      4048 HOAC     75       HOAC     DO1      DRUD     -2.35650      0.400000           0   0.00000       0.00000    
      4049 HOAC     75       HOAC     O2       OD31F     2.77650       15.5990           0  -1.28000       1.12400    
      4050 HOAC     75       HOAC     DO2      DRUD     -2.77650      0.400000           0   0.00000       0.00000    
      4051 HOAC     75       HOAC     HO2      HDP1A    0.374000       1.00800           0   0.00000       0.00000    
      4052 HOAC     75       HOAC     HO1      DUMH      0.00000       1.00800           0   0.00000       0.00000    
      4053 HOAC     75       HOAC     LPO11    LPD     -0.319000       0.00000          -1   0.00000       0.00000    
      4054 HOAC     75       HOAC     LPO12    LPD     -0.319000       0.00000          -1   0.00000       0.00000    
      4055 HOAC     75       HOAC     LPO21    LPD     -0.285000       0.00000          -1   0.00000       0.00000    
      4056 HOAC     75       HOAC     LPO22    LPD     -0.285000       0.00000          -1   0.00000       0.00000    
      4057 HOAC     76       HOAC     C1       CD2O3A    3.55420       11.6110           0  -1.20700      0.708000    
      4058 HOAC     76       HOAC     DC1      DRUD     -2.69620      0.400000           0   0.00000       0.00000    
      4059 HOAC     76       HOAC     C2       CD33C     3.26820       11.6110           0  -2.11400      0.750000    
      4060 HOAC     76       HOAC     DC2      DRUD     -3.56820      0.400000           0   0.00000       0.00000    
      4061 HOAC     76       HOAC     H1       HDA3A    0.920000E-01   1.00800           0   0.00000       0.00000    
      4062 HOAC     76       HOAC     H2       HDA3A    0.920000E-01   1.00800           0   0.00000       0.00000    
      4063 HOAC     76       HOAC     H3       HDA3A    0.920000E-01   1.00800           0   0.00000       0.00000    
      4064 HOAC     76       HOAC     O1       OD2C3A    2.35650       15.5994           0 -0.922000       1.53900    
      4065 HOAC     76       HOAC     DO1      DRUD     -2.35650      0.400000           0   0.00000       0.00000    
      4066 HOAC     76       HOAC     O2       OD31F     2.77650       15.5990           0  -1.28000       1.12400    
      4067 HOAC     76       HOAC     DO2      DRUD     -2.77650      0.400000           0   0.00000       0.00000    
      4068 HOAC     76       HOAC     HO2      HDP1A    0.374000       1.00800           0   0.00000       0.00000    
      4069 HOAC     76       HOAC     HO1      DUMH      0.00000       1.00800           0   0.00000       0.00000    
      4070 HOAC     76       HOAC     LPO11    LPD     -0.319000       0.00000          -1   0.00000       0.00000    
      4071 HOAC     76       HOAC     LPO12    LPD     -0.319000       0.00000          -1   0.00000       0.00000    
      4072 HOAC     76       HOAC     LPO21    LPD     -0.285000       0.00000          -1   0.00000       0.00000    
      4073 HOAC     76       HOAC     LPO22    LPD     -0.285000       0.00000          -1   0.00000       0.00000    
      4074 HOAC     77       HOAC     C1       CD2O3A    3.55420       11.6110           0  -1.20700      0.708000    
      4075 HOAC     77       HOAC     DC1      DRUD     -2.69620      0.400000           0   0.00000       0.00000    
      4076 HOAC     77       HOAC     C2       CD33C     3.26820       11.6110           0  -2.11400      0.750000    
      4077 HOAC     77       HOAC     DC2      DRUD     -3.56820      0.400000           0   0.00000       0.00000    
      4078 HOAC     77       HOAC     H1       HDA3A    0.920000E-01   1.00800           0   0.00000       0.00000    
      4079 HOAC     77       HOAC     H2       HDA3A    0.920000E-01   1.00800           0   0.00000       0.00000    
      4080 HOAC     77       HOAC     H3       HDA3A    0.920000E-01   1.00800           0   0.00000       0.00000    
      4081 HOAC     77       HOAC     O1       OD2C3A    2.35650       15.5994           0 -0.922000       1.53900    
      4082 HOAC     77       HOAC     DO1      DRUD     -2.35650      0.400000           0   0.00000       0.00000    
      4083 HOAC     77       HOAC     O2       OD31F     2.77650       15.5990           0  -1.28000       1.12400    
      4084 HOAC     77       HOAC     DO2      DRUD     -2.77650      0.400000           0   0.00000       0.00000    
      4085 HOAC     77       HOAC     HO2      HDP1A    0.374000       1.00800           0   0.00000       0.00000    
      4086 HOAC     77       HOAC     HO1      DUMH      0.00000       1.00800           0   0.00000       0.00000    
      4087 HOAC     77       HOAC     LPO11    LPD     -0.319000       0.00000          -1   0.00000       0.00000    
      4088 HOAC     77       HOAC     LPO12    LPD     -0.319000       0.00000          -1   0.00000       0.00000    
      4089 HOAC     77       HOAC     LPO21    LPD     -0.285000       0.00000          -1   0.00000       0.00000    
      4090 HOAC     77       HOAC     LPO22    LPD     -0.285000       0.00000          -1   0.00000       0.00000    
      4091 HOAC     78       HOAC     C1       CD2O3A    3.55420       11.6110           0  -1.20700      0.708000    
      4092 HOAC     78       HOAC     DC1      DRUD     -2.69620      0.400000           0   0.00000       0.00000    
      4093 HOAC     78       HOAC     C2       CD33C     3.26820       11.6110           0  -2.11400      0.750000    
      4094 HOAC     78       HOAC     DC2      DRUD     -3.56820      0.400000           0   0.00000       0.00000    
      4095 HOAC     78       HOAC     H1       HDA3A    0.920000E-01   1.00800           0   0.00000       0.00000    
      4096 HOAC     78       HOAC     H2       HDA3A    0.920000E-01   1.00800           0   0.00000       0.00000    
      4097 HOAC     78       HOAC     H3       HDA3A    0.920000E-01   1.00800           0   0.00000       0.00000    
      4098 HOAC     78       HOAC     O1       OD2C3A    2.35650       15.5994           0 -0.922000       1.53900    
      4099 HOAC     78       HOAC     DO1      DRUD     -2.35650      0.400000           0   0.00000       0.00000    
      4100 HOAC     78       HOAC     O2       OD31F     2.77650       15.5990           0  -1.28000       1.12400    
      4101 HOAC     78       HOAC     DO2      DRUD     -2.77650      0.400000           0   0.00000       0.00000    
      4102 HOAC     78       HOAC     HO2      HDP1A    0.374000       1.00800           0   0.00000       0.00000    
      4103 HOAC     78       HOAC     HO1      DUMH      0.00000       1.00800           0   0.00000       0.00000    
      4104 HOAC     78       HOAC     LPO11    LPD     -0.319000       0.00000          -1   0.00000       0.00000    
      4105 HOAC     78       HOAC     LPO12    LPD     -0.319000       0.00000          -1   0.00000       0.00000    
      4106 HOAC     78       HOAC     LPO21    LPD     -0.285000       0.00000          -1   0.00000       0.00000    
      4107 HOAC     78       HOAC     LPO22    LPD     -0.285000       0.00000          -1   0.00000       0.00000    
      4108 H2OAC    1        H2OAC    C1       CD2O3A    3.67620       11.6110           0  -1.20700      0.708000    
      4109 H2OAC    1        H2OAC    DC1      DRUD     -2.69620      0.400000           0   0.00000       0.00000    
      4110 H2OAC    1        H2OAC    C2       CD33C     3.29220       11.6110           0  -2.11400      0.750000    
      4111 H2OAC    1        H2OAC    DC2      DRUD     -3.56820      0.400000           0   0.00000       0.00000    
      4112 H2OAC    1        H2OAC    H1       HDA3A    0.920000E-01   1.00800           0   0.00000       0.00000    
      4113 H2OAC    1        H2OAC    H2       HDA3A    0.920000E-01   1.00800           0   0.00000       0.00000    
      4114 H2OAC    1        H2OAC    H3       HDA3A    0.920000E-01   1.00800           0   0.00000       0.00000    
      4115 H2OAC    1        H2OAC    O1       OD31F     2.57390       15.5990           0  -1.10000       1.33200    
      4116 H2OAC    1        H2OAC    DO1      DRUD     -2.57390      0.400000           0   0.00000       0.00000    
      4117 H2OAC    1        H2OAC    O2       OD31F     2.57390       15.5990           0  -1.10000       1.33200    
      4118 H2OAC    1        H2OAC    DO2      DRUD     -2.57390      0.400000           0   0.00000       0.00000    
      4119 H2OAC    1        H2OAC    HO2      HDP1A    0.370000       1.00800           0   0.00000       0.00000    
      4120 H2OAC    1        H2OAC    HO1      HDP1A    0.370000       1.00800           0   0.00000       0.00000    
      4121 H2OAC    1        H2OAC    LPO11    LPD     -0.180000       0.00000          -1   0.00000       0.00000    
      4122 H2OAC    1        H2OAC    LPO12    LPD     -0.180000       0.00000          -1   0.00000       0.00000    
      4123 H2OAC    1        H2OAC    LPO21    LPD     -0.180000       0.00000          -1   0.00000       0.00000    
      4124 H2OAC    1        H2OAC    LPO22    LPD     -0.180000       0.00000          -1   0.00000       0.00000    
      4125 H2OAC    2        H2OAC    C1       CD2O3A    3.67620       11.6110           0  -1.20700      0.708000    
      4126 H2OAC    2        H2OAC    DC1      DRUD     -2.69620      0.400000           0   0.00000       0.00000    
      4127 H2OAC    2        H2OAC    C2       CD33C     3.29220       11.6110           0  -2.11400      0.750000    
      4128 H2OAC    2        H2OAC    DC2      DRUD     -3.56820      0.400000           0   0.00000       0.00000    
      4129 H2OAC    2        H2OAC    H1       HDA3A    0.920000E-01   1.00800           0   0.00000       0.00000    
      4130 H2OAC    2        H2OAC    H2       HDA3A    0.920000E-01   1.00800           0   0.00000       0.00000    
      4131 H2OAC    2        H2OAC    H3       HDA3A    0.920000E-01   1.00800           0   0.00000       0.00000    
      4132 H2OAC    2        H2OAC    O1       OD31F     2.57390       15.5990           0  -1.10000       1.33200    
      4133 H2OAC    2        H2OAC    DO1      DRUD     -2.57390      0.400000           0   0.00000       0.00000    
      4134 H2OAC    2        H2OAC    O2       OD31F     2.57390       15.5990           0  -1.10000       1.33200    
      4135 H2OAC    2        H2OAC    DO2      DRUD     -2.57390      0.400000           0   0.00000       0.00000    
      4136 H2OAC    2        H2OAC    HO2      HDP1A    0.370000       1.00800           0   0.00000       0.00000    
      4137 H2OAC    2        H2OAC    HO1      HDP1A    0.370000       1.00800           0   0.00000       0.00000    
      4138 H2OAC    2        H2OAC    LPO11    LPD     -0.180000       0.00000          -1   0.00000       0.00000    
      4139 H2OAC    2        H2OAC    LPO12    LPD     -0.180000       0.00000          -1   0.00000       0.00000    
      4140 H2OAC    2        H2OAC    LPO21    LPD     -0.180000       0.00000          -1   0.00000       0.00000    
      4141 H2OAC    2        H2OAC    LPO22    LPD     -0.180000       0.00000          -1   0.00000       0.00000    
      4142 H2OAC    3        H2OAC    C1       CD2O3A    3.67620       11.6110           0  -1.20700      0.708000    
      4143 H2OAC    3        H2OAC    DC1      DRUD     -2.69620      0.400000           0   0.00000       0.00000    
      4144 H2OAC    3        H2OAC    C2       CD33C     3.29220       11.6110           0  -2.11400      0.750000    
      4145 H2OAC    3        H2OAC    DC2      DRUD     -3.56820      0.400000           0   0.00000       0.00000    
      4146 H2OAC    3        H2OAC    H1       HDA3A    0.920000E-01   1.00800           0   0.00000       0.00000    
      4147 H2OAC    3        H2OAC    H2       HDA3A    0.920000E-01   1.00800           0   0.00000       0.00000    
      4148 H2OAC    3        H2OAC    H3       HDA3A    0.920000E-01   1.00800           0   0.00000       0.00000    
      4149 H2OAC    3        H2OAC    O1       OD31F     2.57390       15.5990           0  -1.10000       1.33200    
      4150 H2OAC    3        H2OAC    DO1      DRUD     -2.57390      0.400000           0   0.00000       0.00000    
      4151 H2OAC    3        H2OAC    O2       OD31F     2.57390       15.5990           0  -1.10000       1.33200    
      4152 H2OAC    3        H2OAC    DO2      DRUD     -2.57390      0.400000           0   0.00000       0.00000    
      4153 H2OAC    3        H2OAC    HO2      HDP1A    0.370000       1.00800           0   0.00000       0.00000    
      4154 H2OAC    3        H2OAC    HO1      HDP1A    0.370000       1.00800           0   0.00000       0.00000    
      4155 H2OAC    3        H2OAC    LPO11    LPD     -0.180000       0.00000          -1   0.00000       0.00000    
      4156 H2OAC    3        H2OAC    LPO12    LPD     -0.180000       0.00000          -1   0.00000       0.00000    
      4157 H2OAC    3        H2OAC    LPO21    LPD     -0.180000       0.00000          -1   0.00000       0.00000    
      4158 H2OAC    3        H2OAC    LPO22    LPD     -0.180000       0.00000          -1   0.00000       0.00000    
      4159 H2OAC    4        H2OAC    C1       CD2O3A    3.67620       11.6110           0  -1.20700      0.708000    
      4160 H2OAC    4        H2OAC    DC1      DRUD     -2.69620      0.400000           0   0.00000       0.00000    
      4161 H2OAC    4        H2OAC    C2       CD33C     3.29220       11.6110           0  -2.11400      0.750000    
      4162 H2OAC    4        H2OAC    DC2      DRUD     -3.56820      0.400000           0   0.00000       0.00000    
      4163 H2OAC    4        H2OAC    H1       HDA3A    0.920000E-01   1.00800           0   0.00000       0.00000    
      4164 H2OAC    4        H2OAC    H2       HDA3A    0.920000E-01   1.00800           0   0.00000       0.00000    
      4165 H2OAC    4        H2OAC    H3       HDA3A    0.920000E-01   1.00800           0   0.00000       0.00000    
      4166 H2OAC    4        H2OAC    O1       OD31F     2.57390       15.5990           0  -1.10000       1.33200    
      4167 H2OAC    4        H2OAC    DO1      DRUD     -2.57390      0.400000           0   0.00000       0.00000    
      4168 H2OAC    4        H2OAC    O2       OD31F     2.57390       15.5990           0  -1.10000       1.33200    
      4169 H2OAC    4        H2OAC    DO2      DRUD     -2.57390      0.400000           0   0.00000       0.00000    
      4170 H2OAC    4        H2OAC    HO2      HDP1A    0.370000       1.00800           0   0.00000       0.00000    
      4171 H2OAC    4        H2OAC    HO1      HDP1A    0.370000       1.00800           0   0.00000       0.00000    
      4172 H2OAC    4        H2OAC    LPO11    LPD     -0.180000       0.00000          -1   0.00000       0.00000    
      4173 H2OAC    4        H2OAC    LPO12    LPD     -0.180000       0.00000          -1   0.00000       0.00000    
      4174 H2OAC    4        H2OAC    LPO21    LPD     -0.180000       0.00000          -1   0.00000       0.00000    
      4175 H2OAC    4        H2OAC    LPO22    LPD     -0.180000       0.00000          -1   0.00000       0.00000    
      4176 H2OAC    5        H2OAC    C1       CD2O3A    3.67620       11.6110           0  -1.20700      0.708000    
      4177 H2OAC    5        H2OAC    DC1      DRUD     -2.69620      0.400000           0   0.00000       0.00000    
      4178 H2OAC    5        H2OAC    C2       CD33C     3.29220       11.6110           0  -2.11400      0.750000    
      4179 H2OAC    5        H2OAC    DC2      DRUD     -3.56820      0.400000           0   0.00000       0.00000    
      4180 H2OAC    5        H2OAC    H1       HDA3A    0.920000E-01   1.00800           0   0.00000       0.00000    
      4181 H2OAC    5        H2OAC    H2       HDA3A    0.920000E-01   1.00800           0   0.00000       0.00000    
      4182 H2OAC    5        H2OAC    H3       HDA3A    0.920000E-01   1.00800           0   0.00000       0.00000    
      4183 H2OAC    5        H2OAC    O1       OD31F     2.57390       15.5990           0  -1.10000       1.33200    
      4184 H2OAC    5        H2OAC    DO1      DRUD     -2.57390      0.400000           0   0.00000       0.00000    
      4185 H2OAC    5        H2OAC    O2       OD31F     2.57390       15.5990           0  -1.10000       1.33200    
      4186 H2OAC    5        H2OAC    DO2      DRUD     -2.57390      0.400000           0   0.00000       0.00000    
      4187 H2OAC    5        H2OAC    HO2      HDP1A    0.370000       1.00800           0   0.00000       0.00000    
      4188 H2OAC    5        H2OAC    HO1      HDP1A    0.370000       1.00800           0   0.00000       0.00000    
      4189 H2OAC    5        H2OAC    LPO11    LPD     -0.180000       0.00000          -1   0.00000       0.00000    
      4190 H2OAC    5        H2OAC    LPO12    LPD     -0.180000       0.00000          -1   0.00000       0.00000    
      4191 H2OAC    5        H2OAC    LPO21    LPD     -0.180000       0.00000          -1   0.00000       0.00000    
      4192 H2OAC    5        H2OAC    LPO22    LPD     -0.180000       0.00000          -1   0.00000       0.00000    
      4193 H2OAC    6        H2OAC    C1       CD2O3A    3.67620       11.6110           0  -1.20700      0.708000    
      4194 H2OAC    6        H2OAC    DC1      DRUD     -2.69620      0.400000           0   0.00000       0.00000    
      4195 H2OAC    6        H2OAC    C2       CD33C     3.29220       11.6110           0  -2.11400      0.750000    
      4196 H2OAC    6        H2OAC    DC2      DRUD     -3.56820      0.400000           0   0.00000       0.00000    
      4197 H2OAC    6        H2OAC    H1       HDA3A    0.920000E-01   1.00800           0   0.00000       0.00000    
      4198 H2OAC    6        H2OAC    H2       HDA3A    0.920000E-01   1.00800           0   0.00000       0.00000    
      4199 H2OAC    6        H2OAC    H3       HDA3A    0.920000E-01   1.00800           0   0.00000       0.00000    
      4200 H2OAC    6        H2OAC    O1       OD31F     2.57390       15.5990           0  -1.10000       1.33200    
      4201 H2OAC    6        H2OAC    DO1      DRUD     -2.57390      0.400000           0   0.00000       0.00000    
      4202 H2OAC    6        H2OAC    O2       OD31F     2.57390       15.5990           0  -1.10000       1.33200    
      4203 H2OAC    6        H2OAC    DO2      DRUD     -2.57390      0.400000           0   0.00000       0.00000    
      4204 H2OAC    6        H2OAC    HO2      HDP1A    0.370000       1.00800           0   0.00000       0.00000    
      4205 H2OAC    6        H2OAC    HO1      HDP1A    0.370000       1.00800           0   0.00000       0.00000    
      4206 H2OAC    6        H2OAC    LPO11    LPD     -0.180000       0.00000          -1   0.00000       0.00000    
      4207 H2OAC    6        H2OAC    LPO12    LPD     -0.180000       0.00000          -1   0.00000       0.00000    
      4208 H2OAC    6        H2OAC    LPO21    LPD     -0.180000       0.00000          -1   0.00000       0.00000    
      4209 H2OAC    6        H2OAC    LPO22    LPD     -0.180000       0.00000          -1   0.00000       0.00000    
      4210 HPTSH    1        HPTSH    C1       CD2R6A    2.38940       11.6110           0  -1.07150       1.27010    
      4211 HPTSH    1        HPTSH    DC1      DRUD     -2.54040      0.400000           0   0.00000       0.00000    
      4212 HPTSH    1        HPTSH    C2       CD2R6A    2.25620       11.6110           0 -0.977400       1.27010    
      4213 HPTSH    1        HPTSH    DC2      DRUD     -2.42620      0.400000           0   0.00000       0.00000    
      4214 HPTSH    1        HPTSH    C3       CD2R6A    2.56530       11.6110           0 -0.970200       1.27010    
      4215 HPTSH    1        HPTSH    DC3      DRUD     -2.41730      0.400000           0   0.00000       0.00000    
      4216 HPTSH    1        HPTSH    C4       CD2R6A    2.45810       11.6110           0  -1.03530       1.27010    
      4217 HPTSH    1        HPTSH    DC4      DRUD     -2.49710      0.400000           0   0.00000       0.00000    
      4218 HPTSH    1        HPTSH    C5       CD2R6A    2.62580       11.6110           0  -1.06430       1.27010    
      4219 HPTSH    1        HPTSH    DC5      DRUD     -2.53180      0.400000           0   0.00000       0.00000    
      4220 HPTSH    1        HPTSH    C6       CD2R6A    2.62820       11.6110           0  -1.28150       1.27010    
      4221 HPTSH    1        HPTSH    DC6      DRUD     -2.77820      0.400000           0   0.00000       0.00000    
      4222 HPTSH    1        HPTSH    C7       CD2R6A    2.26890       11.6110           0 -0.876000       1.27010    
      4223 HPTSH    1        HPTSH    DC7      DRUD     -2.29690      0.400000           0   0.00000       0.00000    
      4224 HPTSH    1        HPTSH    C8       CD2R6A    2.42910       11.6110           0  -1.12940       1.27010    
      4225 HPTSH    1        HPTSH    DC8      DRUD     -2.60810      0.400000           0   0.00000       0.00000    
      4226 HPTSH    1        HPTSH    S1       SD30A     3.50200       31.6600           0 -0.935000       1.30000    
      4227 HPTSH    1        HPTSH    DS1      DRUD     -2.37300      0.400000           0   0.00000       0.00000    
      4228 HPTSH    1        HPTSH    O1       OD2C2B    1.94200       15.5994           0 -0.626200       1.08300    
      4229 HPTSH    1        HPTSH    DO1      DRUD     -1.94200      0.400000           0   0.00000       0.00000    
      4230 HPTSH    1        HPTSH    O2       OD2C2B    1.94200       15.5994           0 -0.626200       1.08300    
      4231 HPTSH    1        HPTSH    DO2      DRUD     -1.94200      0.400000           0   0.00000       0.00000    
      4232 HPTSH    1        HPTSH    O3       OD2C2B    1.94200       15.5994           0 -0.626200       1.08300    
      4233 HPTSH    1        HPTSH    DO3      DRUD     -1.94200      0.400000           0   0.00000       0.00000    
      4234 HPTSH    1        HPTSH    S2       SD30A     3.80320       31.6600           0  -1.20700       1.30000    
      4235 HPTSH    1        HPTSH    DS2      DRUD     -2.69620      0.400000           0   0.00000       0.00000    
      4236 HPTSH    1        HPTSH    O4       OD2C2B    1.94640       15.5994           0 -0.629000       1.08300    
      4237 HPTSH    1        HPTSH    DO4      DRUD     -1.94640      0.400000           0   0.00000       0.00000    
      4238 HPTSH    1        HPTSH    O5       OD2C2B    1.94640       15.5994           0 -0.629000       1.08300    
      4239 HPTSH    1        HPTSH    DO5      DRUD     -1.94640      0.400000           0   0.00000       0.00000    
      4240 HPTSH    1        HPTSH    O6       OD2C2B    1.94640       15.5994           0 -0.629000       1.08300    
      4241 HPTSH    1        HPTSH    DO6      DRUD     -1.94640      0.400000           0   0.00000       0.00000    
      4242 HPTSH    1        HPTSH    C9       CD2R6A    2.22530       11.6110           0 -0.919500       1.27010    
      4243 HPTSH    1        HPTSH    DC9      DRUD     -2.35330      0.400000           0   0.00000       0.00000    
      4244 HPTSH    1        HPTSH    C10      CD2R6A    2.25320       11.6110           0 -0.984600       1.27010    
      4245 HPTSH    1        HPTSH    DC10     DRUD     -2.43520      0.400000           0   0.00000       0.00000    
      4246 HPTSH    1        HPTSH    C11      CD2R6A    2.53320       11.6110           0 -0.962900       1.27010    
      4247 HPTSH    1        HPTSH    DC11     DRUD     -2.40820      0.400000           0   0.00000       0.00000    
      4248 HPTSH    1        HPTSH    C12      CD2R6A    2.40450       11.6110           0  -1.08600       1.27010    
      4249 HPTSH    1        HPTSH    DC12     DRUD     -2.55750      0.400000           0   0.00000       0.00000    
      4250 HPTSH    1        HPTSH    C13      CD2R6A    2.15590       11.6110           0 -0.941200       1.27010    
      4251 HPTSH    1        HPTSH    DC13     DRUD     -2.38090      0.400000           0   0.00000       0.00000    
      4252 HPTSH    1        HPTSH    C14      CD2R6A    2.48350       11.6110           0 -0.883300       1.27010    
      4253 HPTSH    1        HPTSH    DC14     DRUD     -2.30650      0.400000           0   0.00000       0.00000    
      4254 HPTSH    1        HPTSH    C15      CD2R6A    2.49900       11.6110           0  -1.00640       1.27010    
      4255 HPTSH    1        HPTSH    DC15     DRUD     -2.46200      0.400000           0   0.00000       0.00000    
      4256 HPTSH    1        HPTSH    C16      CD2R6A    2.40300       11.6110           0  -1.00640       1.27010    
      4257 HPTSH    1        HPTSH    DC16     DRUD     -2.46200      0.400000           0   0.00000       0.00000    
      4258 HPTSH    1        HPTSH    O7       OD31A     2.41700       15.5990           0 -0.970000      0.749400    
      4259 HPTSH    1        HPTSH    DO7      DRUD     -2.41700      0.400000           0   0.00000       0.00000    
      4260 HPTSH    1        HPTSH    S3       SD30A     3.54280       31.6600           0 -0.943500       1.30000    
      4261 HPTSH    1        HPTSH    DS3      DRUD     -2.38380      0.400000           0   0.00000       0.00000    
      4262 HPTSH    1        HPTSH    O8       OD2C2B    1.95070       15.5994           0 -0.631800       1.08300    
      4263 HPTSH    1        HPTSH    DO8      DRUD     -1.95070      0.400000           0   0.00000       0.00000    
      4264 HPTSH    1        HPTSH    O9       OD2C2B    1.95070       15.5994           0 -0.631800       1.08300    
      4265 HPTSH    1        HPTSH    DO9      DRUD     -1.95070      0.400000           0   0.00000       0.00000    
      4266 HPTSH    1        HPTSH    O10      OD2C2B    1.95070       15.5994           0 -0.631800       1.08300    
      4267 HPTSH    1        HPTSH    DO10     DRUD     -1.95070      0.400000           0   0.00000       0.00000    
      4268 HPTSH    1        HPTSH    H1       HDR6A    0.830000E-01   1.00800           0   0.00000       0.00000    
      4269 HPTSH    1        HPTSH    H2       HDR6A    0.122000       1.00800           0   0.00000       0.00000    
      4270 HPTSH    1        HPTSH    H3       HDR6A    0.840000E-01   1.00800           0   0.00000       0.00000    
      4271 HPTSH    1        HPTSH    H4       HDR6A    0.120000       1.00800           0   0.00000       0.00000    
      4272 HPTSH    1        HPTSH    H5       HDR6A    0.118000       1.00800           0   0.00000       0.00000    
      4273 HPTSH    1        HPTSH    H6       HDR6A    0.100000       1.00800           0   0.00000       0.00000    
      4274 HPTSH    1        HPTSH    H7       HDP1A    0.371000       1.00800           0   0.00000       0.00000    
      4275 HPTSH    1        HPTSH    LPO11    LPDO1   -0.340000       0.00000          -1   0.00000       0.00000    
      4276 HPTSH    1        HPTSH    LPO12    LPDO1   -0.340000       0.00000          -1   0.00000       0.00000    
      4277 HPTSH    1        HPTSH    LPO21    LPDO1   -0.317000       0.00000          -1   0.00000       0.00000    
      4278 HPTSH    1        HPTSH    LPO22    LPDO1   -0.317000       0.00000          -1   0.00000       0.00000    
      4279 HPTSH    1        HPTSH    LPO31    LPDO1   -0.339000       0.00000          -1   0.00000       0.00000    
      4280 HPTSH    1        HPTSH    LPO32    LPDO1   -0.339000       0.00000          -1   0.00000       0.00000    
      4281 HPTSH    1        HPTSH    LPO41    LPDO1   -0.317000       0.00000          -1   0.00000       0.00000    
      4282 HPTSH    1        HPTSH    LPO42    LPDO1   -0.317000       0.00000          -1   0.00000       0.00000    
      4283 HPTSH    1        HPTSH    LPO51    LPDO1   -0.331000       0.00000          -1   0.00000       0.00000    
      4284 HPTSH    1        HPTSH    LPO52    LPDO1   -0.331000       0.00000          -1   0.00000       0.00000    
      4285 HPTSH    1        HPTSH    LPO61    LPDO1   -0.332000       0.00000          -1   0.00000       0.00000    
      4286 HPTSH    1        HPTSH    LPO62    LPDO1   -0.332000       0.00000          -1   0.00000       0.00000    
      4287 HPTSH    1        HPTSH    LPO71    LPD     -0.277000       0.00000          -1   0.00000       0.00000    
      4288 HPTSH    1        HPTSH    LPO72    LPD     -0.277000       0.00000          -1   0.00000       0.00000    
      4289 HPTSH    1        HPTSH    LPO81    LPDO1   -0.338000       0.00000          -1   0.00000       0.00000    
      4290 HPTSH    1        HPTSH    LPO82    LPDO1   -0.338000       0.00000          -1   0.00000       0.00000    
      4291 HPTSH    1        HPTSH    LPO91    LPDO1   -0.332000       0.00000          -1   0.00000       0.00000    
      4292 HPTSH    1        HPTSH    LPO92    LPDO1   -0.332000       0.00000          -1   0.00000       0.00000    
      4293 HPTSH    1        HPTSH    LPO101   LPDO1   -0.332000       0.00000          -1   0.00000       0.00000    
      4294 HPTSH    1        HPTSH    LPO102   LPDO1   -0.332000       0.00000          -1   0.00000       0.00000    
      4295 HPTSH    2        HPTSH    C1       CD2R6A    2.38940       11.6110           0  -1.07150       1.27010    
      4296 HPTSH    2        HPTSH    DC1      DRUD     -2.54040      0.400000           0   0.00000       0.00000    
      4297 HPTSH    2        HPTSH    C2       CD2R6A    2.25620       11.6110           0 -0.977400       1.27010    
      4298 HPTSH    2        HPTSH    DC2      DRUD     -2.42620      0.400000           0   0.00000       0.00000    
      4299 HPTSH    2        HPTSH    C3       CD2R6A    2.56530       11.6110           0 -0.970200       1.27010    
      4300 HPTSH    2        HPTSH    DC3      DRUD     -2.41730      0.400000           0   0.00000       0.00000    
      4301 HPTSH    2        HPTSH    C4       CD2R6A    2.45810       11.6110           0  -1.03530       1.27010    
      4302 HPTSH    2        HPTSH    DC4      DRUD     -2.49710      0.400000           0   0.00000       0.00000    
      4303 HPTSH    2        HPTSH    C5       CD2R6A    2.62580       11.6110           0  -1.06430       1.27010    
      4304 HPTSH    2        HPTSH    DC5      DRUD     -2.53180      0.400000           0   0.00000       0.00000    
      4305 HPTSH    2        HPTSH    C6       CD2R6A    2.62820       11.6110           0  -1.28150       1.27010    
      4306 HPTSH    2        HPTSH    DC6      DRUD     -2.77820      0.400000           0   0.00000       0.00000    
      4307 HPTSH    2        HPTSH    C7       CD2R6A    2.26890       11.6110           0 -0.876000       1.27010    
      4308 HPTSH    2        HPTSH    DC7      DRUD     -2.29690      0.400000           0   0.00000       0.00000    
      4309 HPTSH    2        HPTSH    C8       CD2R6A    2.42910       11.6110           0  -1.12940       1.27010    
      4310 HPTSH    2        HPTSH    DC8      DRUD     -2.60810      0.400000           0   0.00000       0.00000    
      4311 HPTSH    2        HPTSH    S1       SD30A     3.50200       31.6600           0 -0.935000       1.30000    
      4312 HPTSH    2        HPTSH    DS1      DRUD     -2.37300      0.400000           0   0.00000       0.00000    
      4313 HPTSH    2        HPTSH    O1       OD2C2B    1.94200       15.5994           0 -0.626200       1.08300    
      4314 HPTSH    2        HPTSH    DO1      DRUD     -1.94200      0.400000           0   0.00000       0.00000    
      4315 HPTSH    2        HPTSH    O2       OD2C2B    1.94200       15.5994           0 -0.626200       1.08300    
      4316 HPTSH    2        HPTSH    DO2      DRUD     -1.94200      0.400000           0   0.00000       0.00000    
      4317 HPTSH    2        HPTSH    O3       OD2C2B    1.94200       15.5994           0 -0.626200       1.08300    
      4318 HPTSH    2        HPTSH    DO3      DRUD     -1.94200      0.400000           0   0.00000       0.00000    
      4319 HPTSH    2        HPTSH    S2       SD30A     3.80320       31.6600           0  -1.20700       1.30000    
      4320 HPTSH    2        HPTSH    DS2      DRUD     -2.69620      0.400000           0   0.00000       0.00000    
      4321 HPTSH    2        HPTSH    O4       OD2C2B    1.94640       15.5994           0 -0.629000       1.08300    
      4322 HPTSH    2        HPTSH    DO4      DRUD     -1.94640      0.400000           0   0.00000       0.00000    
      4323 HPTSH    2        HPTSH    O5       OD2C2B    1.94640       15.5994           0 -0.629000       1.08300    
      4324 HPTSH    2        HPTSH    DO5      DRUD     -1.94640      0.400000           0   0.00000       0.00000    
      4325 HPTSH    2        HPTSH    O6       OD2C2B    1.94640       15.5994           0 -0.629000       1.08300    
      4326 HPTSH    2        HPTSH    DO6      DRUD     -1.94640      0.400000           0   0.00000       0.00000    
      4327 HPTSH    2        HPTSH    C9       CD2R6A    2.22530       11.6110           0 -0.919500       1.27010    
      4328 HPTSH    2        HPTSH    DC9      DRUD     -2.35330      0.400000           0   0.00000       0.00000    
      4329 HPTSH    2        HPTSH    C10      CD2R6A    2.25320       11.6110           0 -0.984600       1.27010    
      4330 HPTSH    2        HPTSH    DC10     DRUD     -2.43520      0.400000           0   0.00000       0.00000    
      4331 HPTSH    2        HPTSH    C11      CD2R6A    2.53320       11.6110           0 -0.962900       1.27010    
      4332 HPTSH    2        HPTSH    DC11     DRUD     -2.40820      0.400000           0   0.00000       0.00000    
      4333 HPTSH    2        HPTSH    C12      CD2R6A    2.40450       11.6110           0  -1.08600       1.27010    
      4334 HPTSH    2        HPTSH    DC12     DRUD     -2.55750      0.400000           0   0.00000       0.00000    
      4335 HPTSH    2        HPTSH    C13      CD2R6A    2.15590       11.6110           0 -0.941200       1.27010    
      4336 HPTSH    2        HPTSH    DC13     DRUD     -2.38090      0.400000           0   0.00000       0.00000    
      4337 HPTSH    2        HPTSH    C14      CD2R6A    2.48350       11.6110           0 -0.883300       1.27010    
      4338 HPTSH    2        HPTSH    DC14     DRUD     -2.30650      0.400000           0   0.00000       0.00000    
      4339 HPTSH    2        HPTSH    C15      CD2R6A    2.49900       11.6110           0  -1.00640       1.27010    
      4340 HPTSH    2        HPTSH    DC15     DRUD     -2.46200      0.400000           0   0.00000       0.00000    
      4341 HPTSH    2        HPTSH    C16      CD2R6A    2.40300       11.6110           0  -1.00640       1.27010    
      4342 HPTSH    2        HPTSH    DC16     DRUD     -2.46200      0.400000           0   0.00000       0.00000    
      4343 HPTSH    2        HPTSH    O7       OD31A     2.41700       15.5990           0 -0.970000      0.749400    
      4344 HPTSH    2        HPTSH    DO7      DRUD     -2.41700      0.400000           0   0.00000       0.00000    
      4345 HPTSH    2        HPTSH    S3       SD30A     3.54280       31.6600           0 -0.943500       1.30000    
      4346 HPTSH    2        HPTSH    DS3      DRUD     -2.38380      0.400000           0   0.00000       0.00000    
      4347 HPTSH    2        HPTSH    O8       OD2C2B    1.95070       15.5994           0 -0.631800       1.08300    
      4348 HPTSH    2        HPTSH    DO8      DRUD     -1.95070      0.400000           0   0.00000       0.00000    
      4349 HPTSH    2        HPTSH    O9       OD2C2B    1.95070       15.5994           0 -0.631800       1.08300    
      4350 HPTSH    2        HPTSH    DO9      DRUD     -1.95070      0.400000           0   0.00000       0.00000    
      4351 HPTSH    2        HPTSH    O10      OD2C2B    1.95070       15.5994           0 -0.631800       1.08300    
      4352 HPTSH    2        HPTSH    DO10     DRUD     -1.95070      0.400000           0   0.00000       0.00000    
      4353 HPTSH    2        HPTSH    H1       HDR6A    0.830000E-01   1.00800           0   0.00000       0.00000    
      4354 HPTSH    2        HPTSH    H2       HDR6A    0.122000       1.00800           0   0.00000       0.00000    
      4355 HPTSH    2        HPTSH    H3       HDR6A    0.840000E-01   1.00800           0   0.00000       0.00000    
      4356 HPTSH    2        HPTSH    H4       HDR6A    0.120000       1.00800           0   0.00000       0.00000    
      4357 HPTSH    2        HPTSH    H5       HDR6A    0.118000       1.00800           0   0.00000       0.00000    
      4358 HPTSH    2        HPTSH    H6       HDR6A    0.100000       1.00800           0   0.00000       0.00000    
      4359 HPTSH    2        HPTSH    H7       HDP1A    0.371000       1.00800           0   0.00000       0.00000    
      4360 HPTSH    2        HPTSH    LPO11    LPDO1   -0.340000       0.00000          -1   0.00000       0.00000    
      4361 HPTSH    2        HPTSH    LPO12    LPDO1   -0.340000       0.00000          -1   0.00000       0.00000    
      4362 HPTSH    2        HPTSH    LPO21    LPDO1   -0.317000       0.00000          -1   0.00000       0.00000    
      4363 HPTSH    2        HPTSH    LPO22    LPDO1   -0.317000       0.00000          -1   0.00000       0.00000    
      4364 HPTSH    2        HPTSH    LPO31    LPDO1   -0.339000       0.00000          -1   0.00000       0.00000    
      4365 HPTSH    2        HPTSH    LPO32    LPDO1   -0.339000       0.00000          -1   0.00000       0.00000    
      4366 HPTSH    2        HPTSH    LPO41    LPDO1   -0.317000       0.00000          -1   0.00000       0.00000    
      4367 HPTSH    2        HPTSH    LPO42    LPDO1   -0.317000       0.00000          -1   0.00000       0.00000    
      4368 HPTSH    2        HPTSH    LPO51    LPDO1   -0.331000       0.00000          -1   0.00000       0.00000    
      4369 HPTSH    2        HPTSH    LPO52    LPDO1   -0.331000       0.00000          -1   0.00000       0.00000    
      4370 HPTSH    2        HPTSH    LPO61    LPDO1   -0.332000       0.00000          -1   0.00000       0.00000    
      4371 HPTSH    2        HPTSH    LPO62    LPDO1   -0.332000       0.00000          -1   0.00000       0.00000    
      4372 HPTSH    2        HPTSH    LPO71    LPD     -0.277000       0.00000          -1   0.00000       0.00000    
      4373 HPTSH    2        HPTSH    LPO72    LPD     -0.277000       0.00000          -1   0.00000       0.00000    
      4374 HPTSH    2        HPTSH    LPO81    LPDO1   -0.338000       0.00000          -1   0.00000       0.00000    
      4375 HPTSH    2        HPTSH    LPO82    LPDO1   -0.338000       0.00000          -1   0.00000       0.00000    
      4376 HPTSH    2        HPTSH    LPO91    LPDO1   -0.332000       0.00000          -1   0.00000       0.00000    
      4377 HPTSH    2        HPTSH    LPO92    LPDO1   -0.332000       0.00000          -1   0.00000       0.00000    
      4378 HPTSH    2        HPTSH    LPO101   LPDO1   -0.332000       0.00000          -1   0.00000       0.00000    
      4379 HPTSH    2        HPTSH    LPO102   LPDO1   -0.332000       0.00000          -1   0.00000       0.00000    
      4380 HPTSH    3        HPTSH    C1       CD2R6A    2.38940       11.6110           0  -1.07150       1.27010    
      4381 HPTSH    3        HPTSH    DC1      DRUD     -2.54040      0.400000           0   0.00000       0.00000    
      4382 HPTSH    3        HPTSH    C2       CD2R6A    2.25620       11.6110           0 -0.977400       1.27010    
      4383 HPTSH    3        HPTSH    DC2      DRUD     -2.42620      0.400000           0   0.00000       0.00000    
      4384 HPTSH    3        HPTSH    C3       CD2R6A    2.56530       11.6110           0 -0.970200       1.27010    
      4385 HPTSH    3        HPTSH    DC3      DRUD     -2.41730      0.400000           0   0.00000       0.00000    
      4386 HPTSH    3        HPTSH    C4       CD2R6A    2.45810       11.6110           0  -1.03530       1.27010    
      4387 HPTSH    3        HPTSH    DC4      DRUD     -2.49710      0.400000           0   0.00000       0.00000    
      4388 HPTSH    3        HPTSH    C5       CD2R6A    2.62580       11.6110           0  -1.06430       1.27010    
      4389 HPTSH    3        HPTSH    DC5      DRUD     -2.53180      0.400000           0   0.00000       0.00000    
      4390 HPTSH    3        HPTSH    C6       CD2R6A    2.62820       11.6110           0  -1.28150       1.27010    
      4391 HPTSH    3        HPTSH    DC6      DRUD     -2.77820      0.400000           0   0.00000       0.00000    
      4392 HPTSH    3        HPTSH    C7       CD2R6A    2.26890       11.6110           0 -0.876000       1.27010    
      4393 HPTSH    3        HPTSH    DC7      DRUD     -2.29690      0.400000           0   0.00000       0.00000    
      4394 HPTSH    3        HPTSH    C8       CD2R6A    2.42910       11.6110           0  -1.12940       1.27010    
      4395 HPTSH    3        HPTSH    DC8      DRUD     -2.60810      0.400000           0   0.00000       0.00000    
      4396 HPTSH    3        HPTSH    S1       SD30A     3.50200       31.6600           0 -0.935000       1.30000    
      4397 HPTSH    3        HPTSH    DS1      DRUD     -2.37300      0.400000           0   0.00000       0.00000    
      4398 HPTSH    3        HPTSH    O1       OD2C2B    1.94200       15.5994           0 -0.626200       1.08300    
      4399 HPTSH    3        HPTSH    DO1      DRUD     -1.94200      0.400000           0   0.00000       0.00000    
      4400 HPTSH    3        HPTSH    O2       OD2C2B    1.94200       15.5994           0 -0.626200       1.08300    
      4401 HPTSH    3        HPTSH    DO2      DRUD     -1.94200      0.400000           0   0.00000       0.00000    
      4402 HPTSH    3        HPTSH    O3       OD2C2B    1.94200       15.5994           0 -0.626200       1.08300    
      4403 HPTSH    3        HPTSH    DO3      DRUD     -1.94200      0.400000           0   0.00000       0.00000    
      4404 HPTSH    3        HPTSH    S2       SD30A     3.80320       31.6600           0  -1.20700       1.30000    
      4405 HPTSH    3        HPTSH    DS2      DRUD     -2.69620      0.400000           0   0.00000       0.00000    
      4406 HPTSH    3        HPTSH    O4       OD2C2B    1.94640       15.5994           0 -0.629000       1.08300    
      4407 HPTSH    3        HPTSH    DO4      DRUD     -1.94640      0.400000           0   0.00000       0.00000    
      4408 HPTSH    3        HPTSH    O5       OD2C2B    1.94640       15.5994           0 -0.629000       1.08300    
      4409 HPTSH    3        HPTSH    DO5      DRUD     -1.94640      0.400000           0   0.00000       0.00000    
      4410 HPTSH    3        HPTSH    O6       OD2C2B    1.94640       15.5994           0 -0.629000       1.08300    
      4411 HPTSH    3        HPTSH    DO6      DRUD     -1.94640      0.400000           0   0.00000       0.00000    
      4412 HPTSH    3        HPTSH    C9       CD2R6A    2.22530       11.6110           0 -0.919500       1.27010    
      4413 HPTSH    3        HPTSH    DC9      DRUD     -2.35330      0.400000           0   0.00000       0.00000    
      4414 HPTSH    3        HPTSH    C10      CD2R6A    2.25320       11.6110           0 -0.984600       1.27010    
      4415 HPTSH    3        HPTSH    DC10     DRUD     -2.43520      0.400000           0   0.00000       0.00000    
      4416 HPTSH    3        HPTSH    C11      CD2R6A    2.53320       11.6110           0 -0.962900       1.27010    
      4417 HPTSH    3        HPTSH    DC11     DRUD     -2.40820      0.400000           0   0.00000       0.00000    
      4418 HPTSH    3        HPTSH    C12      CD2R6A    2.40450       11.6110           0  -1.08600       1.27010    
      4419 HPTSH    3        HPTSH    DC12     DRUD     -2.55750      0.400000           0   0.00000       0.00000    
      4420 HPTSH    3        HPTSH    C13      CD2R6A    2.15590       11.6110           0 -0.941200       1.27010    
      4421 HPTSH    3        HPTSH    DC13     DRUD     -2.38090      0.400000           0   0.00000       0.00000    
      4422 HPTSH    3        HPTSH    C14      CD2R6A    2.48350       11.6110           0 -0.883300       1.27010    
      4423 HPTSH    3        HPTSH    DC14     DRUD     -2.30650      0.400000           0   0.00000       0.00000    
      4424 HPTSH    3        HPTSH    C15      CD2R6A    2.49900       11.6110           0  -1.00640       1.27010    
      4425 HPTSH    3        HPTSH    DC15     DRUD     -2.46200      0.400000           0   0.00000       0.00000    
      4426 HPTSH    3        HPTSH    C16      CD2R6A    2.40300       11.6110           0  -1.00640       1.27010    
      4427 HPTSH    3        HPTSH    DC16     DRUD     -2.46200      0.400000           0   0.00000       0.00000    
      4428 HPTSH    3        HPTSH    O7       OD31A     2.41700       15.5990           0 -0.970000      0.749400    
      4429 HPTSH    3        HPTSH    DO7      DRUD     -2.41700      0.400000           0   0.00000       0.00000    
      4430 HPTSH    3        HPTSH    S3       SD30A     3.54280       31.6600           0 -0.943500       1.30000    
      4431 HPTSH    3        HPTSH    DS3      DRUD     -2.38380      0.400000           0   0.00000       0.00000    
      4432 HPTSH    3        HPTSH    O8       OD2C2B    1.95070       15.5994           0 -0.631800       1.08300    
      4433 HPTSH    3        HPTSH    DO8      DRUD     -1.95070      0.400000           0   0.00000       0.00000    
      4434 HPTSH    3        HPTSH    O9       OD2C2B    1.95070       15.5994           0 -0.631800       1.08300    
      4435 HPTSH    3        HPTSH    DO9      DRUD     -1.95070      0.400000           0   0.00000       0.00000    
      4436 HPTSH    3        HPTSH    O10      OD2C2B    1.95070       15.5994           0 -0.631800       1.08300    
      4437 HPTSH    3        HPTSH    DO10     DRUD     -1.95070      0.400000           0   0.00000       0.00000    
      4438 HPTSH    3        HPTSH    H1       HDR6A    0.830000E-01   1.00800           0   0.00000       0.00000    
      4439 HPTSH    3        HPTSH    H2       HDR6A    0.122000       1.00800           0   0.00000       0.00000    
      4440 HPTSH    3        HPTSH    H3       HDR6A    0.840000E-01   1.00800           0   0.00000       0.00000    
      4441 HPTSH    3        HPTSH    H4       HDR6A    0.120000       1.00800           0   0.00000       0.00000    
      4442 HPTSH    3        HPTSH    H5       HDR6A    0.118000       1.00800           0   0.00000       0.00000    
      4443 HPTSH    3        HPTSH    H6       HDR6A    0.100000       1.00800           0   0.00000       0.00000    
      4444 HPTSH    3        HPTSH    H7       HDP1A    0.371000       1.00800           0   0.00000       0.00000    
      4445 HPTSH    3        HPTSH    LPO11    LPDO1   -0.340000       0.00000          -1   0.00000       0.00000    
      4446 HPTSH    3        HPTSH    LPO12    LPDO1   -0.340000       0.00000          -1   0.00000       0.00000    
      4447 HPTSH    3        HPTSH    LPO21    LPDO1   -0.317000       0.00000          -1   0.00000       0.00000    
      4448 HPTSH    3        HPTSH    LPO22    LPDO1   -0.317000       0.00000          -1   0.00000       0.00000    
      4449 HPTSH    3        HPTSH    LPO31    LPDO1   -0.339000       0.00000          -1   0.00000       0.00000    
      4450 HPTSH    3        HPTSH    LPO32    LPDO1   -0.339000       0.00000          -1   0.00000       0.00000    
      4451 HPTSH    3        HPTSH    LPO41    LPDO1   -0.317000       0.00000          -1   0.00000       0.00000    
      4452 HPTSH    3        HPTSH    LPO42    LPDO1   -0.317000       0.00000          -1   0.00000       0.00000    
      4453 HPTSH    3        HPTSH    LPO51    LPDO1   -0.331000       0.00000          -1   0.00000       0.00000    
      4454 HPTSH    3        HPTSH    LPO52    LPDO1   -0.331000       0.00000          -1   0.00000       0.00000    
      4455 HPTSH    3        HPTSH    LPO61    LPDO1   -0.332000       0.00000          -1   0.00000       0.00000    
      4456 HPTSH    3        HPTSH    LPO62    LPDO1   -0.332000       0.00000          -1   0.00000       0.00000    
      4457 HPTSH    3        HPTSH    LPO71    LPD     -0.277000       0.00000          -1   0.00000       0.00000    
      4458 HPTSH    3        HPTSH    LPO72    LPD     -0.277000       0.00000          -1   0.00000       0.00000    
      4459 HPTSH    3        HPTSH    LPO81    LPDO1   -0.338000       0.00000          -1   0.00000       0.00000    
      4460 HPTSH    3        HPTSH    LPO82    LPDO1   -0.338000       0.00000          -1   0.00000       0.00000    
      4461 HPTSH    3        HPTSH    LPO91    LPDO1   -0.332000       0.00000          -1   0.00000       0.00000    
      4462 HPTSH    3        HPTSH    LPO92    LPDO1   -0.332000       0.00000          -1   0.00000       0.00000    
      4463 HPTSH    3        HPTSH    LPO101   LPDO1   -0.332000       0.00000          -1   0.00000       0.00000    
      4464 HPTSH    3        HPTSH    LPO102   LPDO1   -0.332000       0.00000          -1   0.00000       0.00000    
      4465 HPTSH    4        HPTSH    C1       CD2R6A    2.38940       11.6110           0  -1.07150       1.27010    
      4466 HPTSH    4        HPTSH    DC1      DRUD     -2.54040      0.400000           0   0.00000       0.00000    
      4467 HPTSH    4        HPTSH    C2       CD2R6A    2.25620       11.6110           0 -0.977400       1.27010    
      4468 HPTSH    4        HPTSH    DC2      DRUD     -2.42620      0.400000           0   0.00000       0.00000    
      4469 HPTSH    4        HPTSH    C3       CD2R6A    2.56530       11.6110           0 -0.970200       1.27010    
      4470 HPTSH    4        HPTSH    DC3      DRUD     -2.41730      0.400000           0   0.00000       0.00000    
      4471 HPTSH    4        HPTSH    C4       CD2R6A    2.45810       11.6110           0  -1.03530       1.27010    
      4472 HPTSH    4        HPTSH    DC4      DRUD     -2.49710      0.400000           0   0.00000       0.00000    
      4473 HPTSH    4        HPTSH    C5       CD2R6A    2.62580       11.6110           0  -1.06430       1.27010    
      4474 HPTSH    4        HPTSH    DC5      DRUD     -2.53180      0.400000           0   0.00000       0.00000    
      4475 HPTSH    4        HPTSH    C6       CD2R6A    2.62820       11.6110           0  -1.28150       1.27010    
      4476 HPTSH    4        HPTSH    DC6      DRUD     -2.77820      0.400000           0   0.00000       0.00000    
      4477 HPTSH    4        HPTSH    C7       CD2R6A    2.26890       11.6110           0 -0.876000       1.27010    
      4478 HPTSH    4        HPTSH    DC7      DRUD     -2.29690      0.400000           0   0.00000       0.00000    
      4479 HPTSH    4        HPTSH    C8       CD2R6A    2.42910       11.6110           0  -1.12940       1.27010    
      4480 HPTSH    4        HPTSH    DC8      DRUD     -2.60810      0.400000           0   0.00000       0.00000    
      4481 HPTSH    4        HPTSH    S1       SD30A     3.50200       31.6600           0 -0.935000       1.30000    
      4482 HPTSH    4        HPTSH    DS1      DRUD     -2.37300      0.400000           0   0.00000       0.00000    
      4483 HPTSH    4        HPTSH    O1       OD2C2B    1.94200       15.5994           0 -0.626200       1.08300    
      4484 HPTSH    4        HPTSH    DO1      DRUD     -1.94200      0.400000           0   0.00000       0.00000    
      4485 HPTSH    4        HPTSH    O2       OD2C2B    1.94200       15.5994           0 -0.626200       1.08300    
      4486 HPTSH    4        HPTSH    DO2      DRUD     -1.94200      0.400000           0   0.00000       0.00000    
      4487 HPTSH    4        HPTSH    O3       OD2C2B    1.94200       15.5994           0 -0.626200       1.08300    
      4488 HPTSH    4        HPTSH    DO3      DRUD     -1.94200      0.400000           0   0.00000       0.00000    
      4489 HPTSH    4        HPTSH    S2       SD30A     3.80320       31.6600           0  -1.20700       1.30000    
      4490 HPTSH    4        HPTSH    DS2      DRUD     -2.69620      0.400000           0   0.00000       0.00000    
      4491 HPTSH    4        HPTSH    O4       OD2C2B    1.94640       15.5994           0 -0.629000       1.08300    
      4492 HPTSH    4        HPTSH    DO4      DRUD     -1.94640      0.400000           0   0.00000       0.00000    
      4493 HPTSH    4        HPTSH    O5       OD2C2B    1.94640       15.5994           0 -0.629000       1.08300    
      4494 HPTSH    4        HPTSH    DO5      DRUD     -1.94640      0.400000           0   0.00000       0.00000    
      4495 HPTSH    4        HPTSH    O6       OD2C2B    1.94640       15.5994           0 -0.629000       1.08300    
      4496 HPTSH    4        HPTSH    DO6      DRUD     -1.94640      0.400000           0   0.00000       0.00000    
      4497 HPTSH    4        HPTSH    C9       CD2R6A    2.22530       11.6110           0 -0.919500       1.27010    
      4498 HPTSH    4        HPTSH    DC9      DRUD     -2.35330      0.400000           0   0.00000       0.00000    
      4499 HPTSH    4        HPTSH    C10      CD2R6A    2.25320       11.6110           0 -0.984600       1.27010    
      4500 HPTSH    4        HPTSH    DC10     DRUD     -2.43520      0.400000           0   0.00000       0.00000    
      4501 HPTSH    4        HPTSH    C11      CD2R6A    2.53320       11.6110           0 -0.962900       1.27010    
      4502 HPTSH    4        HPTSH    DC11     DRUD     -2.40820      0.400000           0   0.00000       0.00000    
      4503 HPTSH    4        HPTSH    C12      CD2R6A    2.40450       11.6110           0  -1.08600       1.27010    
      4504 HPTSH    4        HPTSH    DC12     DRUD     -2.55750      0.400000           0   0.00000       0.00000    
      4505 HPTSH    4        HPTSH    C13      CD2R6A    2.15590       11.6110           0 -0.941200       1.27010    
      4506 HPTSH    4        HPTSH    DC13     DRUD     -2.38090      0.400000           0   0.00000       0.00000    
      4507 HPTSH    4        HPTSH    C14      CD2R6A    2.48350       11.6110           0 -0.883300       1.27010    
      4508 HPTSH    4        HPTSH    DC14     DRUD     -2.30650      0.400000           0   0.00000       0.00000    
      4509 HPTSH    4        HPTSH    C15      CD2R6A    2.49900       11.6110           0  -1.00640       1.27010    
      4510 HPTSH    4        HPTSH    DC15     DRUD     -2.46200      0.400000           0   0.00000       0.00000    
      4511 HPTSH    4        HPTSH    C16      CD2R6A    2.40300       11.6110           0  -1.00640       1.27010    
      4512 HPTSH    4        HPTSH    DC16     DRUD     -2.46200      0.400000           0   0.00000       0.00000    
      4513 HPTSH    4        HPTSH    O7       OD31A     2.41700       15.5990           0 -0.970000      0.749400    
      4514 HPTSH    4        HPTSH    DO7      DRUD     -2.41700      0.400000           0   0.00000       0.00000    
      4515 HPTSH    4        HPTSH    S3       SD30A     3.54280       31.6600           0 -0.943500       1.30000    
      4516 HPTSH    4        HPTSH    DS3      DRUD     -2.38380      0.400000           0   0.00000       0.00000    
      4517 HPTSH    4        HPTSH    O8       OD2C2B    1.95070       15.5994           0 -0.631800       1.08300    
      4518 HPTSH    4        HPTSH    DO8      DRUD     -1.95070      0.400000           0   0.00000       0.00000    
      4519 HPTSH    4        HPTSH    O9       OD2C2B    1.95070       15.5994           0 -0.631800       1.08300    
      4520 HPTSH    4        HPTSH    DO9      DRUD     -1.95070      0.400000           0   0.00000       0.00000    
      4521 HPTSH    4        HPTSH    O10      OD2C2B    1.95070       15.5994           0 -0.631800       1.08300    
      4522 HPTSH    4        HPTSH    DO10     DRUD     -1.95070      0.400000           0   0.00000       0.00000    
      4523 HPTSH    4        HPTSH    H1       HDR6A    0.830000E-01   1.00800           0   0.00000       0.00000    
      4524 HPTSH    4        HPTSH    H2       HDR6A    0.122000       1.00800           0   0.00000       0.00000    
      4525 HPTSH    4        HPTSH    H3       HDR6A    0.840000E-01   1.00800           0   0.00000       0.00000    
      4526 HPTSH    4        HPTSH    H4       HDR6A    0.120000       1.00800           0   0.00000       0.00000    
      4527 HPTSH    4        HPTSH    H5       HDR6A    0.118000       1.00800           0   0.00000       0.00000    
      4528 HPTSH    4        HPTSH    H6       HDR6A    0.100000       1.00800           0   0.00000       0.00000    
      4529 HPTSH    4        HPTSH    H7       HDP1A    0.371000       1.00800           0   0.00000       0.00000    
      4530 HPTSH    4        HPTSH    LPO11    LPDO1   -0.340000       0.00000          -1   0.00000       0.00000    
      4531 HPTSH    4        HPTSH    LPO12    LPDO1   -0.340000       0.00000          -1   0.00000       0.00000    
      4532 HPTSH    4        HPTSH    LPO21    LPDO1   -0.317000       0.00000          -1   0.00000       0.00000    
      4533 HPTSH    4        HPTSH    LPO22    LPDO1   -0.317000       0.00000          -1   0.00000       0.00000    
      4534 HPTSH    4        HPTSH    LPO31    LPDO1   -0.339000       0.00000          -1   0.00000       0.00000    
      4535 HPTSH    4        HPTSH    LPO32    LPDO1   -0.339000       0.00000          -1   0.00000       0.00000    
      4536 HPTSH    4        HPTSH    LPO41    LPDO1   -0.317000       0.00000          -1   0.00000       0.00000    
      4537 HPTSH    4        HPTSH    LPO42    LPDO1   -0.317000       0.00000          -1   0.00000       0.00000    
      4538 HPTSH    4        HPTSH    LPO51    LPDO1   -0.331000       0.00000          -1   0.00000       0.00000    
      4539 HPTSH    4        HPTSH    LPO52    LPDO1   -0.331000       0.00000          -1   0.00000       0.00000    
      4540 HPTSH    4        HPTSH    LPO61    LPDO1   -0.332000       0.00000          -1   0.00000       0.00000    
      4541 HPTSH    4        HPTSH    LPO62    LPDO1   -0.332000       0.00000          -1   0.00000       0.00000    
      4542 HPTSH    4        HPTSH    LPO71    LPD     -0.277000       0.00000          -1   0.00000       0.00000    
      4543 HPTSH    4        HPTSH    LPO72    LPD     -0.277000       0.00000          -1   0.00000       0.00000    
      4544 HPTSH    4        HPTSH    LPO81    LPDO1   -0.338000       0.00000          -1   0.00000       0.00000    
      4545 HPTSH    4        HPTSH    LPO82    LPDO1   -0.338000       0.00000          -1   0.00000       0.00000    
      4546 HPTSH    4        HPTSH    LPO91    LPDO1   -0.332000       0.00000          -1   0.00000       0.00000    
      4547 HPTSH    4        HPTSH    LPO92    LPDO1   -0.332000       0.00000          -1   0.00000       0.00000    
      4548 HPTSH    4        HPTSH    LPO101   LPDO1   -0.332000       0.00000          -1   0.00000       0.00000    
      4549 HPTSH    4        HPTSH    LPO102   LPDO1   -0.332000       0.00000          -1   0.00000       0.00000    
      4550 HPTSH    5        HPTSH    C1       CD2R6A    2.38940       11.6110           0  -1.07150       1.27010    
      4551 HPTSH    5        HPTSH    DC1      DRUD     -2.54040      0.400000           0   0.00000       0.00000    
      4552 HPTSH    5        HPTSH    C2       CD2R6A    2.25620       11.6110           0 -0.977400       1.27010    
      4553 HPTSH    5        HPTSH    DC2      DRUD     -2.42620      0.400000           0   0.00000       0.00000    
      4554 HPTSH    5        HPTSH    C3       CD2R6A    2.56530       11.6110           0 -0.970200       1.27010    
      4555 HPTSH    5        HPTSH    DC3      DRUD     -2.41730      0.400000           0   0.00000       0.00000    
      4556 HPTSH    5        HPTSH    C4       CD2R6A    2.45810       11.6110           0  -1.03530       1.27010    
      4557 HPTSH    5        HPTSH    DC4      DRUD     -2.49710      0.400000           0   0.00000       0.00000    
      4558 HPTSH    5        HPTSH    C5       CD2R6A    2.62580       11.6110           0  -1.06430       1.27010    
      4559 HPTSH    5        HPTSH    DC5      DRUD     -2.53180      0.400000           0   0.00000       0.00000    
      4560 HPTSH    5        HPTSH    C6       CD2R6A    2.62820       11.6110           0  -1.28150       1.27010    
      4561 HPTSH    5        HPTSH    DC6      DRUD     -2.77820      0.400000           0   0.00000       0.00000    
      4562 HPTSH    5        HPTSH    C7       CD2R6A    2.26890       11.6110           0 -0.876000       1.27010    
      4563 HPTSH    5        HPTSH    DC7      DRUD     -2.29690      0.400000           0   0.00000       0.00000    
      4564 HPTSH    5        HPTSH    C8       CD2R6A    2.42910       11.6110           0  -1.12940       1.27010    
      4565 HPTSH    5        HPTSH    DC8      DRUD     -2.60810      0.400000           0   0.00000       0.00000    
      4566 HPTSH    5        HPTSH    S1       SD30A     3.50200       31.6600           0 -0.935000       1.30000    
      4567 HPTSH    5        HPTSH    DS1      DRUD     -2.37300      0.400000           0   0.00000       0.00000    
      4568 HPTSH    5        HPTSH    O1       OD2C2B    1.94200       15.5994           0 -0.626200       1.08300    
      4569 HPTSH    5        HPTSH    DO1      DRUD     -1.94200      0.400000           0   0.00000       0.00000    
      4570 HPTSH    5        HPTSH    O2       OD2C2B    1.94200       15.5994           0 -0.626200       1.08300    
      4571 HPTSH    5        HPTSH    DO2      DRUD     -1.94200      0.400000           0   0.00000       0.00000    
      4572 HPTSH    5        HPTSH    O3       OD2C2B    1.94200       15.5994           0 -0.626200       1.08300    
      4573 HPTSH    5        HPTSH    DO3      DRUD     -1.94200      0.400000           0   0.00000       0.00000    
      4574 HPTSH    5        HPTSH    S2       SD30A     3.80320       31.6600           0  -1.20700       1.30000    
      4575 HPTSH    5        HPTSH    DS2      DRUD     -2.69620      0.400000           0   0.00000       0.00000    
      4576 HPTSH    5        HPTSH    O4       OD2C2B    1.94640       15.5994           0 -0.629000       1.08300    
      4577 HPTSH    5        HPTSH    DO4      DRUD     -1.94640      0.400000           0   0.00000       0.00000    
      4578 HPTSH    5        HPTSH    O5       OD2C2B    1.94640       15.5994           0 -0.629000       1.08300    
      4579 HPTSH    5        HPTSH    DO5      DRUD     -1.94640      0.400000           0   0.00000       0.00000    
      4580 HPTSH    5        HPTSH    O6       OD2C2B    1.94640       15.5994           0 -0.629000       1.08300    
      4581 HPTSH    5        HPTSH    DO6      DRUD     -1.94640      0.400000           0   0.00000       0.00000    
      4582 HPTSH    5        HPTSH    C9       CD2R6A    2.22530       11.6110           0 -0.919500       1.27010    
      4583 HPTSH    5        HPTSH    DC9      DRUD     -2.35330      0.400000           0   0.00000       0.00000    
      4584 HPTSH    5        HPTSH    C10      CD2R6A    2.25320       11.6110           0 -0.984600       1.27010    
      4585 HPTSH    5        HPTSH    DC10     DRUD     -2.43520      0.400000           0   0.00000       0.00000    
      4586 HPTSH    5        HPTSH    C11      CD2R6A    2.53320       11.6110           0 -0.962900       1.27010    
      4587 HPTSH    5        HPTSH    DC11     DRUD     -2.40820      0.400000           0   0.00000       0.00000    
      4588 HPTSH    5        HPTSH    C12      CD2R6A    2.40450       11.6110           0  -1.08600       1.27010    
      4589 HPTSH    5        HPTSH    DC12     DRUD     -2.55750      0.400000           0   0.00000       0.00000    
      4590 HPTSH    5        HPTSH    C13      CD2R6A    2.15590       11.6110           0 -0.941200       1.27010    
      4591 HPTSH    5        HPTSH    DC13     DRUD     -2.38090      0.400000           0   0.00000       0.00000    
      4592 HPTSH    5        HPTSH    C14      CD2R6A    2.48350       11.6110           0 -0.883300       1.27010    
      4593 HPTSH    5        HPTSH    DC14     DRUD     -2.30650      0.400000           0   0.00000       0.00000    
      4594 HPTSH    5        HPTSH    C15      CD2R6A    2.49900       11.6110           0  -1.00640       1.27010    
      4595 HPTSH    5        HPTSH    DC15     DRUD     -2.46200      0.400000           0   0.00000       0.00000    
      4596 HPTSH    5        HPTSH    C16      CD2R6A    2.40300       11.6110           0  -1.00640       1.27010    
      4597 HPTSH    5        HPTSH    DC16     DRUD     -2.46200      0.400000           0   0.00000       0.00000    
      4598 HPTSH    5        HPTSH    O7       OD31A     2.41700       15.5990           0 -0.970000      0.749400    
      4599 HPTSH    5        HPTSH    DO7      DRUD     -2.41700      0.400000           0   0.00000       0.00000    
      4600 HPTSH    5        HPTSH    S3       SD30A     3.54280       31.6600           0 -0.943500       1.30000    
      4601 HPTSH    5        HPTSH    DS3      DRUD     -2.38380      0.400000           0   0.00000       0.00000    
      4602 HPTSH    5        HPTSH    O8       OD2C2B    1.95070       15.5994           0 -0.631800       1.08300    
      4603 HPTSH    5        HPTSH    DO8      DRUD     -1.95070      0.400000           0   0.00000       0.00000    
      4604 HPTSH    5        HPTSH    O9       OD2C2B    1.95070       15.5994           0 -0.631800       1.08300    
      4605 HPTSH    5        HPTSH    DO9      DRUD     -1.95070      0.400000           0   0.00000       0.00000    
      4606 HPTSH    5        HPTSH    O10      OD2C2B    1.95070       15.5994           0 -0.631800       1.08300    
      4607 HPTSH    5        HPTSH    DO10     DRUD     -1.95070      0.400000           0   0.00000       0.00000    
      4608 HPTSH    5        HPTSH    H1       HDR6A    0.830000E-01   1.00800           0   0.00000       0.00000    
      4609 HPTSH    5        HPTSH    H2       HDR6A    0.122000       1.00800           0   0.00000       0.00000    
      4610 HPTSH    5        HPTSH    H3       HDR6A    0.840000E-01   1.00800           0   0.00000       0.00000    
      4611 HPTSH    5        HPTSH    H4       HDR6A    0.120000       1.00800           0   0.00000       0.00000    
      4612 HPTSH    5        HPTSH    H5       HDR6A    0.118000       1.00800           0   0.00000       0.00000    
      4613 HPTSH    5        HPTSH    H6       HDR6A    0.100000       1.00800           0   0.00000       0.00000    
      4614 HPTSH    5        HPTSH    H7       HDP1A    0.371000       1.00800           0   0.00000       0.00000    
      4615 HPTSH    5        HPTSH    LPO11    LPDO1   -0.340000       0.00000          -1   0.00000       0.00000    
      4616 HPTSH    5        HPTSH    LPO12    LPDO1   -0.340000       0.00000          -1   0.00000       0.00000    
      4617 HPTSH    5        HPTSH    LPO21    LPDO1   -0.317000       0.00000          -1   0.00000       0.00000    
      4618 HPTSH    5        HPTSH    LPO22    LPDO1   -0.317000       0.00000          -1   0.00000       0.00000    
      4619 HPTSH    5        HPTSH    LPO31    LPDO1   -0.339000       0.00000          -1   0.00000       0.00000    
      4620 HPTSH    5        HPTSH    LPO32    LPDO1   -0.339000       0.00000          -1   0.00000       0.00000    
      4621 HPTSH    5        HPTSH    LPO41    LPDO1   -0.317000       0.00000          -1   0.00000       0.00000    
      4622 HPTSH    5        HPTSH    LPO42    LPDO1   -0.317000       0.00000          -1   0.00000       0.00000    
      4623 HPTSH    5        HPTSH    LPO51    LPDO1   -0.331000       0.00000          -1   0.00000       0.00000    
      4624 HPTSH    5        HPTSH    LPO52    LPDO1   -0.331000       0.00000          -1   0.00000       0.00000    
      4625 HPTSH    5        HPTSH    LPO61    LPDO1   -0.332000       0.00000          -1   0.00000       0.00000    
      4626 HPTSH    5        HPTSH    LPO62    LPDO1   -0.332000       0.00000          -1   0.00000       0.00000    
      4627 HPTSH    5        HPTSH    LPO71    LPD     -0.277000       0.00000          -1   0.00000       0.00000    
      4628 HPTSH    5        HPTSH    LPO72    LPD     -0.277000       0.00000          -1   0.00000       0.00000    
      4629 HPTSH    5        HPTSH    LPO81    LPDO1   -0.338000       0.00000          -1   0.00000       0.00000    
      4630 HPTSH    5        HPTSH    LPO82    LPDO1   -0.338000       0.00000          -1   0.00000       0.00000    
      4631 HPTSH    5        HPTSH    LPO91    LPDO1   -0.332000       0.00000          -1   0.00000       0.00000    
      4632 HPTSH    5        HPTSH    LPO92    LPDO1   -0.332000       0.00000          -1   0.00000       0.00000    
      4633 HPTSH    5        HPTSH    LPO101   LPDO1   -0.332000       0.00000          -1   0.00000       0.00000    
      4634 HPTSH    5        HPTSH    LPO102   LPDO1   -0.332000       0.00000          -1   0.00000       0.00000    
      4635 HPTSH    6        HPTSH    C1       CD2R6A    2.38940       11.6110           0  -1.07150       1.27010    
      4636 HPTSH    6        HPTSH    DC1      DRUD     -2.54040      0.400000           0   0.00000       0.00000    
      4637 HPTSH    6        HPTSH    C2       CD2R6A    2.25620       11.6110           0 -0.977400       1.27010    
      4638 HPTSH    6        HPTSH    DC2      DRUD     -2.42620      0.400000           0   0.00000       0.00000    
      4639 HPTSH    6        HPTSH    C3       CD2R6A    2.56530       11.6110           0 -0.970200       1.27010    
      4640 HPTSH    6        HPTSH    DC3      DRUD     -2.41730      0.400000           0   0.00000       0.00000    
      4641 HPTSH    6        HPTSH    C4       CD2R6A    2.45810       11.6110           0  -1.03530       1.27010    
      4642 HPTSH    6        HPTSH    DC4      DRUD     -2.49710      0.400000           0   0.00000       0.00000    
      4643 HPTSH    6        HPTSH    C5       CD2R6A    2.62580       11.6110           0  -1.06430       1.27010    
      4644 HPTSH    6        HPTSH    DC5      DRUD     -2.53180      0.400000           0   0.00000       0.00000    
      4645 HPTSH    6        HPTSH    C6       CD2R6A    2.62820       11.6110           0  -1.28150       1.27010    
      4646 HPTSH    6        HPTSH    DC6      DRUD     -2.77820      0.400000           0   0.00000       0.00000    
      4647 HPTSH    6        HPTSH    C7       CD2R6A    2.26890       11.6110           0 -0.876000       1.27010    
      4648 HPTSH    6        HPTSH    DC7      DRUD     -2.29690      0.400000           0   0.00000       0.00000    
      4649 HPTSH    6        HPTSH    C8       CD2R6A    2.42910       11.6110           0  -1.12940       1.27010    
      4650 HPTSH    6        HPTSH    DC8      DRUD     -2.60810      0.400000           0   0.00000       0.00000    
      4651 HPTSH    6        HPTSH    S1       SD30A     3.50200       31.6600           0 -0.935000       1.30000    
      4652 HPTSH    6        HPTSH    DS1      DRUD     -2.37300      0.400000           0   0.00000       0.00000    
      4653 HPTSH    6        HPTSH    O1       OD2C2B    1.94200       15.5994           0 -0.626200       1.08300    
      4654 HPTSH    6        HPTSH    DO1      DRUD     -1.94200      0.400000           0   0.00000       0.00000    
      4655 HPTSH    6        HPTSH    O2       OD2C2B    1.94200       15.5994           0 -0.626200       1.08300    
      4656 HPTSH    6        HPTSH    DO2      DRUD     -1.94200      0.400000           0   0.00000       0.00000    
      4657 HPTSH    6        HPTSH    O3       OD2C2B    1.94200       15.5994           0 -0.626200       1.08300    
      4658 HPTSH    6        HPTSH    DO3      DRUD     -1.94200      0.400000           0   0.00000       0.00000    
      4659 HPTSH    6        HPTSH    S2       SD30A     3.80320       31.6600           0  -1.20700       1.30000    
      4660 HPTSH    6        HPTSH    DS2      DRUD     -2.69620      0.400000           0   0.00000       0.00000    
      4661 HPTSH    6        HPTSH    O4       OD2C2B    1.94640       15.5994           0 -0.629000       1.08300    
      4662 HPTSH    6        HPTSH    DO4      DRUD     -1.94640      0.400000           0   0.00000       0.00000    
      4663 HPTSH    6        HPTSH    O5       OD2C2B    1.94640       15.5994           0 -0.629000       1.08300    
      4664 HPTSH    6        HPTSH    DO5      DRUD     -1.94640      0.400000           0   0.00000       0.00000    
      4665 HPTSH    6        HPTSH    O6       OD2C2B    1.94640       15.5994           0 -0.629000       1.08300    
      4666 HPTSH    6        HPTSH    DO6      DRUD     -1.94640      0.400000           0   0.00000       0.00000    
      4667 HPTSH    6        HPTSH    C9       CD2R6A    2.22530       11.6110           0 -0.919500       1.27010    
      4668 HPTSH    6        HPTSH    DC9      DRUD     -2.35330      0.400000           0   0.00000       0.00000    
      4669 HPTSH    6        HPTSH    C10      CD2R6A    2.25320       11.6110           0 -0.984600       1.27010    
      4670 HPTSH    6        HPTSH    DC10     DRUD     -2.43520      0.400000           0   0.00000       0.00000    
      4671 HPTSH    6        HPTSH    C11      CD2R6A    2.53320       11.6110           0 -0.962900       1.27010    
      4672 HPTSH    6        HPTSH    DC11     DRUD     -2.40820      0.400000           0   0.00000       0.00000    
      4673 HPTSH    6        HPTSH    C12      CD2R6A    2.40450       11.6110           0  -1.08600       1.27010    
      4674 HPTSH    6        HPTSH    DC12     DRUD     -2.55750      0.400000           0   0.00000       0.00000    
      4675 HPTSH    6        HPTSH    C13      CD2R6A    2.15590       11.6110           0 -0.941200       1.27010    
      4676 HPTSH    6        HPTSH    DC13     DRUD     -2.38090      0.400000           0   0.00000       0.00000    
      4677 HPTSH    6        HPTSH    C14      CD2R6A    2.48350       11.6110           0 -0.883300       1.27010    
      4678 HPTSH    6        HPTSH    DC14     DRUD     -2.30650      0.400000           0   0.00000       0.00000    
      4679 HPTSH    6        HPTSH    C15      CD2R6A    2.49900       11.6110           0  -1.00640       1.27010    
      4680 HPTSH    6        HPTSH    DC15     DRUD     -2.46200      0.400000           0   0.00000       0.00000    
      4681 HPTSH    6        HPTSH    C16      CD2R6A    2.40300       11.6110           0  -1.00640       1.27010    
      4682 HPTSH    6        HPTSH    DC16     DRUD     -2.46200      0.400000           0   0.00000       0.00000    
      4683 HPTSH    6        HPTSH    O7       OD31A     2.41700       15.5990           0 -0.970000      0.749400    
      4684 HPTSH    6        HPTSH    DO7      DRUD     -2.41700      0.400000           0   0.00000       0.00000    
      4685 HPTSH    6        HPTSH    S3       SD30A     3.54280       31.6600           0 -0.943500       1.30000    
      4686 HPTSH    6        HPTSH    DS3      DRUD     -2.38380      0.400000           0   0.00000       0.00000    
      4687 HPTSH    6        HPTSH    O8       OD2C2B    1.95070       15.5994           0 -0.631800       1.08300    
      4688 HPTSH    6        HPTSH    DO8      DRUD     -1.95070      0.400000           0   0.00000       0.00000    
      4689 HPTSH    6        HPTSH    O9       OD2C2B    1.95070       15.5994           0 -0.631800       1.08300    
      4690 HPTSH    6        HPTSH    DO9      DRUD     -1.95070      0.400000           0   0.00000       0.00000    
      4691 HPTSH    6        HPTSH    O10      OD2C2B    1.95070       15.5994           0 -0.631800       1.08300    
      4692 HPTSH    6        HPTSH    DO10     DRUD     -1.95070      0.400000           0   0.00000       0.00000    
      4693 HPTSH    6        HPTSH    H1       HDR6A    0.830000E-01   1.00800           0   0.00000       0.00000    
      4694 HPTSH    6        HPTSH    H2       HDR6A    0.122000       1.00800           0   0.00000       0.00000    
      4695 HPTSH    6        HPTSH    H3       HDR6A    0.840000E-01   1.00800           0   0.00000       0.00000    
      4696 HPTSH    6        HPTSH    H4       HDR6A    0.120000       1.00800           0   0.00000       0.00000    
      4697 HPTSH    6        HPTSH    H5       HDR6A    0.118000       1.00800           0   0.00000       0.00000    
      4698 HPTSH    6        HPTSH    H6       HDR6A    0.100000       1.00800           0   0.00000       0.00000    
      4699 HPTSH    6        HPTSH    H7       HDP1A    0.371000       1.00800           0   0.00000       0.00000    
      4700 HPTSH    6        HPTSH    LPO11    LPDO1   -0.340000       0.00000          -1   0.00000       0.00000    
      4701 HPTSH    6        HPTSH    LPO12    LPDO1   -0.340000       0.00000          -1   0.00000       0.00000    
      4702 HPTSH    6        HPTSH    LPO21    LPDO1   -0.317000       0.00000          -1   0.00000       0.00000    
      4703 HPTSH    6        HPTSH    LPO22    LPDO1   -0.317000       0.00000          -1   0.00000       0.00000    
      4704 HPTSH    6        HPTSH    LPO31    LPDO1   -0.339000       0.00000          -1   0.00000       0.00000    
      4705 HPTSH    6        HPTSH    LPO32    LPDO1   -0.339000       0.00000          -1   0.00000       0.00000    
      4706 HPTSH    6        HPTSH    LPO41    LPDO1   -0.317000       0.00000          -1   0.00000       0.00000    
      4707 HPTSH    6        HPTSH    LPO42    LPDO1   -0.317000       0.00000          -1   0.00000       0.00000    
      4708 HPTSH    6        HPTSH    LPO51    LPDO1   -0.331000       0.00000          -1   0.00000       0.00000    
      4709 HPTSH    6        HPTSH    LPO52    LPDO1   -0.331000       0.00000          -1   0.00000       0.00000    
      4710 HPTSH    6        HPTSH    LPO61    LPDO1   -0.332000       0.00000          -1   0.00000       0.00000    
      4711 HPTSH    6        HPTSH    LPO62    LPDO1   -0.332000       0.00000          -1   0.00000       0.00000    
      4712 HPTSH    6        HPTSH    LPO71    LPD     -0.277000       0.00000          -1   0.00000       0.00000    
      4713 HPTSH    6        HPTSH    LPO72    LPD     -0.277000       0.00000          -1   0.00000       0.00000    
      4714 HPTSH    6        HPTSH    LPO81    LPDO1   -0.338000       0.00000          -1   0.00000       0.00000    
      4715 HPTSH    6        HPTSH    LPO82    LPDO1   -0.338000       0.00000          -1   0.00000       0.00000    
      4716 HPTSH    6        HPTSH    LPO91    LPDO1   -0.332000       0.00000          -1   0.00000       0.00000    
      4717 HPTSH    6        HPTSH    LPO92    LPDO1   -0.332000       0.00000          -1   0.00000       0.00000    
      4718 HPTSH    6        HPTSH    LPO101   LPDO1   -0.332000       0.00000          -1   0.00000       0.00000    
      4719 HPTSH    6        HPTSH    LPO102   LPDO1   -0.332000       0.00000          -1   0.00000       0.00000    
      4720 MEOH     1        MEOH     C1       CD33B     2.31410       11.6110           0  -1.00000       1.30000    
      4721 MEOH     1        MEOH     DC1      DRUD     -2.45410      0.400000           0   0.00000       0.00000    
      4722 MEOH     1        MEOH     O1       OD31H     2.48830       15.5990           0  -1.02800       1.30000    
      4723 MEOH     1        MEOH     DO1      DRUD     -2.48830      0.400000           0   0.00000       0.00000    
      4724 MEOH     1        MEOH     HO1      HDP1A    0.360000       1.00800           0   0.00000       0.00000    
      4725 MEOH     1        MEOH     HO2      DUMH      0.00000       1.00800           0   0.00000       0.00000    
      4726 MEOH     1        MEOH     H1A      HDA3B    0.800000E-01   1.00800           0   0.00000       0.00000    
      4727 MEOH     1        MEOH     H1B      HDA3B    0.800000E-01   1.00800           0   0.00000       0.00000    
      4728 MEOH     1        MEOH     H1C      HDA3B    0.800000E-01   1.00800           0   0.00000       0.00000    
      4729 MEOH     1        MEOH     LP1A     LPD     -0.230000       0.00000          -1   0.00000       0.00000    
      4730 MEOH     1        MEOH     LP1B     LPD     -0.230000       0.00000          -1   0.00000       0.00000    
      4731 MEOH     2        MEOH     C1       CD33B     2.31410       11.6110           0  -1.00000       1.30000    
      4732 MEOH     2        MEOH     DC1      DRUD     -2.45410      0.400000           0   0.00000       0.00000    
      4733 MEOH     2        MEOH     O1       OD31H     2.48830       15.5990           0  -1.02800       1.30000    
      4734 MEOH     2        MEOH     DO1      DRUD     -2.48830      0.400000           0   0.00000       0.00000    
      4735 MEOH     2        MEOH     HO1      HDP1A    0.360000       1.00800           0   0.00000       0.00000    
      4736 MEOH     2        MEOH     HO2      DUMH      0.00000       1.00800           0   0.00000       0.00000    
      4737 MEOH     2        MEOH     H1A      HDA3B    0.800000E-01   1.00800           0   0.00000       0.00000    
      4738 MEOH     2        MEOH     H1B      HDA3B    0.800000E-01   1.00800           0   0.00000       0.00000    
      4739 MEOH     2        MEOH     H1C      HDA3B    0.800000E-01   1.00800           0   0.00000       0.00000    
      4740 MEOH     2        MEOH     LP1A     LPD     -0.230000       0.00000          -1   0.00000       0.00000    
      4741 MEOH     2        MEOH     LP1B     LPD     -0.230000       0.00000          -1   0.00000       0.00000    
      4742 MEOH     3        MEOH     C1       CD33B     2.31410       11.6110           0  -1.00000       1.30000    
      4743 MEOH     3        MEOH     DC1      DRUD     -2.45410      0.400000           0   0.00000       0.00000    
      4744 MEOH     3        MEOH     O1       OD31H     2.48830       15.5990           0  -1.02800       1.30000    
      4745 MEOH     3        MEOH     DO1      DRUD     -2.48830      0.400000           0   0.00000       0.00000    
      4746 MEOH     3        MEOH     HO1      HDP1A    0.360000       1.00800           0   0.00000       0.00000    
      4747 MEOH     3        MEOH     HO2      DUMH      0.00000       1.00800           0   0.00000       0.00000    
      4748 MEOH     3        MEOH     H1A      HDA3B    0.800000E-01   1.00800           0   0.00000       0.00000    
      4749 MEOH     3        MEOH     H1B      HDA3B    0.800000E-01   1.00800           0   0.00000       0.00000    
      4750 MEOH     3        MEOH     H1C      HDA3B    0.800000E-01   1.00800           0   0.00000       0.00000    
      4751 MEOH     3        MEOH     LP1A     LPD     -0.230000       0.00000          -1   0.00000       0.00000    
      4752 MEOH     3        MEOH     LP1B     LPD     -0.230000       0.00000          -1   0.00000       0.00000    
      4753 MEOH     4        MEOH     C1       CD33B     2.31410       11.6110           0  -1.00000       1.30000    
      4754 MEOH     4        MEOH     DC1      DRUD     -2.45410      0.400000           0   0.00000       0.00000    
      4755 MEOH     4        MEOH     O1       OD31H     2.48830       15.5990           0  -1.02800       1.30000    
      4756 MEOH     4        MEOH     DO1      DRUD     -2.48830      0.400000           0   0.00000       0.00000    
      4757 MEOH     4        MEOH     HO1      HDP1A    0.360000       1.00800           0   0.00000       0.00000    
      4758 MEOH     4        MEOH     HO2      DUMH      0.00000       1.00800           0   0.00000       0.00000    
      4759 MEOH     4        MEOH     H1A      HDA3B    0.800000E-01   1.00800           0   0.00000       0.00000    
      4760 MEOH     4        MEOH     H1B      HDA3B    0.800000E-01   1.00800           0   0.00000       0.00000    
      4761 MEOH     4        MEOH     H1C      HDA3B    0.800000E-01   1.00800           0   0.00000       0.00000    
      4762 MEOH     4        MEOH     LP1A     LPD     -0.230000       0.00000          -1   0.00000       0.00000    
      4763 MEOH     4        MEOH     LP1B     LPD     -0.230000       0.00000          -1   0.00000       0.00000    
      4764 MEOH     5        MEOH     C1       CD33B     2.31410       11.6110           0  -1.00000       1.30000    
      4765 MEOH     5        MEOH     DC1      DRUD     -2.45410      0.400000           0   0.00000       0.00000    
      4766 MEOH     5        MEOH     O1       OD31H     2.48830       15.5990           0  -1.02800       1.30000    
      4767 MEOH     5        MEOH     DO1      DRUD     -2.48830      0.400000           0   0.00000       0.00000    
      4768 MEOH     5        MEOH     HO1      HDP1A    0.360000       1.00800           0   0.00000       0.00000    
      4769 MEOH     5        MEOH     HO2      DUMH      0.00000       1.00800           0   0.00000       0.00000    
      4770 MEOH     5        MEOH     H1A      HDA3B    0.800000E-01   1.00800           0   0.00000       0.00000    
      4771 MEOH     5        MEOH     H1B      HDA3B    0.800000E-01   1.00800           0   0.00000       0.00000    
      4772 MEOH     5        MEOH     H1C      HDA3B    0.800000E-01   1.00800           0   0.00000       0.00000    
      4773 MEOH     5        MEOH     LP1A     LPD     -0.230000       0.00000          -1   0.00000       0.00000    
      4774 MEOH     5        MEOH     LP1B     LPD     -0.230000       0.00000          -1   0.00000       0.00000    
      4775 MEOH     6        MEOH     C1       CD33B     2.31410       11.6110           0  -1.00000       1.30000    
      4776 MEOH     6        MEOH     DC1      DRUD     -2.45410      0.400000           0   0.00000       0.00000    
      4777 MEOH     6        MEOH     O1       OD31H     2.48830       15.5990           0  -1.02800       1.30000    
      4778 MEOH     6        MEOH     DO1      DRUD     -2.48830      0.400000           0   0.00000       0.00000    
      4779 MEOH     6        MEOH     HO1      HDP1A    0.360000       1.00800           0   0.00000       0.00000    
      4780 MEOH     6        MEOH     HO2      DUMH      0.00000       1.00800           0   0.00000       0.00000    
      4781 MEOH     6        MEOH     H1A      HDA3B    0.800000E-01   1.00800           0   0.00000       0.00000    
      4782 MEOH     6        MEOH     H1B      HDA3B    0.800000E-01   1.00800           0   0.00000       0.00000    
      4783 MEOH     6        MEOH     H1C      HDA3B    0.800000E-01   1.00800           0   0.00000       0.00000    
      4784 MEOH     6        MEOH     LP1A     LPD     -0.230000       0.00000          -1   0.00000       0.00000    
      4785 MEOH     6        MEOH     LP1B     LPD     -0.230000       0.00000          -1   0.00000       0.00000    
      4786 MEOH     7        MEOH     C1       CD33B     2.31410       11.6110           0  -1.00000       1.30000    
      4787 MEOH     7        MEOH     DC1      DRUD     -2.45410      0.400000           0   0.00000       0.00000    
      4788 MEOH     7        MEOH     O1       OD31H     2.48830       15.5990           0  -1.02800       1.30000    
      4789 MEOH     7        MEOH     DO1      DRUD     -2.48830      0.400000           0   0.00000       0.00000    
      4790 MEOH     7        MEOH     HO1      HDP1A    0.360000       1.00800           0   0.00000       0.00000    
      4791 MEOH     7        MEOH     HO2      DUMH      0.00000       1.00800           0   0.00000       0.00000    
      4792 MEOH     7        MEOH     H1A      HDA3B    0.800000E-01   1.00800           0   0.00000       0.00000    
      4793 MEOH     7        MEOH     H1B      HDA3B    0.800000E-01   1.00800           0   0.00000       0.00000    
      4794 MEOH     7        MEOH     H1C      HDA3B    0.800000E-01   1.00800           0   0.00000       0.00000    
      4795 MEOH     7        MEOH     LP1A     LPD     -0.230000       0.00000          -1   0.00000       0.00000    
      4796 MEOH     7        MEOH     LP1B     LPD     -0.230000       0.00000          -1   0.00000       0.00000    
      4797 MEOH     8        MEOH     C1       CD33B     2.31410       11.6110           0  -1.00000       1.30000    
      4798 MEOH     8        MEOH     DC1      DRUD     -2.45410      0.400000           0   0.00000       0.00000    
      4799 MEOH     8        MEOH     O1       OD31H     2.48830       15.5990           0  -1.02800       1.30000    
      4800 MEOH     8        MEOH     DO1      DRUD     -2.48830      0.400000           0   0.00000       0.00000    
      4801 MEOH     8        MEOH     HO1      HDP1A    0.360000       1.00800           0   0.00000       0.00000    
      4802 MEOH     8        MEOH     HO2      DUMH      0.00000       1.00800           0   0.00000       0.00000    
      4803 MEOH     8        MEOH     H1A      HDA3B    0.800000E-01   1.00800           0   0.00000       0.00000    
      4804 MEOH     8        MEOH     H1B      HDA3B    0.800000E-01   1.00800           0   0.00000       0.00000    
      4805 MEOH     8        MEOH     H1C      HDA3B    0.800000E-01   1.00800           0   0.00000       0.00000    
      4806 MEOH     8        MEOH     LP1A     LPD     -0.230000       0.00000          -1   0.00000       0.00000    
      4807 MEOH     8        MEOH     LP1B     LPD     -0.230000       0.00000          -1   0.00000       0.00000    
      4808 MEOH     9        MEOH     C1       CD33B     2.31410       11.6110           0  -1.00000       1.30000    
      4809 MEOH     9        MEOH     DC1      DRUD     -2.45410      0.400000           0   0.00000       0.00000    
      4810 MEOH     9        MEOH     O1       OD31H     2.48830       15.5990           0  -1.02800       1.30000    
      4811 MEOH     9        MEOH     DO1      DRUD     -2.48830      0.400000           0   0.00000       0.00000    
      4812 MEOH     9        MEOH     HO1      HDP1A    0.360000       1.00800           0   0.00000       0.00000    
      4813 MEOH     9        MEOH     HO2      DUMH      0.00000       1.00800           0   0.00000       0.00000    
      4814 MEOH     9        MEOH     H1A      HDA3B    0.800000E-01   1.00800           0   0.00000       0.00000    
      4815 MEOH     9        MEOH     H1B      HDA3B    0.800000E-01   1.00800           0   0.00000       0.00000    
      4816 MEOH     9        MEOH     H1C      HDA3B    0.800000E-01   1.00800           0   0.00000       0.00000    
      4817 MEOH     9        MEOH     LP1A     LPD     -0.230000       0.00000          -1   0.00000       0.00000    
      4818 MEOH     9        MEOH     LP1B     LPD     -0.230000       0.00000          -1   0.00000       0.00000    
      4819 MEOH     10       MEOH     C1       CD33B     2.31410       11.6110           0  -1.00000       1.30000    
      4820 MEOH     10       MEOH     DC1      DRUD     -2.45410      0.400000           0   0.00000       0.00000    
      4821 MEOH     10       MEOH     O1       OD31H     2.48830       15.5990           0  -1.02800       1.30000    
      4822 MEOH     10       MEOH     DO1      DRUD     -2.48830      0.400000           0   0.00000       0.00000    
      4823 MEOH     10       MEOH     HO1      HDP1A    0.360000       1.00800           0   0.00000       0.00000    
      4824 MEOH     10       MEOH     HO2      DUMH      0.00000       1.00800           0   0.00000       0.00000    
      4825 MEOH     10       MEOH     H1A      HDA3B    0.800000E-01   1.00800           0   0.00000       0.00000    
      4826 MEOH     10       MEOH     H1B      HDA3B    0.800000E-01   1.00800           0   0.00000       0.00000    
      4827 MEOH     10       MEOH     H1C      HDA3B    0.800000E-01   1.00800           0   0.00000       0.00000    
      4828 MEOH     10       MEOH     LP1A     LPD     -0.230000       0.00000          -1   0.00000       0.00000    
      4829 MEOH     10       MEOH     LP1B     LPD     -0.230000       0.00000          -1   0.00000       0.00000    
      4830 MEOH     11       MEOH     C1       CD33B     2.31410       11.6110           0  -1.00000       1.30000    
      4831 MEOH     11       MEOH     DC1      DRUD     -2.45410      0.400000           0   0.00000       0.00000    
      4832 MEOH     11       MEOH     O1       OD31H     2.48830       15.5990           0  -1.02800       1.30000    
      4833 MEOH     11       MEOH     DO1      DRUD     -2.48830      0.400000           0   0.00000       0.00000    
      4834 MEOH     11       MEOH     HO1      HDP1A    0.360000       1.00800           0   0.00000       0.00000    
      4835 MEOH     11       MEOH     HO2      DUMH      0.00000       1.00800           0   0.00000       0.00000    
      4836 MEOH     11       MEOH     H1A      HDA3B    0.800000E-01   1.00800           0   0.00000       0.00000    
      4837 MEOH     11       MEOH     H1B      HDA3B    0.800000E-01   1.00800           0   0.00000       0.00000    
      4838 MEOH     11       MEOH     H1C      HDA3B    0.800000E-01   1.00800           0   0.00000       0.00000    
      4839 MEOH     11       MEOH     LP1A     LPD     -0.230000       0.00000          -1   0.00000       0.00000    
      4840 MEOH     11       MEOH     LP1B     LPD     -0.230000       0.00000          -1   0.00000       0.00000    
      4841 MEOH     12       MEOH     C1       CD33B     2.31410       11.6110           0  -1.00000       1.30000    
      4842 MEOH     12       MEOH     DC1      DRUD     -2.45410      0.400000           0   0.00000       0.00000    
      4843 MEOH     12       MEOH     O1       OD31H     2.48830       15.5990           0  -1.02800       1.30000    
      4844 MEOH     12       MEOH     DO1      DRUD     -2.48830      0.400000           0   0.00000       0.00000    
      4845 MEOH     12       MEOH     HO1      HDP1A    0.360000       1.00800           0   0.00000       0.00000    
      4846 MEOH     12       MEOH     HO2      DUMH      0.00000       1.00800           0   0.00000       0.00000    
      4847 MEOH     12       MEOH     H1A      HDA3B    0.800000E-01   1.00800           0   0.00000       0.00000    
      4848 MEOH     12       MEOH     H1B      HDA3B    0.800000E-01   1.00800           0   0.00000       0.00000    
      4849 MEOH     12       MEOH     H1C      HDA3B    0.800000E-01   1.00800           0   0.00000       0.00000    
      4850 MEOH     12       MEOH     LP1A     LPD     -0.230000       0.00000          -1   0.00000       0.00000    
      4851 MEOH     12       MEOH     LP1B     LPD     -0.230000       0.00000          -1   0.00000       0.00000    
      4852 MEOH     13       MEOH     C1       CD33B     2.31410       11.6110           0  -1.00000       1.30000    
      4853 MEOH     13       MEOH     DC1      DRUD     -2.45410      0.400000           0   0.00000       0.00000    
      4854 MEOH     13       MEOH     O1       OD31H     2.48830       15.5990           0  -1.02800       1.30000    
      4855 MEOH     13       MEOH     DO1      DRUD     -2.48830      0.400000           0   0.00000       0.00000    
      4856 MEOH     13       MEOH     HO1      HDP1A    0.360000       1.00800           0   0.00000       0.00000    
      4857 MEOH     13       MEOH     HO2      DUMH      0.00000       1.00800           0   0.00000       0.00000    
      4858 MEOH     13       MEOH     H1A      HDA3B    0.800000E-01   1.00800           0   0.00000       0.00000    
      4859 MEOH     13       MEOH     H1B      HDA3B    0.800000E-01   1.00800           0   0.00000       0.00000    
      4860 MEOH     13       MEOH     H1C      HDA3B    0.800000E-01   1.00800           0   0.00000       0.00000    
      4861 MEOH     13       MEOH     LP1A     LPD     -0.230000       0.00000          -1   0.00000       0.00000    
      4862 MEOH     13       MEOH     LP1B     LPD     -0.230000       0.00000          -1   0.00000       0.00000    
      4863 MEOH     14       MEOH     C1       CD33B     2.31410       11.6110           0  -1.00000       1.30000    
      4864 MEOH     14       MEOH     DC1      DRUD     -2.45410      0.400000           0   0.00000       0.00000    
      4865 MEOH     14       MEOH     O1       OD31H     2.48830       15.5990           0  -1.02800       1.30000    
      4866 MEOH     14       MEOH     DO1      DRUD     -2.48830      0.400000           0   0.00000       0.00000    
      4867 MEOH     14       MEOH     HO1      HDP1A    0.360000       1.00800           0   0.00000       0.00000    
      4868 MEOH     14       MEOH     HO2      DUMH      0.00000       1.00800           0   0.00000       0.00000    
      4869 MEOH     14       MEOH     H1A      HDA3B    0.800000E-01   1.00800           0   0.00000       0.00000    
      4870 MEOH     14       MEOH     H1B      HDA3B    0.800000E-01   1.00800           0   0.00000       0.00000    
      4871 MEOH     14       MEOH     H1C      HDA3B    0.800000E-01   1.00800           0   0.00000       0.00000    
      4872 MEOH     14       MEOH     LP1A     LPD     -0.230000       0.00000          -1   0.00000       0.00000    
      4873 MEOH     14       MEOH     LP1B     LPD     -0.230000       0.00000          -1   0.00000       0.00000    
      4874 MEOH     15       MEOH     C1       CD33B     2.31410       11.6110           0  -1.00000       1.30000    
      4875 MEOH     15       MEOH     DC1      DRUD     -2.45410      0.400000           0   0.00000       0.00000    
      4876 MEOH     15       MEOH     O1       OD31H     2.48830       15.5990           0  -1.02800       1.30000    
      4877 MEOH     15       MEOH     DO1      DRUD     -2.48830      0.400000           0   0.00000       0.00000    
      4878 MEOH     15       MEOH     HO1      HDP1A    0.360000       1.00800           0   0.00000       0.00000    
      4879 MEOH     15       MEOH     HO2      DUMH      0.00000       1.00800           0   0.00000       0.00000    
      4880 MEOH     15       MEOH     H1A      HDA3B    0.800000E-01   1.00800           0   0.00000       0.00000    
      4881 MEOH     15       MEOH     H1B      HDA3B    0.800000E-01   1.00800           0   0.00000       0.00000    
      4882 MEOH     15       MEOH     H1C      HDA3B    0.800000E-01   1.00800           0   0.00000       0.00000    
      4883 MEOH     15       MEOH     LP1A     LPD     -0.230000       0.00000          -1   0.00000       0.00000    
      4884 MEOH     15       MEOH     LP1B     LPD     -0.230000       0.00000          -1   0.00000       0.00000    
      4885 MEOH     16       MEOH     C1       CD33B     2.31410       11.6110           0  -1.00000       1.30000    
      4886 MEOH     16       MEOH     DC1      DRUD     -2.45410      0.400000           0   0.00000       0.00000    
      4887 MEOH     16       MEOH     O1       OD31H     2.48830       15.5990           0  -1.02800       1.30000    
      4888 MEOH     16       MEOH     DO1      DRUD     -2.48830      0.400000           0   0.00000       0.00000    
      4889 MEOH     16       MEOH     HO1      HDP1A    0.360000       1.00800           0   0.00000       0.00000    
      4890 MEOH     16       MEOH     HO2      DUMH      0.00000       1.00800           0   0.00000       0.00000    
      4891 MEOH     16       MEOH     H1A      HDA3B    0.800000E-01   1.00800           0   0.00000       0.00000    
      4892 MEOH     16       MEOH     H1B      HDA3B    0.800000E-01   1.00800           0   0.00000       0.00000    
      4893 MEOH     16       MEOH     H1C      HDA3B    0.800000E-01   1.00800           0   0.00000       0.00000    
      4894 MEOH     16       MEOH     LP1A     LPD     -0.230000       0.00000          -1   0.00000       0.00000    
      4895 MEOH     16       MEOH     LP1B     LPD     -0.230000       0.00000          -1   0.00000       0.00000    
      4896 MEOH     17       MEOH     C1       CD33B     2.31410       11.6110           0  -1.00000       1.30000    
      4897 MEOH     17       MEOH     DC1      DRUD     -2.45410      0.400000           0   0.00000       0.00000    
      4898 MEOH     17       MEOH     O1       OD31H     2.48830       15.5990           0  -1.02800       1.30000    
      4899 MEOH     17       MEOH     DO1      DRUD     -2.48830      0.400000           0   0.00000       0.00000    
      4900 MEOH     17       MEOH     HO1      HDP1A    0.360000       1.00800           0   0.00000       0.00000    
      4901 MEOH     17       MEOH     HO2      DUMH      0.00000       1.00800           0   0.00000       0.00000    
      4902 MEOH     17       MEOH     H1A      HDA3B    0.800000E-01   1.00800           0   0.00000       0.00000    
      4903 MEOH     17       MEOH     H1B      HDA3B    0.800000E-01   1.00800           0   0.00000       0.00000    
      4904 MEOH     17       MEOH     H1C      HDA3B    0.800000E-01   1.00800           0   0.00000       0.00000    
      4905 MEOH     17       MEOH     LP1A     LPD     -0.230000       0.00000          -1   0.00000       0.00000    
      4906 MEOH     17       MEOH     LP1B     LPD     -0.230000       0.00000          -1   0.00000       0.00000    
      4907 MEOH     18       MEOH     C1       CD33B     2.31410       11.6110           0  -1.00000       1.30000    
      4908 MEOH     18       MEOH     DC1      DRUD     -2.45410      0.400000           0   0.00000       0.00000    
      4909 MEOH     18       MEOH     O1       OD31H     2.48830       15.5990           0  -1.02800       1.30000    
      4910 MEOH     18       MEOH     DO1      DRUD     -2.48830      0.400000           0   0.00000       0.00000    
      4911 MEOH     18       MEOH     HO1      HDP1A    0.360000       1.00800           0   0.00000       0.00000    
      4912 MEOH     18       MEOH     HO2      DUMH      0.00000       1.00800           0   0.00000       0.00000    
      4913 MEOH     18       MEOH     H1A      HDA3B    0.800000E-01   1.00800           0   0.00000       0.00000    
      4914 MEOH     18       MEOH     H1B      HDA3B    0.800000E-01   1.00800           0   0.00000       0.00000    
      4915 MEOH     18       MEOH     H1C      HDA3B    0.800000E-01   1.00800           0   0.00000       0.00000    
      4916 MEOH     18       MEOH     LP1A     LPD     -0.230000       0.00000          -1   0.00000       0.00000    
      4917 MEOH     18       MEOH     LP1B     LPD     -0.230000       0.00000          -1   0.00000       0.00000    
      4918 MEOH     19       MEOH     C1       CD33B     2.31410       11.6110           0  -1.00000       1.30000    
      4919 MEOH     19       MEOH     DC1      DRUD     -2.45410      0.400000           0   0.00000       0.00000    
      4920 MEOH     19       MEOH     O1       OD31H     2.48830       15.5990           0  -1.02800       1.30000    
      4921 MEOH     19       MEOH     DO1      DRUD     -2.48830      0.400000           0   0.00000       0.00000    
      4922 MEOH     19       MEOH     HO1      HDP1A    0.360000       1.00800           0   0.00000       0.00000    
      4923 MEOH     19       MEOH     HO2      DUMH      0.00000       1.00800           0   0.00000       0.00000    
      4924 MEOH     19       MEOH     H1A      HDA3B    0.800000E-01   1.00800           0   0.00000       0.00000    
      4925 MEOH     19       MEOH     H1B      HDA3B    0.800000E-01   1.00800           0   0.00000       0.00000    
      4926 MEOH     19       MEOH     H1C      HDA3B    0.800000E-01   1.00800           0   0.00000       0.00000    
      4927 MEOH     19       MEOH     LP1A     LPD     -0.230000       0.00000          -1   0.00000       0.00000    
      4928 MEOH     19       MEOH     LP1B     LPD     -0.230000       0.00000          -1   0.00000       0.00000    
      4929 MEOH     20       MEOH     C1       CD33B     2.31410       11.6110           0  -1.00000       1.30000    
      4930 MEOH     20       MEOH     DC1      DRUD     -2.45410      0.400000           0   0.00000       0.00000    
      4931 MEOH     20       MEOH     O1       OD31H     2.48830       15.5990           0  -1.02800       1.30000    
      4932 MEOH     20       MEOH     DO1      DRUD     -2.48830      0.400000           0   0.00000       0.00000    
      4933 MEOH     20       MEOH     HO1      HDP1A    0.360000       1.00800           0   0.00000       0.00000    
      4934 MEOH     20       MEOH     HO2      DUMH      0.00000       1.00800           0   0.00000       0.00000    
      4935 MEOH     20       MEOH     H1A      HDA3B    0.800000E-01   1.00800           0   0.00000       0.00000    
      4936 MEOH     20       MEOH     H1B      HDA3B    0.800000E-01   1.00800           0   0.00000       0.00000    
      4937 MEOH     20       MEOH     H1C      HDA3B    0.800000E-01   1.00800           0   0.00000       0.00000    
      4938 MEOH     20       MEOH     LP1A     LPD     -0.230000       0.00000          -1   0.00000       0.00000    
      4939 MEOH     20       MEOH     LP1B     LPD     -0.230000       0.00000          -1   0.00000       0.00000    
      4940 MEOH     21       MEOH     C1       CD33B     2.31410       11.6110           0  -1.00000       1.30000    
      4941 MEOH     21       MEOH     DC1      DRUD     -2.45410      0.400000           0   0.00000       0.00000    
      4942 MEOH     21       MEOH     O1       OD31H     2.48830       15.5990           0  -1.02800       1.30000    
      4943 MEOH     21       MEOH     DO1      DRUD     -2.48830      0.400000           0   0.00000       0.00000    
      4944 MEOH     21       MEOH     HO1      HDP1A    0.360000       1.00800           0   0.00000       0.00000    
      4945 MEOH     21       MEOH     HO2      DUMH      0.00000       1.00800           0   0.00000       0.00000    
      4946 MEOH     21       MEOH     H1A      HDA3B    0.800000E-01   1.00800           0   0.00000       0.00000    
      4947 MEOH     21       MEOH     H1B      HDA3B    0.800000E-01   1.00800           0   0.00000       0.00000    
      4948 MEOH     21       MEOH     H1C      HDA3B    0.800000E-01   1.00800           0   0.00000       0.00000    
      4949 MEOH     21       MEOH     LP1A     LPD     -0.230000       0.00000          -1   0.00000       0.00000    
      4950 MEOH     21       MEOH     LP1B     LPD     -0.230000       0.00000          -1   0.00000       0.00000    
      4951 MEOH     22       MEOH     C1       CD33B     2.31410       11.6110           0  -1.00000       1.30000    
      4952 MEOH     22       MEOH     DC1      DRUD     -2.45410      0.400000           0   0.00000       0.00000    
      4953 MEOH     22       MEOH     O1       OD31H     2.48830       15.5990           0  -1.02800       1.30000    
      4954 MEOH     22       MEOH     DO1      DRUD     -2.48830      0.400000           0   0.00000       0.00000    
      4955 MEOH     22       MEOH     HO1      HDP1A    0.360000       1.00800           0   0.00000       0.00000    
      4956 MEOH     22       MEOH     HO2      DUMH      0.00000       1.00800           0   0.00000       0.00000    
      4957 MEOH     22       MEOH     H1A      HDA3B    0.800000E-01   1.00800           0   0.00000       0.00000    
      4958 MEOH     22       MEOH     H1B      HDA3B    0.800000E-01   1.00800           0   0.00000       0.00000    
      4959 MEOH     22       MEOH     H1C      HDA3B    0.800000E-01   1.00800           0   0.00000       0.00000    
      4960 MEOH     22       MEOH     LP1A     LPD     -0.230000       0.00000          -1   0.00000       0.00000    
      4961 MEOH     22       MEOH     LP1B     LPD     -0.230000       0.00000          -1   0.00000       0.00000    
      4962 MEOH     23       MEOH     C1       CD33B     2.31410       11.6110           0  -1.00000       1.30000    
      4963 MEOH     23       MEOH     DC1      DRUD     -2.45410      0.400000           0   0.00000       0.00000    
      4964 MEOH     23       MEOH     O1       OD31H     2.48830       15.5990           0  -1.02800       1.30000    
      4965 MEOH     23       MEOH     DO1      DRUD     -2.48830      0.400000           0   0.00000       0.00000    
      4966 MEOH     23       MEOH     HO1      HDP1A    0.360000       1.00800           0   0.00000       0.00000    
      4967 MEOH     23       MEOH     HO2      DUMH      0.00000       1.00800           0   0.00000       0.00000    
      4968 MEOH     23       MEOH     H1A      HDA3B    0.800000E-01   1.00800           0   0.00000       0.00000    
      4969 MEOH     23       MEOH     H1B      HDA3B    0.800000E-01   1.00800           0   0.00000       0.00000    
      4970 MEOH     23       MEOH     H1C      HDA3B    0.800000E-01   1.00800           0   0.00000       0.00000    
      4971 MEOH     23       MEOH     LP1A     LPD     -0.230000       0.00000          -1   0.00000       0.00000    
      4972 MEOH     23       MEOH     LP1B     LPD     -0.230000       0.00000          -1   0.00000       0.00000    
      4973 MEOH     24       MEOH     C1       CD33B     2.31410       11.6110           0  -1.00000       1.30000    
      4974 MEOH     24       MEOH     DC1      DRUD     -2.45410      0.400000           0   0.00000       0.00000    
      4975 MEOH     24       MEOH     O1       OD31H     2.48830       15.5990           0  -1.02800       1.30000    
      4976 MEOH     24       MEOH     DO1      DRUD     -2.48830      0.400000           0   0.00000       0.00000    
      4977 MEOH     24       MEOH     HO1      HDP1A    0.360000       1.00800           0   0.00000       0.00000    
      4978 MEOH     24       MEOH     HO2      DUMH      0.00000       1.00800           0   0.00000       0.00000    
      4979 MEOH     24       MEOH     H1A      HDA3B    0.800000E-01   1.00800           0   0.00000       0.00000    
      4980 MEOH     24       MEOH     H1B      HDA3B    0.800000E-01   1.00800           0   0.00000       0.00000    
      4981 MEOH     24       MEOH     H1C      HDA3B    0.800000E-01   1.00800           0   0.00000       0.00000    
      4982 MEOH     24       MEOH     LP1A     LPD     -0.230000       0.00000          -1   0.00000       0.00000    
      4983 MEOH     24       MEOH     LP1B     LPD     -0.230000       0.00000          -1   0.00000       0.00000    
      4984 MEOH     25       MEOH     C1       CD33B     2.31410       11.6110           0  -1.00000       1.30000    
      4985 MEOH     25       MEOH     DC1      DRUD     -2.45410      0.400000           0   0.00000       0.00000    
      4986 MEOH     25       MEOH     O1       OD31H     2.48830       15.5990           0  -1.02800       1.30000    
      4987 MEOH     25       MEOH     DO1      DRUD     -2.48830      0.400000           0   0.00000       0.00000    
      4988 MEOH     25       MEOH     HO1      HDP1A    0.360000       1.00800           0   0.00000       0.00000    
      4989 MEOH     25       MEOH     HO2      DUMH      0.00000       1.00800           0   0.00000       0.00000    
      4990 MEOH     25       MEOH     H1A      HDA3B    0.800000E-01   1.00800           0   0.00000       0.00000    
      4991 MEOH     25       MEOH     H1B      HDA3B    0.800000E-01   1.00800           0   0.00000       0.00000    
      4992 MEOH     25       MEOH     H1C      HDA3B    0.800000E-01   1.00800           0   0.00000       0.00000    
      4993 MEOH     25       MEOH     LP1A     LPD     -0.230000       0.00000          -1   0.00000       0.00000    
      4994 MEOH     25       MEOH     LP1B     LPD     -0.230000       0.00000          -1   0.00000       0.00000    
      4995 MEOH     26       MEOH     C1       CD33B     2.31410       11.6110           0  -1.00000       1.30000    
      4996 MEOH     26       MEOH     DC1      DRUD     -2.45410      0.400000           0   0.00000       0.00000    
      4997 MEOH     26       MEOH     O1       OD31H     2.48830       15.5990           0  -1.02800       1.30000    
      4998 MEOH     26       MEOH     DO1      DRUD     -2.48830      0.400000           0   0.00000       0.00000    
      4999 MEOH     26       MEOH     HO1      HDP1A    0.360000       1.00800           0   0.00000       0.00000    
      5000 MEOH     26       MEOH     HO2      DUMH      0.00000       1.00800           0   0.00000       0.00000    
      5001 MEOH     26       MEOH     H1A      HDA3B    0.800000E-01   1.00800           0   0.00000       0.00000    
      5002 MEOH     26       MEOH     H1B      HDA3B    0.800000E-01   1.00800           0   0.00000       0.00000    
      5003 MEOH     26       MEOH     H1C      HDA3B    0.800000E-01   1.00800           0   0.00000       0.00000    
      5004 MEOH     26       MEOH     LP1A     LPD     -0.230000       0.00000          -1   0.00000       0.00000    
      5005 MEOH     26       MEOH     LP1B     LPD     -0.230000       0.00000          -1   0.00000       0.00000    
      5006 MEOH     27       MEOH     C1       CD33B     2.31410       11.6110           0  -1.00000       1.30000    
      5007 MEOH     27       MEOH     DC1      DRUD     -2.45410      0.400000           0   0.00000       0.00000    
      5008 MEOH     27       MEOH     O1       OD31H     2.48830       15.5990           0  -1.02800       1.30000    
      5009 MEOH     27       MEOH     DO1      DRUD     -2.48830      0.400000           0   0.00000       0.00000    
      5010 MEOH     27       MEOH     HO1      HDP1A    0.360000       1.00800           0   0.00000       0.00000    
      5011 MEOH     27       MEOH     HO2      DUMH      0.00000       1.00800           0   0.00000       0.00000    
      5012 MEOH     27       MEOH     H1A      HDA3B    0.800000E-01   1.00800           0   0.00000       0.00000    
      5013 MEOH     27       MEOH     H1B      HDA3B    0.800000E-01   1.00800           0   0.00000       0.00000    
      5014 MEOH     27       MEOH     H1C      HDA3B    0.800000E-01   1.00800           0   0.00000       0.00000    
      5015 MEOH     27       MEOH     LP1A     LPD     -0.230000       0.00000          -1   0.00000       0.00000    
      5016 MEOH     27       MEOH     LP1B     LPD     -0.230000       0.00000          -1   0.00000       0.00000    
      5017 MEOH     28       MEOH     C1       CD33B     2.31410       11.6110           0  -1.00000       1.30000    
      5018 MEOH     28       MEOH     DC1      DRUD     -2.45410      0.400000           0   0.00000       0.00000    
      5019 MEOH     28       MEOH     O1       OD31H     2.48830       15.5990           0  -1.02800       1.30000    
      5020 MEOH     28       MEOH     DO1      DRUD     -2.48830      0.400000           0   0.00000       0.00000    
      5021 MEOH     28       MEOH     HO1      HDP1A    0.360000       1.00800           0   0.00000       0.00000    
      5022 MEOH     28       MEOH     HO2      DUMH      0.00000       1.00800           0   0.00000       0.00000    
      5023 MEOH     28       MEOH     H1A      HDA3B    0.800000E-01   1.00800           0   0.00000       0.00000    
      5024 MEOH     28       MEOH     H1B      HDA3B    0.800000E-01   1.00800           0   0.00000       0.00000    
      5025 MEOH     28       MEOH     H1C      HDA3B    0.800000E-01   1.00800           0   0.00000       0.00000    
      5026 MEOH     28       MEOH     LP1A     LPD     -0.230000       0.00000          -1   0.00000       0.00000    
      5027 MEOH     28       MEOH     LP1B     LPD     -0.230000       0.00000          -1   0.00000       0.00000    
      5028 MEOH     29       MEOH     C1       CD33B     2.31410       11.6110           0  -1.00000       1.30000    
      5029 MEOH     29       MEOH     DC1      DRUD     -2.45410      0.400000           0   0.00000       0.00000    
      5030 MEOH     29       MEOH     O1       OD31H     2.48830       15.5990           0  -1.02800       1.30000    
      5031 MEOH     29       MEOH     DO1      DRUD     -2.48830      0.400000           0   0.00000       0.00000    
      5032 MEOH     29       MEOH     HO1      HDP1A    0.360000       1.00800           0   0.00000       0.00000    
      5033 MEOH     29       MEOH     HO2      DUMH      0.00000       1.00800           0   0.00000       0.00000    
      5034 MEOH     29       MEOH     H1A      HDA3B    0.800000E-01   1.00800           0   0.00000       0.00000    
      5035 MEOH     29       MEOH     H1B      HDA3B    0.800000E-01   1.00800           0   0.00000       0.00000    
      5036 MEOH     29       MEOH     H1C      HDA3B    0.800000E-01   1.00800           0   0.00000       0.00000    
      5037 MEOH     29       MEOH     LP1A     LPD     -0.230000       0.00000          -1   0.00000       0.00000    
      5038 MEOH     29       MEOH     LP1B     LPD     -0.230000       0.00000          -1   0.00000       0.00000    
      5039 MEOH     30       MEOH     C1       CD33B     2.31410       11.6110           0  -1.00000       1.30000    
      5040 MEOH     30       MEOH     DC1      DRUD     -2.45410      0.400000           0   0.00000       0.00000    
      5041 MEOH     30       MEOH     O1       OD31H     2.48830       15.5990           0  -1.02800       1.30000    
      5042 MEOH     30       MEOH     DO1      DRUD     -2.48830      0.400000           0   0.00000       0.00000    
      5043 MEOH     30       MEOH     HO1      HDP1A    0.360000       1.00800           0   0.00000       0.00000    
      5044 MEOH     30       MEOH     HO2      DUMH      0.00000       1.00800           0   0.00000       0.00000    
      5045 MEOH     30       MEOH     H1A      HDA3B    0.800000E-01   1.00800           0   0.00000       0.00000    
      5046 MEOH     30       MEOH     H1B      HDA3B    0.800000E-01   1.00800           0   0.00000       0.00000    
      5047 MEOH     30       MEOH     H1C      HDA3B    0.800000E-01   1.00800           0   0.00000       0.00000    
      5048 MEOH     30       MEOH     LP1A     LPD     -0.230000       0.00000          -1   0.00000       0.00000    
      5049 MEOH     30       MEOH     LP1B     LPD     -0.230000       0.00000          -1   0.00000       0.00000    
      5050 MEOH     31       MEOH     C1       CD33B     2.31410       11.6110           0  -1.00000       1.30000    
      5051 MEOH     31       MEOH     DC1      DRUD     -2.45410      0.400000           0   0.00000       0.00000    
      5052 MEOH     31       MEOH     O1       OD31H     2.48830       15.5990           0  -1.02800       1.30000    
      5053 MEOH     31       MEOH     DO1      DRUD     -2.48830      0.400000           0   0.00000       0.00000    
      5054 MEOH     31       MEOH     HO1      HDP1A    0.360000       1.00800           0   0.00000       0.00000    
      5055 MEOH     31       MEOH     HO2      DUMH      0.00000       1.00800           0   0.00000       0.00000    
      5056 MEOH     31       MEOH     H1A      HDA3B    0.800000E-01   1.00800           0   0.00000       0.00000    
      5057 MEOH     31       MEOH     H1B      HDA3B    0.800000E-01   1.00800           0   0.00000       0.00000    
      5058 MEOH     31       MEOH     H1C      HDA3B    0.800000E-01   1.00800           0   0.00000       0.00000    
      5059 MEOH     31       MEOH     LP1A     LPD     -0.230000       0.00000          -1   0.00000       0.00000    
      5060 MEOH     31       MEOH     LP1B     LPD     -0.230000       0.00000          -1   0.00000       0.00000    
      5061 MEOH     32       MEOH     C1       CD33B     2.31410       11.6110           0  -1.00000       1.30000    
      5062 MEOH     32       MEOH     DC1      DRUD     -2.45410      0.400000           0   0.00000       0.00000    
      5063 MEOH     32       MEOH     O1       OD31H     2.48830       15.5990           0  -1.02800       1.30000    
      5064 MEOH     32       MEOH     DO1      DRUD     -2.48830      0.400000           0   0.00000       0.00000    
      5065 MEOH     32       MEOH     HO1      HDP1A    0.360000       1.00800           0   0.00000       0.00000    
      5066 MEOH     32       MEOH     HO2      DUMH      0.00000       1.00800           0   0.00000       0.00000    
      5067 MEOH     32       MEOH     H1A      HDA3B    0.800000E-01   1.00800           0   0.00000       0.00000    
      5068 MEOH     32       MEOH     H1B      HDA3B    0.800000E-01   1.00800           0   0.00000       0.00000    
      5069 MEOH     32       MEOH     H1C      HDA3B    0.800000E-01   1.00800           0   0.00000       0.00000    
      5070 MEOH     32       MEOH     LP1A     LPD     -0.230000       0.00000          -1   0.00000       0.00000    
      5071 MEOH     32       MEOH     LP1B     LPD     -0.230000       0.00000          -1   0.00000       0.00000    
      5072 MEOH     33       MEOH     C1       CD33B     2.31410       11.6110           0  -1.00000       1.30000    
      5073 MEOH     33       MEOH     DC1      DRUD     -2.45410      0.400000           0   0.00000       0.00000    
      5074 MEOH     33       MEOH     O1       OD31H     2.48830       15.5990           0  -1.02800       1.30000    
      5075 MEOH     33       MEOH     DO1      DRUD     -2.48830      0.400000           0   0.00000       0.00000    
      5076 MEOH     33       MEOH     HO1      HDP1A    0.360000       1.00800           0   0.00000       0.00000    
      5077 MEOH     33       MEOH     HO2      DUMH      0.00000       1.00800           0   0.00000       0.00000    
      5078 MEOH     33       MEOH     H1A      HDA3B    0.800000E-01   1.00800           0   0.00000       0.00000    
      5079 MEOH     33       MEOH     H1B      HDA3B    0.800000E-01   1.00800           0   0.00000       0.00000    
      5080 MEOH     33       MEOH     H1C      HDA3B    0.800000E-01   1.00800           0   0.00000       0.00000    
      5081 MEOH     33       MEOH     LP1A     LPD     -0.230000       0.00000          -1   0.00000       0.00000    
      5082 MEOH     33       MEOH     LP1B     LPD     -0.230000       0.00000          -1   0.00000       0.00000    
      5083 MEOH     34       MEOH     C1       CD33B     2.31410       11.6110           0  -1.00000       1.30000    
      5084 MEOH     34       MEOH     DC1      DRUD     -2.45410      0.400000           0   0.00000       0.00000    
      5085 MEOH     34       MEOH     O1       OD31H     2.48830       15.5990           0  -1.02800       1.30000    
      5086 MEOH     34       MEOH     DO1      DRUD     -2.48830      0.400000           0   0.00000       0.00000    
      5087 MEOH     34       MEOH     HO1      HDP1A    0.360000       1.00800           0   0.00000       0.00000    
      5088 MEOH     34       MEOH     HO2      DUMH      0.00000       1.00800           0   0.00000       0.00000    
      5089 MEOH     34       MEOH     H1A      HDA3B    0.800000E-01   1.00800           0   0.00000       0.00000    
      5090 MEOH     34       MEOH     H1B      HDA3B    0.800000E-01   1.00800           0   0.00000       0.00000    
      5091 MEOH     34       MEOH     H1C      HDA3B    0.800000E-01   1.00800           0   0.00000       0.00000    
      5092 MEOH     34       MEOH     LP1A     LPD     -0.230000       0.00000          -1   0.00000       0.00000    
      5093 MEOH     34       MEOH     LP1B     LPD     -0.230000       0.00000          -1   0.00000       0.00000    
      5094 MEOH     35       MEOH     C1       CD33B     2.31410       11.6110           0  -1.00000       1.30000    
      5095 MEOH     35       MEOH     DC1      DRUD     -2.45410      0.400000           0   0.00000       0.00000    
      5096 MEOH     35       MEOH     O1       OD31H     2.48830       15.5990           0  -1.02800       1.30000    
      5097 MEOH     35       MEOH     DO1      DRUD     -2.48830      0.400000           0   0.00000       0.00000    
      5098 MEOH     35       MEOH     HO1      HDP1A    0.360000       1.00800           0   0.00000       0.00000    
      5099 MEOH     35       MEOH     HO2      DUMH      0.00000       1.00800           0   0.00000       0.00000    
      5100 MEOH     35       MEOH     H1A      HDA3B    0.800000E-01   1.00800           0   0.00000       0.00000    
      5101 MEOH     35       MEOH     H1B      HDA3B    0.800000E-01   1.00800           0   0.00000       0.00000    
      5102 MEOH     35       MEOH     H1C      HDA3B    0.800000E-01   1.00800           0   0.00000       0.00000    
      5103 MEOH     35       MEOH     LP1A     LPD     -0.230000       0.00000          -1   0.00000       0.00000    
      5104 MEOH     35       MEOH     LP1B     LPD     -0.230000       0.00000          -1   0.00000       0.00000    
      5105 MEOH     36       MEOH     C1       CD33B     2.31410       11.6110           0  -1.00000       1.30000    
      5106 MEOH     36       MEOH     DC1      DRUD     -2.45410      0.400000           0   0.00000       0.00000    
      5107 MEOH     36       MEOH     O1       OD31H     2.48830       15.5990           0  -1.02800       1.30000    
      5108 MEOH     36       MEOH     DO1      DRUD     -2.48830      0.400000           0   0.00000       0.00000    
      5109 MEOH     36       MEOH     HO1      HDP1A    0.360000       1.00800           0   0.00000       0.00000    
      5110 MEOH     36       MEOH     HO2      DUMH      0.00000       1.00800           0   0.00000       0.00000    
      5111 MEOH     36       MEOH     H1A      HDA3B    0.800000E-01   1.00800           0   0.00000       0.00000    
      5112 MEOH     36       MEOH     H1B      HDA3B    0.800000E-01   1.00800           0   0.00000       0.00000    
      5113 MEOH     36       MEOH     H1C      HDA3B    0.800000E-01   1.00800           0   0.00000       0.00000    
      5114 MEOH     36       MEOH     LP1A     LPD     -0.230000       0.00000          -1   0.00000       0.00000    
      5115 MEOH     36       MEOH     LP1B     LPD     -0.230000       0.00000          -1   0.00000       0.00000    
      5116 MEOH     37       MEOH     C1       CD33B     2.31410       11.6110           0  -1.00000       1.30000    
      5117 MEOH     37       MEOH     DC1      DRUD     -2.45410      0.400000           0   0.00000       0.00000    
      5118 MEOH     37       MEOH     O1       OD31H     2.48830       15.5990           0  -1.02800       1.30000    
      5119 MEOH     37       MEOH     DO1      DRUD     -2.48830      0.400000           0   0.00000       0.00000    
      5120 MEOH     37       MEOH     HO1      HDP1A    0.360000       1.00800           0   0.00000       0.00000    
      5121 MEOH     37       MEOH     HO2      DUMH      0.00000       1.00800           0   0.00000       0.00000    
      5122 MEOH     37       MEOH     H1A      HDA3B    0.800000E-01   1.00800           0   0.00000       0.00000    
      5123 MEOH     37       MEOH     H1B      HDA3B    0.800000E-01   1.00800           0   0.00000       0.00000    
      5124 MEOH     37       MEOH     H1C      HDA3B    0.800000E-01   1.00800           0   0.00000       0.00000    
      5125 MEOH     37       MEOH     LP1A     LPD     -0.230000       0.00000          -1   0.00000       0.00000    
      5126 MEOH     37       MEOH     LP1B     LPD     -0.230000       0.00000          -1   0.00000       0.00000    
      5127 MEOH     38       MEOH     C1       CD33B     2.31410       11.6110           0  -1.00000       1.30000    
      5128 MEOH     38       MEOH     DC1      DRUD     -2.45410      0.400000           0   0.00000       0.00000    
      5129 MEOH     38       MEOH     O1       OD31H     2.48830       15.5990           0  -1.02800       1.30000    
      5130 MEOH     38       MEOH     DO1      DRUD     -2.48830      0.400000           0   0.00000       0.00000    
      5131 MEOH     38       MEOH     HO1      HDP1A    0.360000       1.00800           0   0.00000       0.00000    
      5132 MEOH     38       MEOH     HO2      DUMH      0.00000       1.00800           0   0.00000       0.00000    
      5133 MEOH     38       MEOH     H1A      HDA3B    0.800000E-01   1.00800           0   0.00000       0.00000    
      5134 MEOH     38       MEOH     H1B      HDA3B    0.800000E-01   1.00800           0   0.00000       0.00000    
      5135 MEOH     38       MEOH     H1C      HDA3B    0.800000E-01   1.00800           0   0.00000       0.00000    
      5136 MEOH     38       MEOH     LP1A     LPD     -0.230000       0.00000          -1   0.00000       0.00000    
      5137 MEOH     38       MEOH     LP1B     LPD     -0.230000       0.00000          -1   0.00000       0.00000    
      5138 MEOH     39       MEOH     C1       CD33B     2.31410       11.6110           0  -1.00000       1.30000    
      5139 MEOH     39       MEOH     DC1      DRUD     -2.45410      0.400000           0   0.00000       0.00000    
      5140 MEOH     39       MEOH     O1       OD31H     2.48830       15.5990           0  -1.02800       1.30000    
      5141 MEOH     39       MEOH     DO1      DRUD     -2.48830      0.400000           0   0.00000       0.00000    
      5142 MEOH     39       MEOH     HO1      HDP1A    0.360000       1.00800           0   0.00000       0.00000    
      5143 MEOH     39       MEOH     HO2      DUMH      0.00000       1.00800           0   0.00000       0.00000    
      5144 MEOH     39       MEOH     H1A      HDA3B    0.800000E-01   1.00800           0   0.00000       0.00000    
      5145 MEOH     39       MEOH     H1B      HDA3B    0.800000E-01   1.00800           0   0.00000       0.00000    
      5146 MEOH     39       MEOH     H1C      HDA3B    0.800000E-01   1.00800           0   0.00000       0.00000    
      5147 MEOH     39       MEOH     LP1A     LPD     -0.230000       0.00000          -1   0.00000       0.00000    
      5148 MEOH     39       MEOH     LP1B     LPD     -0.230000       0.00000          -1   0.00000       0.00000    
      5149 MEOH     40       MEOH     C1       CD33B     2.31410       11.6110           0  -1.00000       1.30000    
      5150 MEOH     40       MEOH     DC1      DRUD     -2.45410      0.400000           0   0.00000       0.00000    
      5151 MEOH     40       MEOH     O1       OD31H     2.48830       15.5990           0  -1.02800       1.30000    
      5152 MEOH     40       MEOH     DO1      DRUD     -2.48830      0.400000           0   0.00000       0.00000    
      5153 MEOH     40       MEOH     HO1      HDP1A    0.360000       1.00800           0   0.00000       0.00000    
      5154 MEOH     40       MEOH     HO2      DUMH      0.00000       1.00800           0   0.00000       0.00000    
      5155 MEOH     40       MEOH     H1A      HDA3B    0.800000E-01   1.00800           0   0.00000       0.00000    
      5156 MEOH     40       MEOH     H1B      HDA3B    0.800000E-01   1.00800           0   0.00000       0.00000    
      5157 MEOH     40       MEOH     H1C      HDA3B    0.800000E-01   1.00800           0   0.00000       0.00000    
      5158 MEOH     40       MEOH     LP1A     LPD     -0.230000       0.00000          -1   0.00000       0.00000    
      5159 MEOH     40       MEOH     LP1B     LPD     -0.230000       0.00000          -1   0.00000       0.00000    
      5160 MEOH     41       MEOH     C1       CD33B     2.31410       11.6110           0  -1.00000       1.30000    
      5161 MEOH     41       MEOH     DC1      DRUD     -2.45410      0.400000           0   0.00000       0.00000    
      5162 MEOH     41       MEOH     O1       OD31H     2.48830       15.5990           0  -1.02800       1.30000    
      5163 MEOH     41       MEOH     DO1      DRUD     -2.48830      0.400000           0   0.00000       0.00000    
      5164 MEOH     41       MEOH     HO1      HDP1A    0.360000       1.00800           0   0.00000       0.00000    
      5165 MEOH     41       MEOH     HO2      DUMH      0.00000       1.00800           0   0.00000       0.00000    
      5166 MEOH     41       MEOH     H1A      HDA3B    0.800000E-01   1.00800           0   0.00000       0.00000    
      5167 MEOH     41       MEOH     H1B      HDA3B    0.800000E-01   1.00800           0   0.00000       0.00000    
      5168 MEOH     41       MEOH     H1C      HDA3B    0.800000E-01   1.00800           0   0.00000       0.00000    
      5169 MEOH     41       MEOH     LP1A     LPD     -0.230000       0.00000          -1   0.00000       0.00000    
      5170 MEOH     41       MEOH     LP1B     LPD     -0.230000       0.00000          -1   0.00000       0.00000    
      5171 MEOH     42       MEOH     C1       CD33B     2.31410       11.6110           0  -1.00000       1.30000    
      5172 MEOH     42       MEOH     DC1      DRUD     -2.45410      0.400000           0   0.00000       0.00000    
      5173 MEOH     42       MEOH     O1       OD31H     2.48830       15.5990           0  -1.02800       1.30000    
      5174 MEOH     42       MEOH     DO1      DRUD     -2.48830      0.400000           0   0.00000       0.00000    
      5175 MEOH     42       MEOH     HO1      HDP1A    0.360000       1.00800           0   0.00000       0.00000    
      5176 MEOH     42       MEOH     HO2      DUMH      0.00000       1.00800           0   0.00000       0.00000    
      5177 MEOH     42       MEOH     H1A      HDA3B    0.800000E-01   1.00800           0   0.00000       0.00000    
      5178 MEOH     42       MEOH     H1B      HDA3B    0.800000E-01   1.00800           0   0.00000       0.00000    
      5179 MEOH     42       MEOH     H1C      HDA3B    0.800000E-01   1.00800           0   0.00000       0.00000    
      5180 MEOH     42       MEOH     LP1A     LPD     -0.230000       0.00000          -1   0.00000       0.00000    
      5181 MEOH     42       MEOH     LP1B     LPD     -0.230000       0.00000          -1   0.00000       0.00000    
      5182 MEOH     43       MEOH     C1       CD33B     2.31410       11.6110           0  -1.00000       1.30000    
      5183 MEOH     43       MEOH     DC1      DRUD     -2.45410      0.400000           0   0.00000       0.00000    
      5184 MEOH     43       MEOH     O1       OD31H     2.48830       15.5990           0  -1.02800       1.30000    
      5185 MEOH     43       MEOH     DO1      DRUD     -2.48830      0.400000           0   0.00000       0.00000    
      5186 MEOH     43       MEOH     HO1      HDP1A    0.360000       1.00800           0   0.00000       0.00000    
      5187 MEOH     43       MEOH     HO2      DUMH      0.00000       1.00800           0   0.00000       0.00000    
      5188 MEOH     43       MEOH     H1A      HDA3B    0.800000E-01   1.00800           0   0.00000       0.00000    
      5189 MEOH     43       MEOH     H1B      HDA3B    0.800000E-01   1.00800           0   0.00000       0.00000    
      5190 MEOH     43       MEOH     H1C      HDA3B    0.800000E-01   1.00800           0   0.00000       0.00000    
      5191 MEOH     43       MEOH     LP1A     LPD     -0.230000       0.00000          -1   0.00000       0.00000    
      5192 MEOH     43       MEOH     LP1B     LPD     -0.230000       0.00000          -1   0.00000       0.00000    
      5193 MEOH     44       MEOH     C1       CD33B     2.31410       11.6110           0  -1.00000       1.30000    
      5194 MEOH     44       MEOH     DC1      DRUD     -2.45410      0.400000           0   0.00000       0.00000    
      5195 MEOH     44       MEOH     O1       OD31H     2.48830       15.5990           0  -1.02800       1.30000    
      5196 MEOH     44       MEOH     DO1      DRUD     -2.48830      0.400000           0   0.00000       0.00000    
      5197 MEOH     44       MEOH     HO1      HDP1A    0.360000       1.00800           0   0.00000       0.00000    
      5198 MEOH     44       MEOH     HO2      DUMH      0.00000       1.00800           0   0.00000       0.00000    
      5199 MEOH     44       MEOH     H1A      HDA3B    0.800000E-01   1.00800           0   0.00000       0.00000    
      5200 MEOH     44       MEOH     H1B      HDA3B    0.800000E-01   1.00800           0   0.00000       0.00000    
      5201 MEOH     44       MEOH     H1C      HDA3B    0.800000E-01   1.00800           0   0.00000       0.00000    
      5202 MEOH     44       MEOH     LP1A     LPD     -0.230000       0.00000          -1   0.00000       0.00000    
      5203 MEOH     44       MEOH     LP1B     LPD     -0.230000       0.00000          -1   0.00000       0.00000    
      5204 MEOH     45       MEOH     C1       CD33B     2.31410       11.6110           0  -1.00000       1.30000    
      5205 MEOH     45       MEOH     DC1      DRUD     -2.45410      0.400000           0   0.00000       0.00000    
      5206 MEOH     45       MEOH     O1       OD31H     2.48830       15.5990           0  -1.02800       1.30000    
      5207 MEOH     45       MEOH     DO1      DRUD     -2.48830      0.400000           0   0.00000       0.00000    
      5208 MEOH     45       MEOH     HO1      HDP1A    0.360000       1.00800           0   0.00000       0.00000    
      5209 MEOH     45       MEOH     HO2      DUMH      0.00000       1.00800           0   0.00000       0.00000    
      5210 MEOH     45       MEOH     H1A      HDA3B    0.800000E-01   1.00800           0   0.00000       0.00000    
      5211 MEOH     45       MEOH     H1B      HDA3B    0.800000E-01   1.00800           0   0.00000       0.00000    
      5212 MEOH     45       MEOH     H1C      HDA3B    0.800000E-01   1.00800           0   0.00000       0.00000    
      5213 MEOH     45       MEOH     LP1A     LPD     -0.230000       0.00000          -1   0.00000       0.00000    
      5214 MEOH     45       MEOH     LP1B     LPD     -0.230000       0.00000          -1   0.00000       0.00000    
      5215 MEOH     46       MEOH     C1       CD33B     2.31410       11.6110           0  -1.00000       1.30000    
      5216 MEOH     46       MEOH     DC1      DRUD     -2.45410      0.400000           0   0.00000       0.00000    
      5217 MEOH     46       MEOH     O1       OD31H     2.48830       15.5990           0  -1.02800       1.30000    
      5218 MEOH     46       MEOH     DO1      DRUD     -2.48830      0.400000           0   0.00000       0.00000    
      5219 MEOH     46       MEOH     HO1      HDP1A    0.360000       1.00800           0   0.00000       0.00000    
      5220 MEOH     46       MEOH     HO2      DUMH      0.00000       1.00800           0   0.00000       0.00000    
      5221 MEOH     46       MEOH     H1A      HDA3B    0.800000E-01   1.00800           0   0.00000       0.00000    
      5222 MEOH     46       MEOH     H1B      HDA3B    0.800000E-01   1.00800           0   0.00000       0.00000    
      5223 MEOH     46       MEOH     H1C      HDA3B    0.800000E-01   1.00800           0   0.00000       0.00000    
      5224 MEOH     46       MEOH     LP1A     LPD     -0.230000       0.00000          -1   0.00000       0.00000    
      5225 MEOH     46       MEOH     LP1B     LPD     -0.230000       0.00000          -1   0.00000       0.00000    
      5226 MEOH     47       MEOH     C1       CD33B     2.31410       11.6110           0  -1.00000       1.30000    
      5227 MEOH     47       MEOH     DC1      DRUD     -2.45410      0.400000           0   0.00000       0.00000    
      5228 MEOH     47       MEOH     O1       OD31H     2.48830       15.5990           0  -1.02800       1.30000    
      5229 MEOH     47       MEOH     DO1      DRUD     -2.48830      0.400000           0   0.00000       0.00000    
      5230 MEOH     47       MEOH     HO1      HDP1A    0.360000       1.00800           0   0.00000       0.00000    
      5231 MEOH     47       MEOH     HO2      DUMH      0.00000       1.00800           0   0.00000       0.00000    
      5232 MEOH     47       MEOH     H1A      HDA3B    0.800000E-01   1.00800           0   0.00000       0.00000    
      5233 MEOH     47       MEOH     H1B      HDA3B    0.800000E-01   1.00800           0   0.00000       0.00000    
      5234 MEOH     47       MEOH     H1C      HDA3B    0.800000E-01   1.00800           0   0.00000       0.00000    
      5235 MEOH     47       MEOH     LP1A     LPD     -0.230000       0.00000          -1   0.00000       0.00000    
      5236 MEOH     47       MEOH     LP1B     LPD     -0.230000       0.00000          -1   0.00000       0.00000    
      5237 MEOH     48       MEOH     C1       CD33B     2.31410       11.6110           0  -1.00000       1.30000    
      5238 MEOH     48       MEOH     DC1      DRUD     -2.45410      0.400000           0   0.00000       0.00000    
      5239 MEOH     48       MEOH     O1       OD31H     2.48830       15.5990           0  -1.02800       1.30000    
      5240 MEOH     48       MEOH     DO1      DRUD     -2.48830      0.400000           0   0.00000       0.00000    
      5241 MEOH     48       MEOH     HO1      HDP1A    0.360000       1.00800           0   0.00000       0.00000    
      5242 MEOH     48       MEOH     HO2      DUMH      0.00000       1.00800           0   0.00000       0.00000    
      5243 MEOH     48       MEOH     H1A      HDA3B    0.800000E-01   1.00800           0   0.00000       0.00000    
      5244 MEOH     48       MEOH     H1B      HDA3B    0.800000E-01   1.00800           0   0.00000       0.00000    
      5245 MEOH     48       MEOH     H1C      HDA3B    0.800000E-01   1.00800           0   0.00000       0.00000    
      5246 MEOH     48       MEOH     LP1A     LPD     -0.230000       0.00000          -1   0.00000       0.00000    
      5247 MEOH     48       MEOH     LP1B     LPD     -0.230000       0.00000          -1   0.00000       0.00000    
      5248 MEOH     49       MEOH     C1       CD33B     2.31410       11.6110           0  -1.00000       1.30000    
      5249 MEOH     49       MEOH     DC1      DRUD     -2.45410      0.400000           0   0.00000       0.00000    
      5250 MEOH     49       MEOH     O1       OD31H     2.48830       15.5990           0  -1.02800       1.30000    
      5251 MEOH     49       MEOH     DO1      DRUD     -2.48830      0.400000           0   0.00000       0.00000    
      5252 MEOH     49       MEOH     HO1      HDP1A    0.360000       1.00800           0   0.00000       0.00000    
      5253 MEOH     49       MEOH     HO2      DUMH      0.00000       1.00800           0   0.00000       0.00000    
      5254 MEOH     49       MEOH     H1A      HDA3B    0.800000E-01   1.00800           0   0.00000       0.00000    
      5255 MEOH     49       MEOH     H1B      HDA3B    0.800000E-01   1.00800           0   0.00000       0.00000    
      5256 MEOH     49       MEOH     H1C      HDA3B    0.800000E-01   1.00800           0   0.00000       0.00000    
      5257 MEOH     49       MEOH     LP1A     LPD     -0.230000       0.00000          -1   0.00000       0.00000    
      5258 MEOH     49       MEOH     LP1B     LPD     -0.230000       0.00000          -1   0.00000       0.00000    
      5259 MEOH     50       MEOH     C1       CD33B     2.31410       11.6110           0  -1.00000       1.30000    
      5260 MEOH     50       MEOH     DC1      DRUD     -2.45410      0.400000           0   0.00000       0.00000    
      5261 MEOH     50       MEOH     O1       OD31H     2.48830       15.5990           0  -1.02800       1.30000    
      5262 MEOH     50       MEOH     DO1      DRUD     -2.48830      0.400000           0   0.00000       0.00000    
      5263 MEOH     50       MEOH     HO1      HDP1A    0.360000       1.00800           0   0.00000       0.00000    
      5264 MEOH     50       MEOH     HO2      DUMH      0.00000       1.00800           0   0.00000       0.00000    
      5265 MEOH     50       MEOH     H1A      HDA3B    0.800000E-01   1.00800           0   0.00000       0.00000    
      5266 MEOH     50       MEOH     H1B      HDA3B    0.800000E-01   1.00800           0   0.00000       0.00000    
      5267 MEOH     50       MEOH     H1C      HDA3B    0.800000E-01   1.00800           0   0.00000       0.00000    
      5268 MEOH     50       MEOH     LP1A     LPD     -0.230000       0.00000          -1   0.00000       0.00000    
      5269 MEOH     50       MEOH     LP1B     LPD     -0.230000       0.00000          -1   0.00000       0.00000    
      5270 MEOH     51       MEOH     C1       CD33B     2.31410       11.6110           0  -1.00000       1.30000    
      5271 MEOH     51       MEOH     DC1      DRUD     -2.45410      0.400000           0   0.00000       0.00000    
      5272 MEOH     51       MEOH     O1       OD31H     2.48830       15.5990           0  -1.02800       1.30000    
      5273 MEOH     51       MEOH     DO1      DRUD     -2.48830      0.400000           0   0.00000       0.00000    
      5274 MEOH     51       MEOH     HO1      HDP1A    0.360000       1.00800           0   0.00000       0.00000    
      5275 MEOH     51       MEOH     HO2      DUMH      0.00000       1.00800           0   0.00000       0.00000    
      5276 MEOH     51       MEOH     H1A      HDA3B    0.800000E-01   1.00800           0   0.00000       0.00000    
      5277 MEOH     51       MEOH     H1B      HDA3B    0.800000E-01   1.00800           0   0.00000       0.00000    
      5278 MEOH     51       MEOH     H1C      HDA3B    0.800000E-01   1.00800           0   0.00000       0.00000    
      5279 MEOH     51       MEOH     LP1A     LPD     -0.230000       0.00000          -1   0.00000       0.00000    
      5280 MEOH     51       MEOH     LP1B     LPD     -0.230000       0.00000          -1   0.00000       0.00000    
      5281 MEOH     52       MEOH     C1       CD33B     2.31410       11.6110           0  -1.00000       1.30000    
      5282 MEOH     52       MEOH     DC1      DRUD     -2.45410      0.400000           0   0.00000       0.00000    
      5283 MEOH     52       MEOH     O1       OD31H     2.48830       15.5990           0  -1.02800       1.30000    
      5284 MEOH     52       MEOH     DO1      DRUD     -2.48830      0.400000           0   0.00000       0.00000    
      5285 MEOH     52       MEOH     HO1      HDP1A    0.360000       1.00800           0   0.00000       0.00000    
      5286 MEOH     52       MEOH     HO2      DUMH      0.00000       1.00800           0   0.00000       0.00000    
      5287 MEOH     52       MEOH     H1A      HDA3B    0.800000E-01   1.00800           0   0.00000       0.00000    
      5288 MEOH     52       MEOH     H1B      HDA3B    0.800000E-01   1.00800           0   0.00000       0.00000    
      5289 MEOH     52       MEOH     H1C      HDA3B    0.800000E-01   1.00800           0   0.00000       0.00000    
      5290 MEOH     52       MEOH     LP1A     LPD     -0.230000       0.00000          -1   0.00000       0.00000    
      5291 MEOH     52       MEOH     LP1B     LPD     -0.230000       0.00000          -1   0.00000       0.00000    
      5292 MEOH     53       MEOH     C1       CD33B     2.31410       11.6110           0  -1.00000       1.30000    
      5293 MEOH     53       MEOH     DC1      DRUD     -2.45410      0.400000           0   0.00000       0.00000    
      5294 MEOH     53       MEOH     O1       OD31H     2.48830       15.5990           0  -1.02800       1.30000    
      5295 MEOH     53       MEOH     DO1      DRUD     -2.48830      0.400000           0   0.00000       0.00000    
      5296 MEOH     53       MEOH     HO1      HDP1A    0.360000       1.00800           0   0.00000       0.00000    
      5297 MEOH     53       MEOH     HO2      DUMH      0.00000       1.00800           0   0.00000       0.00000    
      5298 MEOH     53       MEOH     H1A      HDA3B    0.800000E-01   1.00800           0   0.00000       0.00000    
      5299 MEOH     53       MEOH     H1B      HDA3B    0.800000E-01   1.00800           0   0.00000       0.00000    
      5300 MEOH     53       MEOH     H1C      HDA3B    0.800000E-01   1.00800           0   0.00000       0.00000    
      5301 MEOH     53       MEOH     LP1A     LPD     -0.230000       0.00000          -1   0.00000       0.00000    
      5302 MEOH     53       MEOH     LP1B     LPD     -0.230000       0.00000          -1   0.00000       0.00000    
      5303 MEOH     54       MEOH     C1       CD33B     2.31410       11.6110           0  -1.00000       1.30000    
      5304 MEOH     54       MEOH     DC1      DRUD     -2.45410      0.400000           0   0.00000       0.00000    
      5305 MEOH     54       MEOH     O1       OD31H     2.48830       15.5990           0  -1.02800       1.30000    
      5306 MEOH     54       MEOH     DO1      DRUD     -2.48830      0.400000           0   0.00000       0.00000    
      5307 MEOH     54       MEOH     HO1      HDP1A    0.360000       1.00800           0   0.00000       0.00000    
      5308 MEOH     54       MEOH     HO2      DUMH      0.00000       1.00800           0   0.00000       0.00000    
      5309 MEOH     54       MEOH     H1A      HDA3B    0.800000E-01   1.00800           0   0.00000       0.00000    
      5310 MEOH     54       MEOH     H1B      HDA3B    0.800000E-01   1.00800           0   0.00000       0.00000    
      5311 MEOH     54       MEOH     H1C      HDA3B    0.800000E-01   1.00800           0   0.00000       0.00000    
      5312 MEOH     54       MEOH     LP1A     LPD     -0.230000       0.00000          -1   0.00000       0.00000    
      5313 MEOH     54       MEOH     LP1B     LPD     -0.230000       0.00000          -1   0.00000       0.00000    
      5314 MEOH     55       MEOH     C1       CD33B     2.31410       11.6110           0  -1.00000       1.30000    
      5315 MEOH     55       MEOH     DC1      DRUD     -2.45410      0.400000           0   0.00000       0.00000    
      5316 MEOH     55       MEOH     O1       OD31H     2.48830       15.5990           0  -1.02800       1.30000    
      5317 MEOH     55       MEOH     DO1      DRUD     -2.48830      0.400000           0   0.00000       0.00000    
      5318 MEOH     55       MEOH     HO1      HDP1A    0.360000       1.00800           0   0.00000       0.00000    
      5319 MEOH     55       MEOH     HO2      DUMH      0.00000       1.00800           0   0.00000       0.00000    
      5320 MEOH     55       MEOH     H1A      HDA3B    0.800000E-01   1.00800           0   0.00000       0.00000    
      5321 MEOH     55       MEOH     H1B      HDA3B    0.800000E-01   1.00800           0   0.00000       0.00000    
      5322 MEOH     55       MEOH     H1C      HDA3B    0.800000E-01   1.00800           0   0.00000       0.00000    
      5323 MEOH     55       MEOH     LP1A     LPD     -0.230000       0.00000          -1   0.00000       0.00000    
      5324 MEOH     55       MEOH     LP1B     LPD     -0.230000       0.00000          -1   0.00000       0.00000    
      5325 MEOH     56       MEOH     C1       CD33B     2.31410       11.6110           0  -1.00000       1.30000    
      5326 MEOH     56       MEOH     DC1      DRUD     -2.45410      0.400000           0   0.00000       0.00000    
      5327 MEOH     56       MEOH     O1       OD31H     2.48830       15.5990           0  -1.02800       1.30000    
      5328 MEOH     56       MEOH     DO1      DRUD     -2.48830      0.400000           0   0.00000       0.00000    
      5329 MEOH     56       MEOH     HO1      HDP1A    0.360000       1.00800           0   0.00000       0.00000    
      5330 MEOH     56       MEOH     HO2      DUMH      0.00000       1.00800           0   0.00000       0.00000    
      5331 MEOH     56       MEOH     H1A      HDA3B    0.800000E-01   1.00800           0   0.00000       0.00000    
      5332 MEOH     56       MEOH     H1B      HDA3B    0.800000E-01   1.00800           0   0.00000       0.00000    
      5333 MEOH     56       MEOH     H1C      HDA3B    0.800000E-01   1.00800           0   0.00000       0.00000    
      5334 MEOH     56       MEOH     LP1A     LPD     -0.230000       0.00000          -1   0.00000       0.00000    
      5335 MEOH     56       MEOH     LP1B     LPD     -0.230000       0.00000          -1   0.00000       0.00000    
      5336 MEOH     57       MEOH     C1       CD33B     2.31410       11.6110           0  -1.00000       1.30000    
      5337 MEOH     57       MEOH     DC1      DRUD     -2.45410      0.400000           0   0.00000       0.00000    
      5338 MEOH     57       MEOH     O1       OD31H     2.48830       15.5990           0  -1.02800       1.30000    
      5339 MEOH     57       MEOH     DO1      DRUD     -2.48830      0.400000           0   0.00000       0.00000    
      5340 MEOH     57       MEOH     HO1      HDP1A    0.360000       1.00800           0   0.00000       0.00000    
      5341 MEOH     57       MEOH     HO2      DUMH      0.00000       1.00800           0   0.00000       0.00000    
      5342 MEOH     57       MEOH     H1A      HDA3B    0.800000E-01   1.00800           0   0.00000       0.00000    
      5343 MEOH     57       MEOH     H1B      HDA3B    0.800000E-01   1.00800           0   0.00000       0.00000    
      5344 MEOH     57       MEOH     H1C      HDA3B    0.800000E-01   1.00800           0   0.00000       0.00000    
      5345 MEOH     57       MEOH     LP1A     LPD     -0.230000       0.00000          -1   0.00000       0.00000    
      5346 MEOH     57       MEOH     LP1B     LPD     -0.230000       0.00000          -1   0.00000       0.00000    
      5347 MEOH     58       MEOH     C1       CD33B     2.31410       11.6110           0  -1.00000       1.30000    
      5348 MEOH     58       MEOH     DC1      DRUD     -2.45410      0.400000           0   0.00000       0.00000    
      5349 MEOH     58       MEOH     O1       OD31H     2.48830       15.5990           0  -1.02800       1.30000    
      5350 MEOH     58       MEOH     DO1      DRUD     -2.48830      0.400000           0   0.00000       0.00000    
      5351 MEOH     58       MEOH     HO1      HDP1A    0.360000       1.00800           0   0.00000       0.00000    
      5352 MEOH     58       MEOH     HO2      DUMH      0.00000       1.00800           0   0.00000       0.00000    
      5353 MEOH     58       MEOH     H1A      HDA3B    0.800000E-01   1.00800           0   0.00000       0.00000    
      5354 MEOH     58       MEOH     H1B      HDA3B    0.800000E-01   1.00800           0   0.00000       0.00000    
      5355 MEOH     58       MEOH     H1C      HDA3B    0.800000E-01   1.00800           0   0.00000       0.00000    
      5356 MEOH     58       MEOH     LP1A     LPD     -0.230000       0.00000          -1   0.00000       0.00000    
      5357 MEOH     58       MEOH     LP1B     LPD     -0.230000       0.00000          -1   0.00000       0.00000    
      5358 MEOH     59       MEOH     C1       CD33B     2.31410       11.6110           0  -1.00000       1.30000    
      5359 MEOH     59       MEOH     DC1      DRUD     -2.45410      0.400000           0   0.00000       0.00000    
      5360 MEOH     59       MEOH     O1       OD31H     2.48830       15.5990           0  -1.02800       1.30000    
      5361 MEOH     59       MEOH     DO1      DRUD     -2.48830      0.400000           0   0.00000       0.00000    
      5362 MEOH     59       MEOH     HO1      HDP1A    0.360000       1.00800           0   0.00000       0.00000    
      5363 MEOH     59       MEOH     HO2      DUMH      0.00000       1.00800           0   0.00000       0.00000    
      5364 MEOH     59       MEOH     H1A      HDA3B    0.800000E-01   1.00800           0   0.00000       0.00000    
      5365 MEOH     59       MEOH     H1B      HDA3B    0.800000E-01   1.00800           0   0.00000       0.00000    
      5366 MEOH     59       MEOH     H1C      HDA3B    0.800000E-01   1.00800           0   0.00000       0.00000    
      5367 MEOH     59       MEOH     LP1A     LPD     -0.230000       0.00000          -1   0.00000       0.00000    
      5368 MEOH     59       MEOH     LP1B     LPD     -0.230000       0.00000          -1   0.00000       0.00000    
      5369 MEOH     60       MEOH     C1       CD33B     2.31410       11.6110           0  -1.00000       1.30000    
      5370 MEOH     60       MEOH     DC1      DRUD     -2.45410      0.400000           0   0.00000       0.00000    
      5371 MEOH     60       MEOH     O1       OD31H     2.48830       15.5990           0  -1.02800       1.30000    
      5372 MEOH     60       MEOH     DO1      DRUD     -2.48830      0.400000           0   0.00000       0.00000    
      5373 MEOH     60       MEOH     HO1      HDP1A    0.360000       1.00800           0   0.00000       0.00000    
      5374 MEOH     60       MEOH     HO2      DUMH      0.00000       1.00800           0   0.00000       0.00000    
      5375 MEOH     60       MEOH     H1A      HDA3B    0.800000E-01   1.00800           0   0.00000       0.00000    
      5376 MEOH     60       MEOH     H1B      HDA3B    0.800000E-01   1.00800           0   0.00000       0.00000    
      5377 MEOH     60       MEOH     H1C      HDA3B    0.800000E-01   1.00800           0   0.00000       0.00000    
      5378 MEOH     60       MEOH     LP1A     LPD     -0.230000       0.00000          -1   0.00000       0.00000    
      5379 MEOH     60       MEOH     LP1B     LPD     -0.230000       0.00000          -1   0.00000       0.00000    
      5380 MEOH     61       MEOH     C1       CD33B     2.31410       11.6110           0  -1.00000       1.30000    
      5381 MEOH     61       MEOH     DC1      DRUD     -2.45410      0.400000           0   0.00000       0.00000    
      5382 MEOH     61       MEOH     O1       OD31H     2.48830       15.5990           0  -1.02800       1.30000    
      5383 MEOH     61       MEOH     DO1      DRUD     -2.48830      0.400000           0   0.00000       0.00000    
      5384 MEOH     61       MEOH     HO1      HDP1A    0.360000       1.00800           0   0.00000       0.00000    
      5385 MEOH     61       MEOH     HO2      DUMH      0.00000       1.00800           0   0.00000       0.00000    
      5386 MEOH     61       MEOH     H1A      HDA3B    0.800000E-01   1.00800           0   0.00000       0.00000    
      5387 MEOH     61       MEOH     H1B      HDA3B    0.800000E-01   1.00800           0   0.00000       0.00000    
      5388 MEOH     61       MEOH     H1C      HDA3B    0.800000E-01   1.00800           0   0.00000       0.00000    
      5389 MEOH     61       MEOH     LP1A     LPD     -0.230000       0.00000          -1   0.00000       0.00000    
      5390 MEOH     61       MEOH     LP1B     LPD     -0.230000       0.00000          -1   0.00000       0.00000    
      5391 MEOH     62       MEOH     C1       CD33B     2.31410       11.6110           0  -1.00000       1.30000    
      5392 MEOH     62       MEOH     DC1      DRUD     -2.45410      0.400000           0   0.00000       0.00000    
      5393 MEOH     62       MEOH     O1       OD31H     2.48830       15.5990           0  -1.02800       1.30000    
      5394 MEOH     62       MEOH     DO1      DRUD     -2.48830      0.400000           0   0.00000       0.00000    
      5395 MEOH     62       MEOH     HO1      HDP1A    0.360000       1.00800           0   0.00000       0.00000    
      5396 MEOH     62       MEOH     HO2      DUMH      0.00000       1.00800           0   0.00000       0.00000    
      5397 MEOH     62       MEOH     H1A      HDA3B    0.800000E-01   1.00800           0   0.00000       0.00000    
      5398 MEOH     62       MEOH     H1B      HDA3B    0.800000E-01   1.00800           0   0.00000       0.00000    
      5399 MEOH     62       MEOH     H1C      HDA3B    0.800000E-01   1.00800           0   0.00000       0.00000    
      5400 MEOH     62       MEOH     LP1A     LPD     -0.230000       0.00000          -1   0.00000       0.00000    
      5401 MEOH     62       MEOH     LP1B     LPD     -0.230000       0.00000          -1   0.00000       0.00000    
      5402 MEOH     63       MEOH     C1       CD33B     2.31410       11.6110           0  -1.00000       1.30000    
      5403 MEOH     63       MEOH     DC1      DRUD     -2.45410      0.400000           0   0.00000       0.00000    
      5404 MEOH     63       MEOH     O1       OD31H     2.48830       15.5990           0  -1.02800       1.30000    
      5405 MEOH     63       MEOH     DO1      DRUD     -2.48830      0.400000           0   0.00000       0.00000    
      5406 MEOH     63       MEOH     HO1      HDP1A    0.360000       1.00800           0   0.00000       0.00000    
      5407 MEOH     63       MEOH     HO2      DUMH      0.00000       1.00800           0   0.00000       0.00000    
      5408 MEOH     63       MEOH     H1A      HDA3B    0.800000E-01   1.00800           0   0.00000       0.00000    
      5409 MEOH     63       MEOH     H1B      HDA3B    0.800000E-01   1.00800           0   0.00000       0.00000    
      5410 MEOH     63       MEOH     H1C      HDA3B    0.800000E-01   1.00800           0   0.00000       0.00000    
      5411 MEOH     63       MEOH     LP1A     LPD     -0.230000       0.00000          -1   0.00000       0.00000    
      5412 MEOH     63       MEOH     LP1B     LPD     -0.230000       0.00000          -1   0.00000       0.00000    
      5413 MEOH     64       MEOH     C1       CD33B     2.31410       11.6110           0  -1.00000       1.30000    
      5414 MEOH     64       MEOH     DC1      DRUD     -2.45410      0.400000           0   0.00000       0.00000    
      5415 MEOH     64       MEOH     O1       OD31H     2.48830       15.5990           0  -1.02800       1.30000    
      5416 MEOH     64       MEOH     DO1      DRUD     -2.48830      0.400000           0   0.00000       0.00000    
      5417 MEOH     64       MEOH     HO1      HDP1A    0.360000       1.00800           0   0.00000       0.00000    
      5418 MEOH     64       MEOH     HO2      DUMH      0.00000       1.00800           0   0.00000       0.00000    
      5419 MEOH     64       MEOH     H1A      HDA3B    0.800000E-01   1.00800           0   0.00000       0.00000    
      5420 MEOH     64       MEOH     H1B      HDA3B    0.800000E-01   1.00800           0   0.00000       0.00000    
      5421 MEOH     64       MEOH     H1C      HDA3B    0.800000E-01   1.00800           0   0.00000       0.00000    
      5422 MEOH     64       MEOH     LP1A     LPD     -0.230000       0.00000          -1   0.00000       0.00000    
      5423 MEOH     64       MEOH     LP1B     LPD     -0.230000       0.00000          -1   0.00000       0.00000    
      5424 MEOH     65       MEOH     C1       CD33B     2.31410       11.6110           0  -1.00000       1.30000    
      5425 MEOH     65       MEOH     DC1      DRUD     -2.45410      0.400000           0   0.00000       0.00000    
      5426 MEOH     65       MEOH     O1       OD31H     2.48830       15.5990           0  -1.02800       1.30000    
      5427 MEOH     65       MEOH     DO1      DRUD     -2.48830      0.400000           0   0.00000       0.00000    
      5428 MEOH     65       MEOH     HO1      HDP1A    0.360000       1.00800           0   0.00000       0.00000    
      5429 MEOH     65       MEOH     HO2      DUMH      0.00000       1.00800           0   0.00000       0.00000    
      5430 MEOH     65       MEOH     H1A      HDA3B    0.800000E-01   1.00800           0   0.00000       0.00000    
      5431 MEOH     65       MEOH     H1B      HDA3B    0.800000E-01   1.00800           0   0.00000       0.00000    
      5432 MEOH     65       MEOH     H1C      HDA3B    0.800000E-01   1.00800           0   0.00000       0.00000    
      5433 MEOH     65       MEOH     LP1A     LPD     -0.230000       0.00000          -1   0.00000       0.00000    
      5434 MEOH     65       MEOH     LP1B     LPD     -0.230000       0.00000          -1   0.00000       0.00000    
      5435 MEOH     66       MEOH     C1       CD33B     2.31410       11.6110           0  -1.00000       1.30000    
      5436 MEOH     66       MEOH     DC1      DRUD     -2.45410      0.400000           0   0.00000       0.00000    
      5437 MEOH     66       MEOH     O1       OD31H     2.48830       15.5990           0  -1.02800       1.30000    
      5438 MEOH     66       MEOH     DO1      DRUD     -2.48830      0.400000           0   0.00000       0.00000    
      5439 MEOH     66       MEOH     HO1      HDP1A    0.360000       1.00800           0   0.00000       0.00000    
      5440 MEOH     66       MEOH     HO2      DUMH      0.00000       1.00800           0   0.00000       0.00000    
      5441 MEOH     66       MEOH     H1A      HDA3B    0.800000E-01   1.00800           0   0.00000       0.00000    
      5442 MEOH     66       MEOH     H1B      HDA3B    0.800000E-01   1.00800           0   0.00000       0.00000    
      5443 MEOH     66       MEOH     H1C      HDA3B    0.800000E-01   1.00800           0   0.00000       0.00000    
      5444 MEOH     66       MEOH     LP1A     LPD     -0.230000       0.00000          -1   0.00000       0.00000    
      5445 MEOH     66       MEOH     LP1B     LPD     -0.230000       0.00000          -1   0.00000       0.00000    
      5446 MEOH     67       MEOH     C1       CD33B     2.31410       11.6110           0  -1.00000       1.30000    
      5447 MEOH     67       MEOH     DC1      DRUD     -2.45410      0.400000           0   0.00000       0.00000    
      5448 MEOH     67       MEOH     O1       OD31H     2.48830       15.5990           0  -1.02800       1.30000    
      5449 MEOH     67       MEOH     DO1      DRUD     -2.48830      0.400000           0   0.00000       0.00000    
      5450 MEOH     67       MEOH     HO1      HDP1A    0.360000       1.00800           0   0.00000       0.00000    
      5451 MEOH     67       MEOH     HO2      DUMH      0.00000       1.00800           0   0.00000       0.00000    
      5452 MEOH     67       MEOH     H1A      HDA3B    0.800000E-01   1.00800           0   0.00000       0.00000    
      5453 MEOH     67       MEOH     H1B      HDA3B    0.800000E-01   1.00800           0   0.00000       0.00000    
      5454 MEOH     67       MEOH     H1C      HDA3B    0.800000E-01   1.00800           0   0.00000       0.00000    
      5455 MEOH     67       MEOH     LP1A     LPD     -0.230000       0.00000          -1   0.00000       0.00000    
      5456 MEOH     67       MEOH     LP1B     LPD     -0.230000       0.00000          -1   0.00000       0.00000    
      5457 MEOH     68       MEOH     C1       CD33B     2.31410       11.6110           0  -1.00000       1.30000    
      5458 MEOH     68       MEOH     DC1      DRUD     -2.45410      0.400000           0   0.00000       0.00000    
      5459 MEOH     68       MEOH     O1       OD31H     2.48830       15.5990           0  -1.02800       1.30000    
      5460 MEOH     68       MEOH     DO1      DRUD     -2.48830      0.400000           0   0.00000       0.00000    
      5461 MEOH     68       MEOH     HO1      HDP1A    0.360000       1.00800           0   0.00000       0.00000    
      5462 MEOH     68       MEOH     HO2      DUMH      0.00000       1.00800           0   0.00000       0.00000    
      5463 MEOH     68       MEOH     H1A      HDA3B    0.800000E-01   1.00800           0   0.00000       0.00000    
      5464 MEOH     68       MEOH     H1B      HDA3B    0.800000E-01   1.00800           0   0.00000       0.00000    
      5465 MEOH     68       MEOH     H1C      HDA3B    0.800000E-01   1.00800           0   0.00000       0.00000    
      5466 MEOH     68       MEOH     LP1A     LPD     -0.230000       0.00000          -1   0.00000       0.00000    
      5467 MEOH     68       MEOH     LP1B     LPD     -0.230000       0.00000          -1   0.00000       0.00000    
      5468 MEOH     69       MEOH     C1       CD33B     2.31410       11.6110           0  -1.00000       1.30000    
      5469 MEOH     69       MEOH     DC1      DRUD     -2.45410      0.400000           0   0.00000       0.00000    
      5470 MEOH     69       MEOH     O1       OD31H     2.48830       15.5990           0  -1.02800       1.30000    
      5471 MEOH     69       MEOH     DO1      DRUD     -2.48830      0.400000           0   0.00000       0.00000    
      5472 MEOH     69       MEOH     HO1      HDP1A    0.360000       1.00800           0   0.00000       0.00000    
      5473 MEOH     69       MEOH     HO2      DUMH      0.00000       1.00800           0   0.00000       0.00000    
      5474 MEOH     69       MEOH     H1A      HDA3B    0.800000E-01   1.00800           0   0.00000       0.00000    
      5475 MEOH     69       MEOH     H1B      HDA3B    0.800000E-01   1.00800           0   0.00000       0.00000    
      5476 MEOH     69       MEOH     H1C      HDA3B    0.800000E-01   1.00800           0   0.00000       0.00000    
      5477 MEOH     69       MEOH     LP1A     LPD     -0.230000       0.00000          -1   0.00000       0.00000    
      5478 MEOH     69       MEOH     LP1B     LPD     -0.230000       0.00000          -1   0.00000       0.00000    
      5479 MEOH     70       MEOH     C1       CD33B     2.31410       11.6110           0  -1.00000       1.30000    
      5480 MEOH     70       MEOH     DC1      DRUD     -2.45410      0.400000           0   0.00000       0.00000    
      5481 MEOH     70       MEOH     O1       OD31H     2.48830       15.5990           0  -1.02800       1.30000    
      5482 MEOH     70       MEOH     DO1      DRUD     -2.48830      0.400000           0   0.00000       0.00000    
      5483 MEOH     70       MEOH     HO1      HDP1A    0.360000       1.00800           0   0.00000       0.00000    
      5484 MEOH     70       MEOH     HO2      DUMH      0.00000       1.00800           0   0.00000       0.00000    
      5485 MEOH     70       MEOH     H1A      HDA3B    0.800000E-01   1.00800           0   0.00000       0.00000    
      5486 MEOH     70       MEOH     H1B      HDA3B    0.800000E-01   1.00800           0   0.00000       0.00000    
      5487 MEOH     70       MEOH     H1C      HDA3B    0.800000E-01   1.00800           0   0.00000       0.00000    
      5488 MEOH     70       MEOH     LP1A     LPD     -0.230000       0.00000          -1   0.00000       0.00000    
      5489 MEOH     70       MEOH     LP1B     LPD     -0.230000       0.00000          -1   0.00000       0.00000    
      5490 MEOH     71       MEOH     C1       CD33B     2.31410       11.6110           0  -1.00000       1.30000    
      5491 MEOH     71       MEOH     DC1      DRUD     -2.45410      0.400000           0   0.00000       0.00000    
      5492 MEOH     71       MEOH     O1       OD31H     2.48830       15.5990           0  -1.02800       1.30000    
      5493 MEOH     71       MEOH     DO1      DRUD     -2.48830      0.400000           0   0.00000       0.00000    
      5494 MEOH     71       MEOH     HO1      HDP1A    0.360000       1.00800           0   0.00000       0.00000    
      5495 MEOH     71       MEOH     HO2      DUMH      0.00000       1.00800           0   0.00000       0.00000    
      5496 MEOH     71       MEOH     H1A      HDA3B    0.800000E-01   1.00800           0   0.00000       0.00000    
      5497 MEOH     71       MEOH     H1B      HDA3B    0.800000E-01   1.00800           0   0.00000       0.00000    
      5498 MEOH     71       MEOH     H1C      HDA3B    0.800000E-01   1.00800           0   0.00000       0.00000    
      5499 MEOH     71       MEOH     LP1A     LPD     -0.230000       0.00000          -1   0.00000       0.00000    
      5500 MEOH     71       MEOH     LP1B     LPD     -0.230000       0.00000          -1   0.00000       0.00000    
      5501 MEOH     72       MEOH     C1       CD33B     2.31410       11.6110           0  -1.00000       1.30000    
      5502 MEOH     72       MEOH     DC1      DRUD     -2.45410      0.400000           0   0.00000       0.00000    
      5503 MEOH     72       MEOH     O1       OD31H     2.48830       15.5990           0  -1.02800       1.30000    
      5504 MEOH     72       MEOH     DO1      DRUD     -2.48830      0.400000           0   0.00000       0.00000    
      5505 MEOH     72       MEOH     HO1      HDP1A    0.360000       1.00800           0   0.00000       0.00000    
      5506 MEOH     72       MEOH     HO2      DUMH      0.00000       1.00800           0   0.00000       0.00000    
      5507 MEOH     72       MEOH     H1A      HDA3B    0.800000E-01   1.00800           0   0.00000       0.00000    
      5508 MEOH     72       MEOH     H1B      HDA3B    0.800000E-01   1.00800           0   0.00000       0.00000    
      5509 MEOH     72       MEOH     H1C      HDA3B    0.800000E-01   1.00800           0   0.00000       0.00000    
      5510 MEOH     72       MEOH     LP1A     LPD     -0.230000       0.00000          -1   0.00000       0.00000    
      5511 MEOH     72       MEOH     LP1B     LPD     -0.230000       0.00000          -1   0.00000       0.00000    
      5512 MEOH     73       MEOH     C1       CD33B     2.31410       11.6110           0  -1.00000       1.30000    
      5513 MEOH     73       MEOH     DC1      DRUD     -2.45410      0.400000           0   0.00000       0.00000    
      5514 MEOH     73       MEOH     O1       OD31H     2.48830       15.5990           0  -1.02800       1.30000    
      5515 MEOH     73       MEOH     DO1      DRUD     -2.48830      0.400000           0   0.00000       0.00000    
      5516 MEOH     73       MEOH     HO1      HDP1A    0.360000       1.00800           0   0.00000       0.00000    
      5517 MEOH     73       MEOH     HO2      DUMH      0.00000       1.00800           0   0.00000       0.00000    
      5518 MEOH     73       MEOH     H1A      HDA3B    0.800000E-01   1.00800           0   0.00000       0.00000    
      5519 MEOH     73       MEOH     H1B      HDA3B    0.800000E-01   1.00800           0   0.00000       0.00000    
      5520 MEOH     73       MEOH     H1C      HDA3B    0.800000E-01   1.00800           0   0.00000       0.00000    
      5521 MEOH     73       MEOH     LP1A     LPD     -0.230000       0.00000          -1   0.00000       0.00000    
      5522 MEOH     73       MEOH     LP1B     LPD     -0.230000       0.00000          -1   0.00000       0.00000    
      5523 MEOH     74       MEOH     C1       CD33B     2.31410       11.6110           0  -1.00000       1.30000    
      5524 MEOH     74       MEOH     DC1      DRUD     -2.45410      0.400000           0   0.00000       0.00000    
      5525 MEOH     74       MEOH     O1       OD31H     2.48830       15.5990           0  -1.02800       1.30000    
      5526 MEOH     74       MEOH     DO1      DRUD     -2.48830      0.400000           0   0.00000       0.00000    
      5527 MEOH     74       MEOH     HO1      HDP1A    0.360000       1.00800           0   0.00000       0.00000    
      5528 MEOH     74       MEOH     HO2      DUMH      0.00000       1.00800           0   0.00000       0.00000    
      5529 MEOH     74       MEOH     H1A      HDA3B    0.800000E-01   1.00800           0   0.00000       0.00000    
      5530 MEOH     74       MEOH     H1B      HDA3B    0.800000E-01   1.00800           0   0.00000       0.00000    
      5531 MEOH     74       MEOH     H1C      HDA3B    0.800000E-01   1.00800           0   0.00000       0.00000    
      5532 MEOH     74       MEOH     LP1A     LPD     -0.230000       0.00000          -1   0.00000       0.00000    
      5533 MEOH     74       MEOH     LP1B     LPD     -0.230000       0.00000          -1   0.00000       0.00000    
      5534 MEOH     75       MEOH     C1       CD33B     2.31410       11.6110           0  -1.00000       1.30000    
      5535 MEOH     75       MEOH     DC1      DRUD     -2.45410      0.400000           0   0.00000       0.00000    
      5536 MEOH     75       MEOH     O1       OD31H     2.48830       15.5990           0  -1.02800       1.30000    
      5537 MEOH     75       MEOH     DO1      DRUD     -2.48830      0.400000           0   0.00000       0.00000    
      5538 MEOH     75       MEOH     HO1      HDP1A    0.360000       1.00800           0   0.00000       0.00000    
      5539 MEOH     75       MEOH     HO2      DUMH      0.00000       1.00800           0   0.00000       0.00000    
      5540 MEOH     75       MEOH     H1A      HDA3B    0.800000E-01   1.00800           0   0.00000       0.00000    
      5541 MEOH     75       MEOH     H1B      HDA3B    0.800000E-01   1.00800           0   0.00000       0.00000    
      5542 MEOH     75       MEOH     H1C      HDA3B    0.800000E-01   1.00800           0   0.00000       0.00000    
      5543 MEOH     75       MEOH     LP1A     LPD     -0.230000       0.00000          -1   0.00000       0.00000    
      5544 MEOH     75       MEOH     LP1B     LPD     -0.230000       0.00000          -1   0.00000       0.00000    
      5545 MEOH     76       MEOH     C1       CD33B     2.31410       11.6110           0  -1.00000       1.30000    
      5546 MEOH     76       MEOH     DC1      DRUD     -2.45410      0.400000           0   0.00000       0.00000    
      5547 MEOH     76       MEOH     O1       OD31H     2.48830       15.5990           0  -1.02800       1.30000    
      5548 MEOH     76       MEOH     DO1      DRUD     -2.48830      0.400000           0   0.00000       0.00000    
      5549 MEOH     76       MEOH     HO1      HDP1A    0.360000       1.00800           0   0.00000       0.00000    
      5550 MEOH     76       MEOH     HO2      DUMH      0.00000       1.00800           0   0.00000       0.00000    
      5551 MEOH     76       MEOH     H1A      HDA3B    0.800000E-01   1.00800           0   0.00000       0.00000    
      5552 MEOH     76       MEOH     H1B      HDA3B    0.800000E-01   1.00800           0   0.00000       0.00000    
      5553 MEOH     76       MEOH     H1C      HDA3B    0.800000E-01   1.00800           0   0.00000       0.00000    
      5554 MEOH     76       MEOH     LP1A     LPD     -0.230000       0.00000          -1   0.00000       0.00000    
      5555 MEOH     76       MEOH     LP1B     LPD     -0.230000       0.00000          -1   0.00000       0.00000    
      5556 MEOH     77       MEOH     C1       CD33B     2.31410       11.6110           0  -1.00000       1.30000    
      5557 MEOH     77       MEOH     DC1      DRUD     -2.45410      0.400000           0   0.00000       0.00000    
      5558 MEOH     77       MEOH     O1       OD31H     2.48830       15.5990           0  -1.02800       1.30000    
      5559 MEOH     77       MEOH     DO1      DRUD     -2.48830      0.400000           0   0.00000       0.00000    
      5560 MEOH     77       MEOH     HO1      HDP1A    0.360000       1.00800           0   0.00000       0.00000    
      5561 MEOH     77       MEOH     HO2      DUMH      0.00000       1.00800           0   0.00000       0.00000    
      5562 MEOH     77       MEOH     H1A      HDA3B    0.800000E-01   1.00800           0   0.00000       0.00000    
      5563 MEOH     77       MEOH     H1B      HDA3B    0.800000E-01   1.00800           0   0.00000       0.00000    
      5564 MEOH     77       MEOH     H1C      HDA3B    0.800000E-01   1.00800           0   0.00000       0.00000    
      5565 MEOH     77       MEOH     LP1A     LPD     -0.230000       0.00000          -1   0.00000       0.00000    
      5566 MEOH     77       MEOH     LP1B     LPD     -0.230000       0.00000          -1   0.00000       0.00000    
      5567 MEOH     78       MEOH     C1       CD33B     2.31410       11.6110           0  -1.00000       1.30000    
      5568 MEOH     78       MEOH     DC1      DRUD     -2.45410      0.400000           0   0.00000       0.00000    
      5569 MEOH     78       MEOH     O1       OD31H     2.48830       15.5990           0  -1.02800       1.30000    
      5570 MEOH     78       MEOH     DO1      DRUD     -2.48830      0.400000           0   0.00000       0.00000    
      5571 MEOH     78       MEOH     HO1      HDP1A    0.360000       1.00800           0   0.00000       0.00000    
      5572 MEOH     78       MEOH     HO2      DUMH      0.00000       1.00800           0   0.00000       0.00000    
      5573 MEOH     78       MEOH     H1A      HDA3B    0.800000E-01   1.00800           0   0.00000       0.00000    
      5574 MEOH     78       MEOH     H1B      HDA3B    0.800000E-01   1.00800           0   0.00000       0.00000    
      5575 MEOH     78       MEOH     H1C      HDA3B    0.800000E-01   1.00800           0   0.00000       0.00000    
      5576 MEOH     78       MEOH     LP1A     LPD     -0.230000       0.00000          -1   0.00000       0.00000    
      5577 MEOH     78       MEOH     LP1B     LPD     -0.230000       0.00000          -1   0.00000       0.00000    
      5578 MEOH     79       MEOH     C1       CD33B     2.31410       11.6110           0  -1.00000       1.30000    
      5579 MEOH     79       MEOH     DC1      DRUD     -2.45410      0.400000           0   0.00000       0.00000    
      5580 MEOH     79       MEOH     O1       OD31H     2.48830       15.5990           0  -1.02800       1.30000    
      5581 MEOH     79       MEOH     DO1      DRUD     -2.48830      0.400000           0   0.00000       0.00000    
      5582 MEOH     79       MEOH     HO1      HDP1A    0.360000       1.00800           0   0.00000       0.00000    
      5583 MEOH     79       MEOH     HO2      DUMH      0.00000       1.00800           0   0.00000       0.00000    
      5584 MEOH     79       MEOH     H1A      HDA3B    0.800000E-01   1.00800           0   0.00000       0.00000    
      5585 MEOH     79       MEOH     H1B      HDA3B    0.800000E-01   1.00800           0   0.00000       0.00000    
      5586 MEOH     79       MEOH     H1C      HDA3B    0.800000E-01   1.00800           0   0.00000       0.00000    
      5587 MEOH     79       MEOH     LP1A     LPD     -0.230000       0.00000          -1   0.00000       0.00000    
      5588 MEOH     79       MEOH     LP1B     LPD     -0.230000       0.00000          -1   0.00000       0.00000    
      5589 MEOH     80       MEOH     C1       CD33B     2.31410       11.6110           0  -1.00000       1.30000    
      5590 MEOH     80       MEOH     DC1      DRUD     -2.45410      0.400000           0   0.00000       0.00000    
      5591 MEOH     80       MEOH     O1       OD31H     2.48830       15.5990           0  -1.02800       1.30000    
      5592 MEOH     80       MEOH     DO1      DRUD     -2.48830      0.400000           0   0.00000       0.00000    
      5593 MEOH     80       MEOH     HO1      HDP1A    0.360000       1.00800           0   0.00000       0.00000    
      5594 MEOH     80       MEOH     HO2      DUMH      0.00000       1.00800           0   0.00000       0.00000    
      5595 MEOH     80       MEOH     H1A      HDA3B    0.800000E-01   1.00800           0   0.00000       0.00000    
      5596 MEOH     80       MEOH     H1B      HDA3B    0.800000E-01   1.00800           0   0.00000       0.00000    
      5597 MEOH     80       MEOH     H1C      HDA3B    0.800000E-01   1.00800           0   0.00000       0.00000    
      5598 MEOH     80       MEOH     LP1A     LPD     -0.230000       0.00000          -1   0.00000       0.00000    
      5599 MEOH     80       MEOH     LP1B     LPD     -0.230000       0.00000          -1   0.00000       0.00000    
      5600 MEOH     81       MEOH     C1       CD33B     2.31410       11.6110           0  -1.00000       1.30000    
      5601 MEOH     81       MEOH     DC1      DRUD     -2.45410      0.400000           0   0.00000       0.00000    
      5602 MEOH     81       MEOH     O1       OD31H     2.48830       15.5990           0  -1.02800       1.30000    
      5603 MEOH     81       MEOH     DO1      DRUD     -2.48830      0.400000           0   0.00000       0.00000    
      5604 MEOH     81       MEOH     HO1      HDP1A    0.360000       1.00800           0   0.00000       0.00000    
      5605 MEOH     81       MEOH     HO2      DUMH      0.00000       1.00800           0   0.00000       0.00000    
      5606 MEOH     81       MEOH     H1A      HDA3B    0.800000E-01   1.00800           0   0.00000       0.00000    
      5607 MEOH     81       MEOH     H1B      HDA3B    0.800000E-01   1.00800           0   0.00000       0.00000    
      5608 MEOH     81       MEOH     H1C      HDA3B    0.800000E-01   1.00800           0   0.00000       0.00000    
      5609 MEOH     81       MEOH     LP1A     LPD     -0.230000       0.00000          -1   0.00000       0.00000    
      5610 MEOH     81       MEOH     LP1B     LPD     -0.230000       0.00000          -1   0.00000       0.00000    
      5611 MEOH     82       MEOH     C1       CD33B     2.31410       11.6110           0  -1.00000       1.30000    
      5612 MEOH     82       MEOH     DC1      DRUD     -2.45410      0.400000           0   0.00000       0.00000    
      5613 MEOH     82       MEOH     O1       OD31H     2.48830       15.5990           0  -1.02800       1.30000    
      5614 MEOH     82       MEOH     DO1      DRUD     -2.48830      0.400000           0   0.00000       0.00000    
      5615 MEOH     82       MEOH     HO1      HDP1A    0.360000       1.00800           0   0.00000       0.00000    
      5616 MEOH     82       MEOH     HO2      DUMH      0.00000       1.00800           0   0.00000       0.00000    
      5617 MEOH     82       MEOH     H1A      HDA3B    0.800000E-01   1.00800           0   0.00000       0.00000    
      5618 MEOH     82       MEOH     H1B      HDA3B    0.800000E-01   1.00800           0   0.00000       0.00000    
      5619 MEOH     82       MEOH     H1C      HDA3B    0.800000E-01   1.00800           0   0.00000       0.00000    
      5620 MEOH     82       MEOH     LP1A     LPD     -0.230000       0.00000          -1   0.00000       0.00000    
      5621 MEOH     82       MEOH     LP1B     LPD     -0.230000       0.00000          -1   0.00000       0.00000    
      5622 MEOH     83       MEOH     C1       CD33B     2.31410       11.6110           0  -1.00000       1.30000    
      5623 MEOH     83       MEOH     DC1      DRUD     -2.45410      0.400000           0   0.00000       0.00000    
      5624 MEOH     83       MEOH     O1       OD31H     2.48830       15.5990           0  -1.02800       1.30000    
      5625 MEOH     83       MEOH     DO1      DRUD     -2.48830      0.400000           0   0.00000       0.00000    
      5626 MEOH     83       MEOH     HO1      HDP1A    0.360000       1.00800           0   0.00000       0.00000    
      5627 MEOH     83       MEOH     HO2      DUMH      0.00000       1.00800           0   0.00000       0.00000    
      5628 MEOH     83       MEOH     H1A      HDA3B    0.800000E-01   1.00800           0   0.00000       0.00000    
      5629 MEOH     83       MEOH     H1B      HDA3B    0.800000E-01   1.00800           0   0.00000       0.00000    
      5630 MEOH     83       MEOH     H1C      HDA3B    0.800000E-01   1.00800           0   0.00000       0.00000    
      5631 MEOH     83       MEOH     LP1A     LPD     -0.230000       0.00000          -1   0.00000       0.00000    
      5632 MEOH     83       MEOH     LP1B     LPD     -0.230000       0.00000          -1   0.00000       0.00000    
      5633 MEOH     84       MEOH     C1       CD33B     2.31410       11.6110           0  -1.00000       1.30000    
      5634 MEOH     84       MEOH     DC1      DRUD     -2.45410      0.400000           0   0.00000       0.00000    
      5635 MEOH     84       MEOH     O1       OD31H     2.48830       15.5990           0  -1.02800       1.30000    
      5636 MEOH     84       MEOH     DO1      DRUD     -2.48830      0.400000           0   0.00000       0.00000    
      5637 MEOH     84       MEOH     HO1      HDP1A    0.360000       1.00800           0   0.00000       0.00000    
      5638 MEOH     84       MEOH     HO2      DUMH      0.00000       1.00800           0   0.00000       0.00000    
      5639 MEOH     84       MEOH     H1A      HDA3B    0.800000E-01   1.00800           0   0.00000       0.00000    
      5640 MEOH     84       MEOH     H1B      HDA3B    0.800000E-01   1.00800           0   0.00000       0.00000    
      5641 MEOH     84       MEOH     H1C      HDA3B    0.800000E-01   1.00800           0   0.00000       0.00000    
      5642 MEOH     84       MEOH     LP1A     LPD     -0.230000       0.00000          -1   0.00000       0.00000    
      5643 MEOH     84       MEOH     LP1B     LPD     -0.230000       0.00000          -1   0.00000       0.00000    
      5644 MEOH     85       MEOH     C1       CD33B     2.31410       11.6110           0  -1.00000       1.30000    
      5645 MEOH     85       MEOH     DC1      DRUD     -2.45410      0.400000           0   0.00000       0.00000    
      5646 MEOH     85       MEOH     O1       OD31H     2.48830       15.5990           0  -1.02800       1.30000    
      5647 MEOH     85       MEOH     DO1      DRUD     -2.48830      0.400000           0   0.00000       0.00000    
      5648 MEOH     85       MEOH     HO1      HDP1A    0.360000       1.00800           0   0.00000       0.00000    
      5649 MEOH     85       MEOH     HO2      DUMH      0.00000       1.00800           0   0.00000       0.00000    
      5650 MEOH     85       MEOH     H1A      HDA3B    0.800000E-01   1.00800           0   0.00000       0.00000    
      5651 MEOH     85       MEOH     H1B      HDA3B    0.800000E-01   1.00800           0   0.00000       0.00000    
      5652 MEOH     85       MEOH     H1C      HDA3B    0.800000E-01   1.00800           0   0.00000       0.00000    
      5653 MEOH     85       MEOH     LP1A     LPD     -0.230000       0.00000          -1   0.00000       0.00000    
      5654 MEOH     85       MEOH     LP1B     LPD     -0.230000       0.00000          -1   0.00000       0.00000    
      5655 MEOH     86       MEOH     C1       CD33B     2.31410       11.6110           0  -1.00000       1.30000    
      5656 MEOH     86       MEOH     DC1      DRUD     -2.45410      0.400000           0   0.00000       0.00000    
      5657 MEOH     86       MEOH     O1       OD31H     2.48830       15.5990           0  -1.02800       1.30000    
      5658 MEOH     86       MEOH     DO1      DRUD     -2.48830      0.400000           0   0.00000       0.00000    
      5659 MEOH     86       MEOH     HO1      HDP1A    0.360000       1.00800           0   0.00000       0.00000    
      5660 MEOH     86       MEOH     HO2      DUMH      0.00000       1.00800           0   0.00000       0.00000    
      5661 MEOH     86       MEOH     H1A      HDA3B    0.800000E-01   1.00800           0   0.00000       0.00000    
      5662 MEOH     86       MEOH     H1B      HDA3B    0.800000E-01   1.00800           0   0.00000       0.00000    
      5663 MEOH     86       MEOH     H1C      HDA3B    0.800000E-01   1.00800           0   0.00000       0.00000    
      5664 MEOH     86       MEOH     LP1A     LPD     -0.230000       0.00000          -1   0.00000       0.00000    
      5665 MEOH     86       MEOH     LP1B     LPD     -0.230000       0.00000          -1   0.00000       0.00000    
      5666 MEOH     87       MEOH     C1       CD33B     2.31410       11.6110           0  -1.00000       1.30000    
      5667 MEOH     87       MEOH     DC1      DRUD     -2.45410      0.400000           0   0.00000       0.00000    
      5668 MEOH     87       MEOH     O1       OD31H     2.48830       15.5990           0  -1.02800       1.30000    
      5669 MEOH     87       MEOH     DO1      DRUD     -2.48830      0.400000           0   0.00000       0.00000    
      5670 MEOH     87       MEOH     HO1      HDP1A    0.360000       1.00800           0   0.00000       0.00000    
      5671 MEOH     87       MEOH     HO2      DUMH      0.00000       1.00800           0   0.00000       0.00000    
      5672 MEOH     87       MEOH     H1A      HDA3B    0.800000E-01   1.00800           0   0.00000       0.00000    
      5673 MEOH     87       MEOH     H1B      HDA3B    0.800000E-01   1.00800           0   0.00000       0.00000    
      5674 MEOH     87       MEOH     H1C      HDA3B    0.800000E-01   1.00800           0   0.00000       0.00000    
      5675 MEOH     87       MEOH     LP1A     LPD     -0.230000       0.00000          -1   0.00000       0.00000    
      5676 MEOH     87       MEOH     LP1B     LPD     -0.230000       0.00000          -1   0.00000       0.00000    
      5677 MEOH     88       MEOH     C1       CD33B     2.31410       11.6110           0  -1.00000       1.30000    
      5678 MEOH     88       MEOH     DC1      DRUD     -2.45410      0.400000           0   0.00000       0.00000    
      5679 MEOH     88       MEOH     O1       OD31H     2.48830       15.5990           0  -1.02800       1.30000    
      5680 MEOH     88       MEOH     DO1      DRUD     -2.48830      0.400000           0   0.00000       0.00000    
      5681 MEOH     88       MEOH     HO1      HDP1A    0.360000       1.00800           0   0.00000       0.00000    
      5682 MEOH     88       MEOH     HO2      DUMH      0.00000       1.00800           0   0.00000       0.00000    
      5683 MEOH     88       MEOH     H1A      HDA3B    0.800000E-01   1.00800           0   0.00000       0.00000    
      5684 MEOH     88       MEOH     H1B      HDA3B    0.800000E-01   1.00800           0   0.00000       0.00000    
      5685 MEOH     88       MEOH     H1C      HDA3B    0.800000E-01   1.00800           0   0.00000       0.00000    
      5686 MEOH     88       MEOH     LP1A     LPD     -0.230000       0.00000          -1   0.00000       0.00000    
      5687 MEOH     88       MEOH     LP1B     LPD     -0.230000       0.00000          -1   0.00000       0.00000    
      5688 MEOH     89       MEOH     C1       CD33B     2.31410       11.6110           0  -1.00000       1.30000    
      5689 MEOH     89       MEOH     DC1      DRUD     -2.45410      0.400000           0   0.00000       0.00000    
      5690 MEOH     89       MEOH     O1       OD31H     2.48830       15.5990           0  -1.02800       1.30000    
      5691 MEOH     89       MEOH     DO1      DRUD     -2.48830      0.400000           0   0.00000       0.00000    
      5692 MEOH     89       MEOH     HO1      HDP1A    0.360000       1.00800           0   0.00000       0.00000    
      5693 MEOH     89       MEOH     HO2      DUMH      0.00000       1.00800           0   0.00000       0.00000    
      5694 MEOH     89       MEOH     H1A      HDA3B    0.800000E-01   1.00800           0   0.00000       0.00000    
      5695 MEOH     89       MEOH     H1B      HDA3B    0.800000E-01   1.00800           0   0.00000       0.00000    
      5696 MEOH     89       MEOH     H1C      HDA3B    0.800000E-01   1.00800           0   0.00000       0.00000    
      5697 MEOH     89       MEOH     LP1A     LPD     -0.230000       0.00000          -1   0.00000       0.00000    
      5698 MEOH     89       MEOH     LP1B     LPD     -0.230000       0.00000          -1   0.00000       0.00000    
      5699 MEOH     90       MEOH     C1       CD33B     2.31410       11.6110           0  -1.00000       1.30000    
      5700 MEOH     90       MEOH     DC1      DRUD     -2.45410      0.400000           0   0.00000       0.00000    
      5701 MEOH     90       MEOH     O1       OD31H     2.48830       15.5990           0  -1.02800       1.30000    
      5702 MEOH     90       MEOH     DO1      DRUD     -2.48830      0.400000           0   0.00000       0.00000    
      5703 MEOH     90       MEOH     HO1      HDP1A    0.360000       1.00800           0   0.00000       0.00000    
      5704 MEOH     90       MEOH     HO2      DUMH      0.00000       1.00800           0   0.00000       0.00000    
      5705 MEOH     90       MEOH     H1A      HDA3B    0.800000E-01   1.00800           0   0.00000       0.00000    
      5706 MEOH     90       MEOH     H1B      HDA3B    0.800000E-01   1.00800           0   0.00000       0.00000    
      5707 MEOH     90       MEOH     H1C      HDA3B    0.800000E-01   1.00800           0   0.00000       0.00000    
      5708 MEOH     90       MEOH     LP1A     LPD     -0.230000       0.00000          -1   0.00000       0.00000    
      5709 MEOH     90       MEOH     LP1B     LPD     -0.230000       0.00000          -1   0.00000       0.00000    
      5710 MEOH     91       MEOH     C1       CD33B     2.31410       11.6110           0  -1.00000       1.30000    
      5711 MEOH     91       MEOH     DC1      DRUD     -2.45410      0.400000           0   0.00000       0.00000    
      5712 MEOH     91       MEOH     O1       OD31H     2.48830       15.5990           0  -1.02800       1.30000    
      5713 MEOH     91       MEOH     DO1      DRUD     -2.48830      0.400000           0   0.00000       0.00000    
      5714 MEOH     91       MEOH     HO1      HDP1A    0.360000       1.00800           0   0.00000       0.00000    
      5715 MEOH     91       MEOH     HO2      DUMH      0.00000       1.00800           0   0.00000       0.00000    
      5716 MEOH     91       MEOH     H1A      HDA3B    0.800000E-01   1.00800           0   0.00000       0.00000    
      5717 MEOH     91       MEOH     H1B      HDA3B    0.800000E-01   1.00800           0   0.00000       0.00000    
      5718 MEOH     91       MEOH     H1C      HDA3B    0.800000E-01   1.00800           0   0.00000       0.00000    
      5719 MEOH     91       MEOH     LP1A     LPD     -0.230000       0.00000          -1   0.00000       0.00000    
      5720 MEOH     91       MEOH     LP1B     LPD     -0.230000       0.00000          -1   0.00000       0.00000    
      5721 MEOH     92       MEOH     C1       CD33B     2.31410       11.6110           0  -1.00000       1.30000    
      5722 MEOH     92       MEOH     DC1      DRUD     -2.45410      0.400000           0   0.00000       0.00000    
      5723 MEOH     92       MEOH     O1       OD31H     2.48830       15.5990           0  -1.02800       1.30000    
      5724 MEOH     92       MEOH     DO1      DRUD     -2.48830      0.400000           0   0.00000       0.00000    
      5725 MEOH     92       MEOH     HO1      HDP1A    0.360000       1.00800           0   0.00000       0.00000    
      5726 MEOH     92       MEOH     HO2      DUMH      0.00000       1.00800           0   0.00000       0.00000    
      5727 MEOH     92       MEOH     H1A      HDA3B    0.800000E-01   1.00800           0   0.00000       0.00000    
      5728 MEOH     92       MEOH     H1B      HDA3B    0.800000E-01   1.00800           0   0.00000       0.00000    
      5729 MEOH     92       MEOH     H1C      HDA3B    0.800000E-01   1.00800           0   0.00000       0.00000    
      5730 MEOH     92       MEOH     LP1A     LPD     -0.230000       0.00000          -1   0.00000       0.00000    
      5731 MEOH     92       MEOH     LP1B     LPD     -0.230000       0.00000          -1   0.00000       0.00000    
      5732 MEOH     93       MEOH     C1       CD33B     2.31410       11.6110           0  -1.00000       1.30000    
      5733 MEOH     93       MEOH     DC1      DRUD     -2.45410      0.400000           0   0.00000       0.00000    
      5734 MEOH     93       MEOH     O1       OD31H     2.48830       15.5990           0  -1.02800       1.30000    
      5735 MEOH     93       MEOH     DO1      DRUD     -2.48830      0.400000           0   0.00000       0.00000    
      5736 MEOH     93       MEOH     HO1      HDP1A    0.360000       1.00800           0   0.00000       0.00000    
      5737 MEOH     93       MEOH     HO2      DUMH      0.00000       1.00800           0   0.00000       0.00000    
      5738 MEOH     93       MEOH     H1A      HDA3B    0.800000E-01   1.00800           0   0.00000       0.00000    
      5739 MEOH     93       MEOH     H1B      HDA3B    0.800000E-01   1.00800           0   0.00000       0.00000    
      5740 MEOH     93       MEOH     H1C      HDA3B    0.800000E-01   1.00800           0   0.00000       0.00000    
      5741 MEOH     93       MEOH     LP1A     LPD     -0.230000       0.00000          -1   0.00000       0.00000    
      5742 MEOH     93       MEOH     LP1B     LPD     -0.230000       0.00000          -1   0.00000       0.00000    
      5743 MEOH     94       MEOH     C1       CD33B     2.31410       11.6110           0  -1.00000       1.30000    
      5744 MEOH     94       MEOH     DC1      DRUD     -2.45410      0.400000           0   0.00000       0.00000    
      5745 MEOH     94       MEOH     O1       OD31H     2.48830       15.5990           0  -1.02800       1.30000    
      5746 MEOH     94       MEOH     DO1      DRUD     -2.48830      0.400000           0   0.00000       0.00000    
      5747 MEOH     94       MEOH     HO1      HDP1A    0.360000       1.00800           0   0.00000       0.00000    
      5748 MEOH     94       MEOH     HO2      DUMH      0.00000       1.00800           0   0.00000       0.00000    
      5749 MEOH     94       MEOH     H1A      HDA3B    0.800000E-01   1.00800           0   0.00000       0.00000    
      5750 MEOH     94       MEOH     H1B      HDA3B    0.800000E-01   1.00800           0   0.00000       0.00000    
      5751 MEOH     94       MEOH     H1C      HDA3B    0.800000E-01   1.00800           0   0.00000       0.00000    
      5752 MEOH     94       MEOH     LP1A     LPD     -0.230000       0.00000          -1   0.00000       0.00000    
      5753 MEOH     94       MEOH     LP1B     LPD     -0.230000       0.00000          -1   0.00000       0.00000    
      5754 MEOH     95       MEOH     C1       CD33B     2.31410       11.6110           0  -1.00000       1.30000    
      5755 MEOH     95       MEOH     DC1      DRUD     -2.45410      0.400000           0   0.00000       0.00000    
      5756 MEOH     95       MEOH     O1       OD31H     2.48830       15.5990           0  -1.02800       1.30000    
      5757 MEOH     95       MEOH     DO1      DRUD     -2.48830      0.400000           0   0.00000       0.00000    
      5758 MEOH     95       MEOH     HO1      HDP1A    0.360000       1.00800           0   0.00000       0.00000    
      5759 MEOH     95       MEOH     HO2      DUMH      0.00000       1.00800           0   0.00000       0.00000    
      5760 MEOH     95       MEOH     H1A      HDA3B    0.800000E-01   1.00800           0   0.00000       0.00000    
      5761 MEOH     95       MEOH     H1B      HDA3B    0.800000E-01   1.00800           0   0.00000       0.00000    
      5762 MEOH     95       MEOH     H1C      HDA3B    0.800000E-01   1.00800           0   0.00000       0.00000    
      5763 MEOH     95       MEOH     LP1A     LPD     -0.230000       0.00000          -1   0.00000       0.00000    
      5764 MEOH     95       MEOH     LP1B     LPD     -0.230000       0.00000          -1   0.00000       0.00000    
      5765 MEOH     96       MEOH     C1       CD33B     2.31410       11.6110           0  -1.00000       1.30000    
      5766 MEOH     96       MEOH     DC1      DRUD     -2.45410      0.400000           0   0.00000       0.00000    
      5767 MEOH     96       MEOH     O1       OD31H     2.48830       15.5990           0  -1.02800       1.30000    
      5768 MEOH     96       MEOH     DO1      DRUD     -2.48830      0.400000           0   0.00000       0.00000    
      5769 MEOH     96       MEOH     HO1      HDP1A    0.360000       1.00800           0   0.00000       0.00000    
      5770 MEOH     96       MEOH     HO2      DUMH      0.00000       1.00800           0   0.00000       0.00000    
      5771 MEOH     96       MEOH     H1A      HDA3B    0.800000E-01   1.00800           0   0.00000       0.00000    
      5772 MEOH     96       MEOH     H1B      HDA3B    0.800000E-01   1.00800           0   0.00000       0.00000    
      5773 MEOH     96       MEOH     H1C      HDA3B    0.800000E-01   1.00800           0   0.00000       0.00000    
      5774 MEOH     96       MEOH     LP1A     LPD     -0.230000       0.00000          -1   0.00000       0.00000    
      5775 MEOH     96       MEOH     LP1B     LPD     -0.230000       0.00000          -1   0.00000       0.00000    
      5776 MEOH     97       MEOH     C1       CD33B     2.31410       11.6110           0  -1.00000       1.30000    
      5777 MEOH     97       MEOH     DC1      DRUD     -2.45410      0.400000           0   0.00000       0.00000    
      5778 MEOH     97       MEOH     O1       OD31H     2.48830       15.5990           0  -1.02800       1.30000    
      5779 MEOH     97       MEOH     DO1      DRUD     -2.48830      0.400000           0   0.00000       0.00000    
      5780 MEOH     97       MEOH     HO1      HDP1A    0.360000       1.00800           0   0.00000       0.00000    
      5781 MEOH     97       MEOH     HO2      DUMH      0.00000       1.00800           0   0.00000       0.00000    
      5782 MEOH     97       MEOH     H1A      HDA3B    0.800000E-01   1.00800           0   0.00000       0.00000    
      5783 MEOH     97       MEOH     H1B      HDA3B    0.800000E-01   1.00800           0   0.00000       0.00000    
      5784 MEOH     97       MEOH     H1C      HDA3B    0.800000E-01   1.00800           0   0.00000       0.00000    
      5785 MEOH     97       MEOH     LP1A     LPD     -0.230000       0.00000          -1   0.00000       0.00000    
      5786 MEOH     97       MEOH     LP1B     LPD     -0.230000       0.00000          -1   0.00000       0.00000    
      5787 MEOH     98       MEOH     C1       CD33B     2.31410       11.6110           0  -1.00000       1.30000    
      5788 MEOH     98       MEOH     DC1      DRUD     -2.45410      0.400000           0   0.00000       0.00000    
      5789 MEOH     98       MEOH     O1       OD31H     2.48830       15.5990           0  -1.02800       1.30000    
      5790 MEOH     98       MEOH     DO1      DRUD     -2.48830      0.400000           0   0.00000       0.00000    
      5791 MEOH     98       MEOH     HO1      HDP1A    0.360000       1.00800           0   0.00000       0.00000    
      5792 MEOH     98       MEOH     HO2      DUMH      0.00000       1.00800           0   0.00000       0.00000    
      5793 MEOH     98       MEOH     H1A      HDA3B    0.800000E-01   1.00800           0   0.00000       0.00000    
      5794 MEOH     98       MEOH     H1B      HDA3B    0.800000E-01   1.00800           0   0.00000       0.00000    
      5795 MEOH     98       MEOH     H1C      HDA3B    0.800000E-01   1.00800           0   0.00000       0.00000    
      5796 MEOH     98       MEOH     LP1A     LPD     -0.230000       0.00000          -1   0.00000       0.00000    
      5797 MEOH     98       MEOH     LP1B     LPD     -0.230000       0.00000          -1   0.00000       0.00000    
      5798 MEOH     99       MEOH     C1       CD33B     2.31410       11.6110           0  -1.00000       1.30000    
      5799 MEOH     99       MEOH     DC1      DRUD     -2.45410      0.400000           0   0.00000       0.00000    
      5800 MEOH     99       MEOH     O1       OD31H     2.48830       15.5990           0  -1.02800       1.30000    
      5801 MEOH     99       MEOH     DO1      DRUD     -2.48830      0.400000           0   0.00000       0.00000    
      5802 MEOH     99       MEOH     HO1      HDP1A    0.360000       1.00800           0   0.00000       0.00000    
      5803 MEOH     99       MEOH     HO2      DUMH      0.00000       1.00800           0   0.00000       0.00000    
      5804 MEOH     99       MEOH     H1A      HDA3B    0.800000E-01   1.00800           0   0.00000       0.00000    
      5805 MEOH     99       MEOH     H1B      HDA3B    0.800000E-01   1.00800           0   0.00000       0.00000    
      5806 MEOH     99       MEOH     H1C      HDA3B    0.800000E-01   1.00800           0   0.00000       0.00000    
      5807 MEOH     99       MEOH     LP1A     LPD     -0.230000       0.00000          -1   0.00000       0.00000    
      5808 MEOH     99       MEOH     LP1B     LPD     -0.230000       0.00000          -1   0.00000       0.00000    
      5809 MEOH     100      MEOH     C1       CD33B     2.31410       11.6110           0  -1.00000       1.30000    
      5810 MEOH     100      MEOH     DC1      DRUD     -2.45410      0.400000           0   0.00000       0.00000    
      5811 MEOH     100      MEOH     O1       OD31H     2.48830       15.5990           0  -1.02800       1.30000    
      5812 MEOH     100      MEOH     DO1      DRUD     -2.48830      0.400000           0   0.00000       0.00000    
      5813 MEOH     100      MEOH     HO1      HDP1A    0.360000       1.00800           0   0.00000       0.00000    
      5814 MEOH     100      MEOH     HO2      DUMH      0.00000       1.00800           0   0.00000       0.00000    
      5815 MEOH     100      MEOH     H1A      HDA3B    0.800000E-01   1.00800           0   0.00000       0.00000    
      5816 MEOH     100      MEOH     H1B      HDA3B    0.800000E-01   1.00800           0   0.00000       0.00000    
      5817 MEOH     100      MEOH     H1C      HDA3B    0.800000E-01   1.00800           0   0.00000       0.00000    
      5818 MEOH     100      MEOH     LP1A     LPD     -0.230000       0.00000          -1   0.00000       0.00000    
      5819 MEOH     100      MEOH     LP1B     LPD     -0.230000       0.00000          -1   0.00000       0.00000    
      5820 MEOH     101      MEOH     C1       CD33B     2.31410       11.6110           0  -1.00000       1.30000    
      5821 MEOH     101      MEOH     DC1      DRUD     -2.45410      0.400000           0   0.00000       0.00000    
      5822 MEOH     101      MEOH     O1       OD31H     2.48830       15.5990           0  -1.02800       1.30000    
      5823 MEOH     101      MEOH     DO1      DRUD     -2.48830      0.400000           0   0.00000       0.00000    
      5824 MEOH     101      MEOH     HO1      HDP1A    0.360000       1.00800           0   0.00000       0.00000    
      5825 MEOH     101      MEOH     HO2      DUMH      0.00000       1.00800           0   0.00000       0.00000    
      5826 MEOH     101      MEOH     H1A      HDA3B    0.800000E-01   1.00800           0   0.00000       0.00000    
      5827 MEOH     101      MEOH     H1B      HDA3B    0.800000E-01   1.00800           0   0.00000       0.00000    
      5828 MEOH     101      MEOH     H1C      HDA3B    0.800000E-01   1.00800           0   0.00000       0.00000    
      5829 MEOH     101      MEOH     LP1A     LPD     -0.230000       0.00000          -1   0.00000       0.00000    
      5830 MEOH     101      MEOH     LP1B     LPD     -0.230000       0.00000          -1   0.00000       0.00000    
      5831 MEOH     102      MEOH     C1       CD33B     2.31410       11.6110           0  -1.00000       1.30000    
      5832 MEOH     102      MEOH     DC1      DRUD     -2.45410      0.400000           0   0.00000       0.00000    
      5833 MEOH     102      MEOH     O1       OD31H     2.48830       15.5990           0  -1.02800       1.30000    
      5834 MEOH     102      MEOH     DO1      DRUD     -2.48830      0.400000           0   0.00000       0.00000    
      5835 MEOH     102      MEOH     HO1      HDP1A    0.360000       1.00800           0   0.00000       0.00000    
      5836 MEOH     102      MEOH     HO2      DUMH      0.00000       1.00800           0   0.00000       0.00000    
      5837 MEOH     102      MEOH     H1A      HDA3B    0.800000E-01   1.00800           0   0.00000       0.00000    
      5838 MEOH     102      MEOH     H1B      HDA3B    0.800000E-01   1.00800           0   0.00000       0.00000    
      5839 MEOH     102      MEOH     H1C      HDA3B    0.800000E-01   1.00800           0   0.00000       0.00000    
      5840 MEOH     102      MEOH     LP1A     LPD     -0.230000       0.00000          -1   0.00000       0.00000    
      5841 MEOH     102      MEOH     LP1B     LPD     -0.230000       0.00000          -1   0.00000       0.00000    
      5842 MEOH     103      MEOH     C1       CD33B     2.31410       11.6110           0  -1.00000       1.30000    
      5843 MEOH     103      MEOH     DC1      DRUD     -2.45410      0.400000           0   0.00000       0.00000    
      5844 MEOH     103      MEOH     O1       OD31H     2.48830       15.5990           0  -1.02800       1.30000    
      5845 MEOH     103      MEOH     DO1      DRUD     -2.48830      0.400000           0   0.00000       0.00000    
      5846 MEOH     103      MEOH     HO1      HDP1A    0.360000       1.00800           0   0.00000       0.00000    
      5847 MEOH     103      MEOH     HO2      DUMH      0.00000       1.00800           0   0.00000       0.00000    
      5848 MEOH     103      MEOH     H1A      HDA3B    0.800000E-01   1.00800           0   0.00000       0.00000    
      5849 MEOH     103      MEOH     H1B      HDA3B    0.800000E-01   1.00800           0   0.00000       0.00000    
      5850 MEOH     103      MEOH     H1C      HDA3B    0.800000E-01   1.00800           0   0.00000       0.00000    
      5851 MEOH     103      MEOH     LP1A     LPD     -0.230000       0.00000          -1   0.00000       0.00000    
      5852 MEOH     103      MEOH     LP1B     LPD     -0.230000       0.00000          -1   0.00000       0.00000    
      5853 MEOH     104      MEOH     C1       CD33B     2.31410       11.6110           0  -1.00000       1.30000    
      5854 MEOH     104      MEOH     DC1      DRUD     -2.45410      0.400000           0   0.00000       0.00000    
      5855 MEOH     104      MEOH     O1       OD31H     2.48830       15.5990           0  -1.02800       1.30000    
      5856 MEOH     104      MEOH     DO1      DRUD     -2.48830      0.400000           0   0.00000       0.00000    
      5857 MEOH     104      MEOH     HO1      HDP1A    0.360000       1.00800           0   0.00000       0.00000    
      5858 MEOH     104      MEOH     HO2      DUMH      0.00000       1.00800           0   0.00000       0.00000    
      5859 MEOH     104      MEOH     H1A      HDA3B    0.800000E-01   1.00800           0   0.00000       0.00000    
      5860 MEOH     104      MEOH     H1B      HDA3B    0.800000E-01   1.00800           0   0.00000       0.00000    
      5861 MEOH     104      MEOH     H1C      HDA3B    0.800000E-01   1.00800           0   0.00000       0.00000    
      5862 MEOH     104      MEOH     LP1A     LPD     -0.230000       0.00000          -1   0.00000       0.00000    
      5863 MEOH     104      MEOH     LP1B     LPD     -0.230000       0.00000          -1   0.00000       0.00000    
      5864 MEOH     105      MEOH     C1       CD33B     2.31410       11.6110           0  -1.00000       1.30000    
      5865 MEOH     105      MEOH     DC1      DRUD     -2.45410      0.400000           0   0.00000       0.00000    
      5866 MEOH     105      MEOH     O1       OD31H     2.48830       15.5990           0  -1.02800       1.30000    
      5867 MEOH     105      MEOH     DO1      DRUD     -2.48830      0.400000           0   0.00000       0.00000    
      5868 MEOH     105      MEOH     HO1      HDP1A    0.360000       1.00800           0   0.00000       0.00000    
      5869 MEOH     105      MEOH     HO2      DUMH      0.00000       1.00800           0   0.00000       0.00000    
      5870 MEOH     105      MEOH     H1A      HDA3B    0.800000E-01   1.00800           0   0.00000       0.00000    
      5871 MEOH     105      MEOH     H1B      HDA3B    0.800000E-01   1.00800           0   0.00000       0.00000    
      5872 MEOH     105      MEOH     H1C      HDA3B    0.800000E-01   1.00800           0   0.00000       0.00000    
      5873 MEOH     105      MEOH     LP1A     LPD     -0.230000       0.00000          -1   0.00000       0.00000    
      5874 MEOH     105      MEOH     LP1B     LPD     -0.230000       0.00000          -1   0.00000       0.00000    
      5875 MEOH     106      MEOH     C1       CD33B     2.31410       11.6110           0  -1.00000       1.30000    
      5876 MEOH     106      MEOH     DC1      DRUD     -2.45410      0.400000           0   0.00000       0.00000    
      5877 MEOH     106      MEOH     O1       OD31H     2.48830       15.5990           0  -1.02800       1.30000    
      5878 MEOH     106      MEOH     DO1      DRUD     -2.48830      0.400000           0   0.00000       0.00000    
      5879 MEOH     106      MEOH     HO1      HDP1A    0.360000       1.00800           0   0.00000       0.00000    
      5880 MEOH     106      MEOH     HO2      DUMH      0.00000       1.00800           0   0.00000       0.00000    
      5881 MEOH     106      MEOH     H1A      HDA3B    0.800000E-01   1.00800           0   0.00000       0.00000    
      5882 MEOH     106      MEOH     H1B      HDA3B    0.800000E-01   1.00800           0   0.00000       0.00000    
      5883 MEOH     106      MEOH     H1C      HDA3B    0.800000E-01   1.00800           0   0.00000       0.00000    
      5884 MEOH     106      MEOH     LP1A     LPD     -0.230000       0.00000          -1   0.00000       0.00000    
      5885 MEOH     106      MEOH     LP1B     LPD     -0.230000       0.00000          -1   0.00000       0.00000    
      5886 MEOH     107      MEOH     C1       CD33B     2.31410       11.6110           0  -1.00000       1.30000    
      5887 MEOH     107      MEOH     DC1      DRUD     -2.45410      0.400000           0   0.00000       0.00000    
      5888 MEOH     107      MEOH     O1       OD31H     2.48830       15.5990           0  -1.02800       1.30000    
      5889 MEOH     107      MEOH     DO1      DRUD     -2.48830      0.400000           0   0.00000       0.00000    
      5890 MEOH     107      MEOH     HO1      HDP1A    0.360000       1.00800           0   0.00000       0.00000    
      5891 MEOH     107      MEOH     HO2      DUMH      0.00000       1.00800           0   0.00000       0.00000    
      5892 MEOH     107      MEOH     H1A      HDA3B    0.800000E-01   1.00800           0   0.00000       0.00000    
      5893 MEOH     107      MEOH     H1B      HDA3B    0.800000E-01   1.00800           0   0.00000       0.00000    
      5894 MEOH     107      MEOH     H1C      HDA3B    0.800000E-01   1.00800           0   0.00000       0.00000    
      5895 MEOH     107      MEOH     LP1A     LPD     -0.230000       0.00000          -1   0.00000       0.00000    
      5896 MEOH     107      MEOH     LP1B     LPD     -0.230000       0.00000          -1   0.00000       0.00000    
      5897 MEOH     108      MEOH     C1       CD33B     2.31410       11.6110           0  -1.00000       1.30000    
      5898 MEOH     108      MEOH     DC1      DRUD     -2.45410      0.400000           0   0.00000       0.00000    
      5899 MEOH     108      MEOH     O1       OD31H     2.48830       15.5990           0  -1.02800       1.30000    
      5900 MEOH     108      MEOH     DO1      DRUD     -2.48830      0.400000           0   0.00000       0.00000    
      5901 MEOH     108      MEOH     HO1      HDP1A    0.360000       1.00800           0   0.00000       0.00000    
      5902 MEOH     108      MEOH     HO2      DUMH      0.00000       1.00800           0   0.00000       0.00000    
      5903 MEOH     108      MEOH     H1A      HDA3B    0.800000E-01   1.00800           0   0.00000       0.00000    
      5904 MEOH     108      MEOH     H1B      HDA3B    0.800000E-01   1.00800           0   0.00000       0.00000    
      5905 MEOH     108      MEOH     H1C      HDA3B    0.800000E-01   1.00800           0   0.00000       0.00000    
      5906 MEOH     108      MEOH     LP1A     LPD     -0.230000       0.00000          -1   0.00000       0.00000    
      5907 MEOH     108      MEOH     LP1B     LPD     -0.230000       0.00000          -1   0.00000       0.00000    
      5908 MEOH     109      MEOH     C1       CD33B     2.31410       11.6110           0  -1.00000       1.30000    
      5909 MEOH     109      MEOH     DC1      DRUD     -2.45410      0.400000           0   0.00000       0.00000    
      5910 MEOH     109      MEOH     O1       OD31H     2.48830       15.5990           0  -1.02800       1.30000    
      5911 MEOH     109      MEOH     DO1      DRUD     -2.48830      0.400000           0   0.00000       0.00000    
      5912 MEOH     109      MEOH     HO1      HDP1A    0.360000       1.00800           0   0.00000       0.00000    
      5913 MEOH     109      MEOH     HO2      DUMH      0.00000       1.00800           0   0.00000       0.00000    
      5914 MEOH     109      MEOH     H1A      HDA3B    0.800000E-01   1.00800           0   0.00000       0.00000    
      5915 MEOH     109      MEOH     H1B      HDA3B    0.800000E-01   1.00800           0   0.00000       0.00000    
      5916 MEOH     109      MEOH     H1C      HDA3B    0.800000E-01   1.00800           0   0.00000       0.00000    
      5917 MEOH     109      MEOH     LP1A     LPD     -0.230000       0.00000          -1   0.00000       0.00000    
      5918 MEOH     109      MEOH     LP1B     LPD     -0.230000       0.00000          -1   0.00000       0.00000    
      5919 MEOH     110      MEOH     C1       CD33B     2.31410       11.6110           0  -1.00000       1.30000    
      5920 MEOH     110      MEOH     DC1      DRUD     -2.45410      0.400000           0   0.00000       0.00000    
      5921 MEOH     110      MEOH     O1       OD31H     2.48830       15.5990           0  -1.02800       1.30000    
      5922 MEOH     110      MEOH     DO1      DRUD     -2.48830      0.400000           0   0.00000       0.00000    
      5923 MEOH     110      MEOH     HO1      HDP1A    0.360000       1.00800           0   0.00000       0.00000    
      5924 MEOH     110      MEOH     HO2      DUMH      0.00000       1.00800           0   0.00000       0.00000    
      5925 MEOH     110      MEOH     H1A      HDA3B    0.800000E-01   1.00800           0   0.00000       0.00000    
      5926 MEOH     110      MEOH     H1B      HDA3B    0.800000E-01   1.00800           0   0.00000       0.00000    
      5927 MEOH     110      MEOH     H1C      HDA3B    0.800000E-01   1.00800           0   0.00000       0.00000    
      5928 MEOH     110      MEOH     LP1A     LPD     -0.230000       0.00000          -1   0.00000       0.00000    
      5929 MEOH     110      MEOH     LP1B     LPD     -0.230000       0.00000          -1   0.00000       0.00000    
      5930 MEOH     111      MEOH     C1       CD33B     2.31410       11.6110           0  -1.00000       1.30000    
      5931 MEOH     111      MEOH     DC1      DRUD     -2.45410      0.400000           0   0.00000       0.00000    
      5932 MEOH     111      MEOH     O1       OD31H     2.48830       15.5990           0  -1.02800       1.30000    
      5933 MEOH     111      MEOH     DO1      DRUD     -2.48830      0.400000           0   0.00000       0.00000    
      5934 MEOH     111      MEOH     HO1      HDP1A    0.360000       1.00800           0   0.00000       0.00000    
      5935 MEOH     111      MEOH     HO2      DUMH      0.00000       1.00800           0   0.00000       0.00000    
      5936 MEOH     111      MEOH     H1A      HDA3B    0.800000E-01   1.00800           0   0.00000       0.00000    
      5937 MEOH     111      MEOH     H1B      HDA3B    0.800000E-01   1.00800           0   0.00000       0.00000    
      5938 MEOH     111      MEOH     H1C      HDA3B    0.800000E-01   1.00800           0   0.00000       0.00000    
      5939 MEOH     111      MEOH     LP1A     LPD     -0.230000       0.00000          -1   0.00000       0.00000    
      5940 MEOH     111      MEOH     LP1B     LPD     -0.230000       0.00000          -1   0.00000       0.00000    
      5941 MEOH     112      MEOH     C1       CD33B     2.31410       11.6110           0  -1.00000       1.30000    
      5942 MEOH     112      MEOH     DC1      DRUD     -2.45410      0.400000           0   0.00000       0.00000    
      5943 MEOH     112      MEOH     O1       OD31H     2.48830       15.5990           0  -1.02800       1.30000    
      5944 MEOH     112      MEOH     DO1      DRUD     -2.48830      0.400000           0   0.00000       0.00000    
      5945 MEOH     112      MEOH     HO1      HDP1A    0.360000       1.00800           0   0.00000       0.00000    
      5946 MEOH     112      MEOH     HO2      DUMH      0.00000       1.00800           0   0.00000       0.00000    
      5947 MEOH     112      MEOH     H1A      HDA3B    0.800000E-01   1.00800           0   0.00000       0.00000    
      5948 MEOH     112      MEOH     H1B      HDA3B    0.800000E-01   1.00800           0   0.00000       0.00000    
      5949 MEOH     112      MEOH     H1C      HDA3B    0.800000E-01   1.00800           0   0.00000       0.00000    
      5950 MEOH     112      MEOH     LP1A     LPD     -0.230000       0.00000          -1   0.00000       0.00000    
      5951 MEOH     112      MEOH     LP1B     LPD     -0.230000       0.00000          -1   0.00000       0.00000    
      5952 MEOH     113      MEOH     C1       CD33B     2.31410       11.6110           0  -1.00000       1.30000    
      5953 MEOH     113      MEOH     DC1      DRUD     -2.45410      0.400000           0   0.00000       0.00000    
      5954 MEOH     113      MEOH     O1       OD31H     2.48830       15.5990           0  -1.02800       1.30000    
      5955 MEOH     113      MEOH     DO1      DRUD     -2.48830      0.400000           0   0.00000       0.00000    
      5956 MEOH     113      MEOH     HO1      HDP1A    0.360000       1.00800           0   0.00000       0.00000    
      5957 MEOH     113      MEOH     HO2      DUMH      0.00000       1.00800           0   0.00000       0.00000    
      5958 MEOH     113      MEOH     H1A      HDA3B    0.800000E-01   1.00800           0   0.00000       0.00000    
      5959 MEOH     113      MEOH     H1B      HDA3B    0.800000E-01   1.00800           0   0.00000       0.00000    
      5960 MEOH     113      MEOH     H1C      HDA3B    0.800000E-01   1.00800           0   0.00000       0.00000    
      5961 MEOH     113      MEOH     LP1A     LPD     -0.230000       0.00000          -1   0.00000       0.00000    
      5962 MEOH     113      MEOH     LP1B     LPD     -0.230000       0.00000          -1   0.00000       0.00000    
      5963 MEOH     114      MEOH     C1       CD33B     2.31410       11.6110           0  -1.00000       1.30000    
      5964 MEOH     114      MEOH     DC1      DRUD     -2.45410      0.400000           0   0.00000       0.00000    
      5965 MEOH     114      MEOH     O1       OD31H     2.48830       15.5990           0  -1.02800       1.30000    
      5966 MEOH     114      MEOH     DO1      DRUD     -2.48830      0.400000           0   0.00000       0.00000    
      5967 MEOH     114      MEOH     HO1      HDP1A    0.360000       1.00800           0   0.00000       0.00000    
      5968 MEOH     114      MEOH     HO2      DUMH      0.00000       1.00800           0   0.00000       0.00000    
      5969 MEOH     114      MEOH     H1A      HDA3B    0.800000E-01   1.00800           0   0.00000       0.00000    
      5970 MEOH     114      MEOH     H1B      HDA3B    0.800000E-01   1.00800           0   0.00000       0.00000    
      5971 MEOH     114      MEOH     H1C      HDA3B    0.800000E-01   1.00800           0   0.00000       0.00000    
      5972 MEOH     114      MEOH     LP1A     LPD     -0.230000       0.00000          -1   0.00000       0.00000    
      5973 MEOH     114      MEOH     LP1B     LPD     -0.230000       0.00000          -1   0.00000       0.00000    
      5974 MEOH     115      MEOH     C1       CD33B     2.31410       11.6110           0  -1.00000       1.30000    
      5975 MEOH     115      MEOH     DC1      DRUD     -2.45410      0.400000           0   0.00000       0.00000    
      5976 MEOH     115      MEOH     O1       OD31H     2.48830       15.5990           0  -1.02800       1.30000    
      5977 MEOH     115      MEOH     DO1      DRUD     -2.48830      0.400000           0   0.00000       0.00000    
      5978 MEOH     115      MEOH     HO1      HDP1A    0.360000       1.00800           0   0.00000       0.00000    
      5979 MEOH     115      MEOH     HO2      DUMH      0.00000       1.00800           0   0.00000       0.00000    
      5980 MEOH     115      MEOH     H1A      HDA3B    0.800000E-01   1.00800           0   0.00000       0.00000    
      5981 MEOH     115      MEOH     H1B      HDA3B    0.800000E-01   1.00800           0   0.00000       0.00000    
      5982 MEOH     115      MEOH     H1C      HDA3B    0.800000E-01   1.00800           0   0.00000       0.00000    
      5983 MEOH     115      MEOH     LP1A     LPD     -0.230000       0.00000          -1   0.00000       0.00000    
      5984 MEOH     115      MEOH     LP1B     LPD     -0.230000       0.00000          -1   0.00000       0.00000    
      5985 MEOH     116      MEOH     C1       CD33B     2.31410       11.6110           0  -1.00000       1.30000    
      5986 MEOH     116      MEOH     DC1      DRUD     -2.45410      0.400000           0   0.00000       0.00000    
      5987 MEOH     116      MEOH     O1       OD31H     2.48830       15.5990           0  -1.02800       1.30000    
      5988 MEOH     116      MEOH     DO1      DRUD     -2.48830      0.400000           0   0.00000       0.00000    
      5989 MEOH     116      MEOH     HO1      HDP1A    0.360000       1.00800           0   0.00000       0.00000    
      5990 MEOH     116      MEOH     HO2      DUMH      0.00000       1.00800           0   0.00000       0.00000    
      5991 MEOH     116      MEOH     H1A      HDA3B    0.800000E-01   1.00800           0   0.00000       0.00000    
      5992 MEOH     116      MEOH     H1B      HDA3B    0.800000E-01   1.00800           0   0.00000       0.00000    
      5993 MEOH     116      MEOH     H1C      HDA3B    0.800000E-01   1.00800           0   0.00000       0.00000    
      5994 MEOH     116      MEOH     LP1A     LPD     -0.230000       0.00000          -1   0.00000       0.00000    
      5995 MEOH     116      MEOH     LP1B     LPD     -0.230000       0.00000          -1   0.00000       0.00000    
      5996 MEOH     117      MEOH     C1       CD33B     2.31410       11.6110           0  -1.00000       1.30000    
      5997 MEOH     117      MEOH     DC1      DRUD     -2.45410      0.400000           0   0.00000       0.00000    
      5998 MEOH     117      MEOH     O1       OD31H     2.48830       15.5990           0  -1.02800       1.30000    
      5999 MEOH     117      MEOH     DO1      DRUD     -2.48830      0.400000           0   0.00000       0.00000    
      6000 MEOH     117      MEOH     HO1      HDP1A    0.360000       1.00800           0   0.00000       0.00000    
      6001 MEOH     117      MEOH     HO2      DUMH      0.00000       1.00800           0   0.00000       0.00000    
      6002 MEOH     117      MEOH     H1A      HDA3B    0.800000E-01   1.00800           0   0.00000       0.00000    
      6003 MEOH     117      MEOH     H1B      HDA3B    0.800000E-01   1.00800           0   0.00000       0.00000    
      6004 MEOH     117      MEOH     H1C      HDA3B    0.800000E-01   1.00800           0   0.00000       0.00000    
      6005 MEOH     117      MEOH     LP1A     LPD     -0.230000       0.00000          -1   0.00000       0.00000    
      6006 MEOH     117      MEOH     LP1B     LPD     -0.230000       0.00000          -1   0.00000       0.00000    
      6007 MEOH     118      MEOH     C1       CD33B     2.31410       11.6110           0  -1.00000       1.30000    
      6008 MEOH     118      MEOH     DC1      DRUD     -2.45410      0.400000           0   0.00000       0.00000    
      6009 MEOH     118      MEOH     O1       OD31H     2.48830       15.5990           0  -1.02800       1.30000    
      6010 MEOH     118      MEOH     DO1      DRUD     -2.48830      0.400000           0   0.00000       0.00000    
      6011 MEOH     118      MEOH     HO1      HDP1A    0.360000       1.00800           0   0.00000       0.00000    
      6012 MEOH     118      MEOH     HO2      DUMH      0.00000       1.00800           0   0.00000       0.00000    
      6013 MEOH     118      MEOH     H1A      HDA3B    0.800000E-01   1.00800           0   0.00000       0.00000    
      6014 MEOH     118      MEOH     H1B      HDA3B    0.800000E-01   1.00800           0   0.00000       0.00000    
      6015 MEOH     118      MEOH     H1C      HDA3B    0.800000E-01   1.00800           0   0.00000       0.00000    
      6016 MEOH     118      MEOH     LP1A     LPD     -0.230000       0.00000          -1   0.00000       0.00000    
      6017 MEOH     118      MEOH     LP1B     LPD     -0.230000       0.00000          -1   0.00000       0.00000    
      6018 MEOH     119      MEOH     C1       CD33B     2.31410       11.6110           0  -1.00000       1.30000    
      6019 MEOH     119      MEOH     DC1      DRUD     -2.45410      0.400000           0   0.00000       0.00000    
      6020 MEOH     119      MEOH     O1       OD31H     2.48830       15.5990           0  -1.02800       1.30000    
      6021 MEOH     119      MEOH     DO1      DRUD     -2.48830      0.400000           0   0.00000       0.00000    
      6022 MEOH     119      MEOH     HO1      HDP1A    0.360000       1.00800           0   0.00000       0.00000    
      6023 MEOH     119      MEOH     HO2      DUMH      0.00000       1.00800           0   0.00000       0.00000    
      6024 MEOH     119      MEOH     H1A      HDA3B    0.800000E-01   1.00800           0   0.00000       0.00000    
      6025 MEOH     119      MEOH     H1B      HDA3B    0.800000E-01   1.00800           0   0.00000       0.00000    
      6026 MEOH     119      MEOH     H1C      HDA3B    0.800000E-01   1.00800           0   0.00000       0.00000    
      6027 MEOH     119      MEOH     LP1A     LPD     -0.230000       0.00000          -1   0.00000       0.00000    
      6028 MEOH     119      MEOH     LP1B     LPD     -0.230000       0.00000          -1   0.00000       0.00000    
      6029 MEOH     120      MEOH     C1       CD33B     2.31410       11.6110           0  -1.00000       1.30000    
      6030 MEOH     120      MEOH     DC1      DRUD     -2.45410      0.400000           0   0.00000       0.00000    
      6031 MEOH     120      MEOH     O1       OD31H     2.48830       15.5990           0  -1.02800       1.30000    
      6032 MEOH     120      MEOH     DO1      DRUD     -2.48830      0.400000           0   0.00000       0.00000    
      6033 MEOH     120      MEOH     HO1      HDP1A    0.360000       1.00800           0   0.00000       0.00000    
      6034 MEOH     120      MEOH     HO2      DUMH      0.00000       1.00800           0   0.00000       0.00000    
      6035 MEOH     120      MEOH     H1A      HDA3B    0.800000E-01   1.00800           0   0.00000       0.00000    
      6036 MEOH     120      MEOH     H1B      HDA3B    0.800000E-01   1.00800           0   0.00000       0.00000    
      6037 MEOH     120      MEOH     H1C      HDA3B    0.800000E-01   1.00800           0   0.00000       0.00000    
      6038 MEOH     120      MEOH     LP1A     LPD     -0.230000       0.00000          -1   0.00000       0.00000    
      6039 MEOH     120      MEOH     LP1B     LPD     -0.230000       0.00000          -1   0.00000       0.00000    
      6040 MEOH     121      MEOH     C1       CD33B     2.31410       11.6110           0  -1.00000       1.30000    
      6041 MEOH     121      MEOH     DC1      DRUD     -2.45410      0.400000           0   0.00000       0.00000    
      6042 MEOH     121      MEOH     O1       OD31H     2.48830       15.5990           0  -1.02800       1.30000    
      6043 MEOH     121      MEOH     DO1      DRUD     -2.48830      0.400000           0   0.00000       0.00000    
      6044 MEOH     121      MEOH     HO1      HDP1A    0.360000       1.00800           0   0.00000       0.00000    
      6045 MEOH     121      MEOH     HO2      DUMH      0.00000       1.00800           0   0.00000       0.00000    
      6046 MEOH     121      MEOH     H1A      HDA3B    0.800000E-01   1.00800           0   0.00000       0.00000    
      6047 MEOH     121      MEOH     H1B      HDA3B    0.800000E-01   1.00800           0   0.00000       0.00000    
      6048 MEOH     121      MEOH     H1C      HDA3B    0.800000E-01   1.00800           0   0.00000       0.00000    
      6049 MEOH     121      MEOH     LP1A     LPD     -0.230000       0.00000          -1   0.00000       0.00000    
      6050 MEOH     121      MEOH     LP1B     LPD     -0.230000       0.00000          -1   0.00000       0.00000    
      6051 MEOH     122      MEOH     C1       CD33B     2.31410       11.6110           0  -1.00000       1.30000    
      6052 MEOH     122      MEOH     DC1      DRUD     -2.45410      0.400000           0   0.00000       0.00000    
      6053 MEOH     122      MEOH     O1       OD31H     2.48830       15.5990           0  -1.02800       1.30000    
      6054 MEOH     122      MEOH     DO1      DRUD     -2.48830      0.400000           0   0.00000       0.00000    
      6055 MEOH     122      MEOH     HO1      HDP1A    0.360000       1.00800           0   0.00000       0.00000    
      6056 MEOH     122      MEOH     HO2      DUMH      0.00000       1.00800           0   0.00000       0.00000    
      6057 MEOH     122      MEOH     H1A      HDA3B    0.800000E-01   1.00800           0   0.00000       0.00000    
      6058 MEOH     122      MEOH     H1B      HDA3B    0.800000E-01   1.00800           0   0.00000       0.00000    
      6059 MEOH     122      MEOH     H1C      HDA3B    0.800000E-01   1.00800           0   0.00000       0.00000    
      6060 MEOH     122      MEOH     LP1A     LPD     -0.230000       0.00000          -1   0.00000       0.00000    
      6061 MEOH     122      MEOH     LP1B     LPD     -0.230000       0.00000          -1   0.00000       0.00000    
      6062 MEOH     123      MEOH     C1       CD33B     2.31410       11.6110           0  -1.00000       1.30000    
      6063 MEOH     123      MEOH     DC1      DRUD     -2.45410      0.400000           0   0.00000       0.00000    
      6064 MEOH     123      MEOH     O1       OD31H     2.48830       15.5990           0  -1.02800       1.30000    
      6065 MEOH     123      MEOH     DO1      DRUD     -2.48830      0.400000           0   0.00000       0.00000    
      6066 MEOH     123      MEOH     HO1      HDP1A    0.360000       1.00800           0   0.00000       0.00000    
      6067 MEOH     123      MEOH     HO2      DUMH      0.00000       1.00800           0   0.00000       0.00000    
      6068 MEOH     123      MEOH     H1A      HDA3B    0.800000E-01   1.00800           0   0.00000       0.00000    
      6069 MEOH     123      MEOH     H1B      HDA3B    0.800000E-01   1.00800           0   0.00000       0.00000    
      6070 MEOH     123      MEOH     H1C      HDA3B    0.800000E-01   1.00800           0   0.00000       0.00000    
      6071 MEOH     123      MEOH     LP1A     LPD     -0.230000       0.00000          -1   0.00000       0.00000    
      6072 MEOH     123      MEOH     LP1B     LPD     -0.230000       0.00000          -1   0.00000       0.00000    
      6073 MEOH     124      MEOH     C1       CD33B     2.31410       11.6110           0  -1.00000       1.30000    
      6074 MEOH     124      MEOH     DC1      DRUD     -2.45410      0.400000           0   0.00000       0.00000    
      6075 MEOH     124      MEOH     O1       OD31H     2.48830       15.5990           0  -1.02800       1.30000    
      6076 MEOH     124      MEOH     DO1      DRUD     -2.48830      0.400000           0   0.00000       0.00000    
      6077 MEOH     124      MEOH     HO1      HDP1A    0.360000       1.00800           0   0.00000       0.00000    
      6078 MEOH     124      MEOH     HO2      DUMH      0.00000       1.00800           0   0.00000       0.00000    
      6079 MEOH     124      MEOH     H1A      HDA3B    0.800000E-01   1.00800           0   0.00000       0.00000    
      6080 MEOH     124      MEOH     H1B      HDA3B    0.800000E-01   1.00800           0   0.00000       0.00000    
      6081 MEOH     124      MEOH     H1C      HDA3B    0.800000E-01   1.00800           0   0.00000       0.00000    
      6082 MEOH     124      MEOH     LP1A     LPD     -0.230000       0.00000          -1   0.00000       0.00000    
      6083 MEOH     124      MEOH     LP1B     LPD     -0.230000       0.00000          -1   0.00000       0.00000    
      6084 MEOH     125      MEOH     C1       CD33B     2.31410       11.6110           0  -1.00000       1.30000    
      6085 MEOH     125      MEOH     DC1      DRUD     -2.45410      0.400000           0   0.00000       0.00000    
      6086 MEOH     125      MEOH     O1       OD31H     2.48830       15.5990           0  -1.02800       1.30000    
      6087 MEOH     125      MEOH     DO1      DRUD     -2.48830      0.400000           0   0.00000       0.00000    
      6088 MEOH     125      MEOH     HO1      HDP1A    0.360000       1.00800           0   0.00000       0.00000    
      6089 MEOH     125      MEOH     HO2      DUMH      0.00000       1.00800           0   0.00000       0.00000    
      6090 MEOH     125      MEOH     H1A      HDA3B    0.800000E-01   1.00800           0   0.00000       0.00000    
      6091 MEOH     125      MEOH     H1B      HDA3B    0.800000E-01   1.00800           0   0.00000       0.00000    
      6092 MEOH     125      MEOH     H1C      HDA3B    0.800000E-01   1.00800           0   0.00000       0.00000    
      6093 MEOH     125      MEOH     LP1A     LPD     -0.230000       0.00000          -1   0.00000       0.00000    
      6094 MEOH     125      MEOH     LP1B     LPD     -0.230000       0.00000          -1   0.00000       0.00000    
      6095 MEOH     126      MEOH     C1       CD33B     2.31410       11.6110           0  -1.00000       1.30000    
      6096 MEOH     126      MEOH     DC1      DRUD     -2.45410      0.400000           0   0.00000       0.00000    
      6097 MEOH     126      MEOH     O1       OD31H     2.48830       15.5990           0  -1.02800       1.30000    
      6098 MEOH     126      MEOH     DO1      DRUD     -2.48830      0.400000           0   0.00000       0.00000    
      6099 MEOH     126      MEOH     HO1      HDP1A    0.360000       1.00800           0   0.00000       0.00000    
      6100 MEOH     126      MEOH     HO2      DUMH      0.00000       1.00800           0   0.00000       0.00000    
      6101 MEOH     126      MEOH     H1A      HDA3B    0.800000E-01   1.00800           0   0.00000       0.00000    
      6102 MEOH     126      MEOH     H1B      HDA3B    0.800000E-01   1.00800           0   0.00000       0.00000    
      6103 MEOH     126      MEOH     H1C      HDA3B    0.800000E-01   1.00800           0   0.00000       0.00000    
      6104 MEOH     126      MEOH     LP1A     LPD     -0.230000       0.00000          -1   0.00000       0.00000    
      6105 MEOH     126      MEOH     LP1B     LPD     -0.230000       0.00000          -1   0.00000       0.00000    
      6106 MEOH     127      MEOH     C1       CD33B     2.31410       11.6110           0  -1.00000       1.30000    
      6107 MEOH     127      MEOH     DC1      DRUD     -2.45410      0.400000           0   0.00000       0.00000    
      6108 MEOH     127      MEOH     O1       OD31H     2.48830       15.5990           0  -1.02800       1.30000    
      6109 MEOH     127      MEOH     DO1      DRUD     -2.48830      0.400000           0   0.00000       0.00000    
      6110 MEOH     127      MEOH     HO1      HDP1A    0.360000       1.00800           0   0.00000       0.00000    
      6111 MEOH     127      MEOH     HO2      DUMH      0.00000       1.00800           0   0.00000       0.00000    
      6112 MEOH     127      MEOH     H1A      HDA3B    0.800000E-01   1.00800           0   0.00000       0.00000    
      6113 MEOH     127      MEOH     H1B      HDA3B    0.800000E-01   1.00800           0   0.00000       0.00000    
      6114 MEOH     127      MEOH     H1C      HDA3B    0.800000E-01   1.00800           0   0.00000       0.00000    
      6115 MEOH     127      MEOH     LP1A     LPD     -0.230000       0.00000          -1   0.00000       0.00000    
      6116 MEOH     127      MEOH     LP1B     LPD     -0.230000       0.00000          -1   0.00000       0.00000    
      6117 MEOH     128      MEOH     C1       CD33B     2.31410       11.6110           0  -1.00000       1.30000    
      6118 MEOH     128      MEOH     DC1      DRUD     -2.45410      0.400000           0   0.00000       0.00000    
      6119 MEOH     128      MEOH     O1       OD31H     2.48830       15.5990           0  -1.02800       1.30000    
      6120 MEOH     128      MEOH     DO1      DRUD     -2.48830      0.400000           0   0.00000       0.00000    
      6121 MEOH     128      MEOH     HO1      HDP1A    0.360000       1.00800           0   0.00000       0.00000    
      6122 MEOH     128      MEOH     HO2      DUMH      0.00000       1.00800           0   0.00000       0.00000    
      6123 MEOH     128      MEOH     H1A      HDA3B    0.800000E-01   1.00800           0   0.00000       0.00000    
      6124 MEOH     128      MEOH     H1B      HDA3B    0.800000E-01   1.00800           0   0.00000       0.00000    
      6125 MEOH     128      MEOH     H1C      HDA3B    0.800000E-01   1.00800           0   0.00000       0.00000    
      6126 MEOH     128      MEOH     LP1A     LPD     -0.230000       0.00000          -1   0.00000       0.00000    
      6127 MEOH     128      MEOH     LP1B     LPD     -0.230000       0.00000          -1   0.00000       0.00000    
      6128 MEOH     129      MEOH     C1       CD33B     2.31410       11.6110           0  -1.00000       1.30000    
      6129 MEOH     129      MEOH     DC1      DRUD     -2.45410      0.400000           0   0.00000       0.00000    
      6130 MEOH     129      MEOH     O1       OD31H     2.48830       15.5990           0  -1.02800       1.30000    
      6131 MEOH     129      MEOH     DO1      DRUD     -2.48830      0.400000           0   0.00000       0.00000    
      6132 MEOH     129      MEOH     HO1      HDP1A    0.360000       1.00800           0   0.00000       0.00000    
      6133 MEOH     129      MEOH     HO2      DUMH      0.00000       1.00800           0   0.00000       0.00000    
      6134 MEOH     129      MEOH     H1A      HDA3B    0.800000E-01   1.00800           0   0.00000       0.00000    
      6135 MEOH     129      MEOH     H1B      HDA3B    0.800000E-01   1.00800           0   0.00000       0.00000    
      6136 MEOH     129      MEOH     H1C      HDA3B    0.800000E-01   1.00800           0   0.00000       0.00000    
      6137 MEOH     129      MEOH     LP1A     LPD     -0.230000       0.00000          -1   0.00000       0.00000    
      6138 MEOH     129      MEOH     LP1B     LPD     -0.230000       0.00000          -1   0.00000       0.00000    
      6139 MEOH     130      MEOH     C1       CD33B     2.31410       11.6110           0  -1.00000       1.30000    
      6140 MEOH     130      MEOH     DC1      DRUD     -2.45410      0.400000           0   0.00000       0.00000    
      6141 MEOH     130      MEOH     O1       OD31H     2.48830       15.5990           0  -1.02800       1.30000    
      6142 MEOH     130      MEOH     DO1      DRUD     -2.48830      0.400000           0   0.00000       0.00000    
      6143 MEOH     130      MEOH     HO1      HDP1A    0.360000       1.00800           0   0.00000       0.00000    
      6144 MEOH     130      MEOH     HO2      DUMH      0.00000       1.00800           0   0.00000       0.00000    
      6145 MEOH     130      MEOH     H1A      HDA3B    0.800000E-01   1.00800           0   0.00000       0.00000    
      6146 MEOH     130      MEOH     H1B      HDA3B    0.800000E-01   1.00800           0   0.00000       0.00000    
      6147 MEOH     130      MEOH     H1C      HDA3B    0.800000E-01   1.00800           0   0.00000       0.00000    
      6148 MEOH     130      MEOH     LP1A     LPD     -0.230000       0.00000          -1   0.00000       0.00000    
      6149 MEOH     130      MEOH     LP1B     LPD     -0.230000       0.00000          -1   0.00000       0.00000    
      6150 MEOH     131      MEOH     C1       CD33B     2.31410       11.6110           0  -1.00000       1.30000    
      6151 MEOH     131      MEOH     DC1      DRUD     -2.45410      0.400000           0   0.00000       0.00000    
      6152 MEOH     131      MEOH     O1       OD31H     2.48830       15.5990           0  -1.02800       1.30000    
      6153 MEOH     131      MEOH     DO1      DRUD     -2.48830      0.400000           0   0.00000       0.00000    
      6154 MEOH     131      MEOH     HO1      HDP1A    0.360000       1.00800           0   0.00000       0.00000    
      6155 MEOH     131      MEOH     HO2      DUMH      0.00000       1.00800           0   0.00000       0.00000    
      6156 MEOH     131      MEOH     H1A      HDA3B    0.800000E-01   1.00800           0   0.00000       0.00000    
      6157 MEOH     131      MEOH     H1B      HDA3B    0.800000E-01   1.00800           0   0.00000       0.00000    
      6158 MEOH     131      MEOH     H1C      HDA3B    0.800000E-01   1.00800           0   0.00000       0.00000    
      6159 MEOH     131      MEOH     LP1A     LPD     -0.230000       0.00000          -1   0.00000       0.00000    
      6160 MEOH     131      MEOH     LP1B     LPD     -0.230000       0.00000          -1   0.00000       0.00000    
      6161 MEOH     132      MEOH     C1       CD33B     2.31410       11.6110           0  -1.00000       1.30000    
      6162 MEOH     132      MEOH     DC1      DRUD     -2.45410      0.400000           0   0.00000       0.00000    
      6163 MEOH     132      MEOH     O1       OD31H     2.48830       15.5990           0  -1.02800       1.30000    
      6164 MEOH     132      MEOH     DO1      DRUD     -2.48830      0.400000           0   0.00000       0.00000    
      6165 MEOH     132      MEOH     HO1      HDP1A    0.360000       1.00800           0   0.00000       0.00000    
      6166 MEOH     132      MEOH     HO2      DUMH      0.00000       1.00800           0   0.00000       0.00000    
      6167 MEOH     132      MEOH     H1A      HDA3B    0.800000E-01   1.00800           0   0.00000       0.00000    
      6168 MEOH     132      MEOH     H1B      HDA3B    0.800000E-01   1.00800           0   0.00000       0.00000    
      6169 MEOH     132      MEOH     H1C      HDA3B    0.800000E-01   1.00800           0   0.00000       0.00000    
      6170 MEOH     132      MEOH     LP1A     LPD     -0.230000       0.00000          -1   0.00000       0.00000    
      6171 MEOH     132      MEOH     LP1B     LPD     -0.230000       0.00000          -1   0.00000       0.00000    
      6172 MEOH     133      MEOH     C1       CD33B     2.31410       11.6110           0  -1.00000       1.30000    
      6173 MEOH     133      MEOH     DC1      DRUD     -2.45410      0.400000           0   0.00000       0.00000    
      6174 MEOH     133      MEOH     O1       OD31H     2.48830       15.5990           0  -1.02800       1.30000    
      6175 MEOH     133      MEOH     DO1      DRUD     -2.48830      0.400000           0   0.00000       0.00000    
      6176 MEOH     133      MEOH     HO1      HDP1A    0.360000       1.00800           0   0.00000       0.00000    
      6177 MEOH     133      MEOH     HO2      DUMH      0.00000       1.00800           0   0.00000       0.00000    
      6178 MEOH     133      MEOH     H1A      HDA3B    0.800000E-01   1.00800           0   0.00000       0.00000    
      6179 MEOH     133      MEOH     H1B      HDA3B    0.800000E-01   1.00800           0   0.00000       0.00000    
      6180 MEOH     133      MEOH     H1C      HDA3B    0.800000E-01   1.00800           0   0.00000       0.00000    
      6181 MEOH     133      MEOH     LP1A     LPD     -0.230000       0.00000          -1   0.00000       0.00000    
      6182 MEOH     133      MEOH     LP1B     LPD     -0.230000       0.00000          -1   0.00000       0.00000    
      6183 MEOH     134      MEOH     C1       CD33B     2.31410       11.6110           0  -1.00000       1.30000    
      6184 MEOH     134      MEOH     DC1      DRUD     -2.45410      0.400000           0   0.00000       0.00000    
      6185 MEOH     134      MEOH     O1       OD31H     2.48830       15.5990           0  -1.02800       1.30000    
      6186 MEOH     134      MEOH     DO1      DRUD     -2.48830      0.400000           0   0.00000       0.00000    
      6187 MEOH     134      MEOH     HO1      HDP1A    0.360000       1.00800           0   0.00000       0.00000    
      6188 MEOH     134      MEOH     HO2      DUMH      0.00000       1.00800           0   0.00000       0.00000    
      6189 MEOH     134      MEOH     H1A      HDA3B    0.800000E-01   1.00800           0   0.00000       0.00000    
      6190 MEOH     134      MEOH     H1B      HDA3B    0.800000E-01   1.00800           0   0.00000       0.00000    
      6191 MEOH     134      MEOH     H1C      HDA3B    0.800000E-01   1.00800           0   0.00000       0.00000    
      6192 MEOH     134      MEOH     LP1A     LPD     -0.230000       0.00000          -1   0.00000       0.00000    
      6193 MEOH     134      MEOH     LP1B     LPD     -0.230000       0.00000          -1   0.00000       0.00000    
      6194 MEOH     135      MEOH     C1       CD33B     2.31410       11.6110           0  -1.00000       1.30000    
      6195 MEOH     135      MEOH     DC1      DRUD     -2.45410      0.400000           0   0.00000       0.00000    
      6196 MEOH     135      MEOH     O1       OD31H     2.48830       15.5990           0  -1.02800       1.30000    
      6197 MEOH     135      MEOH     DO1      DRUD     -2.48830      0.400000           0   0.00000       0.00000    
      6198 MEOH     135      MEOH     HO1      HDP1A    0.360000       1.00800           0   0.00000       0.00000    
      6199 MEOH     135      MEOH     HO2      DUMH      0.00000       1.00800           0   0.00000       0.00000    
      6200 MEOH     135      MEOH     H1A      HDA3B    0.800000E-01   1.00800           0   0.00000       0.00000    
      6201 MEOH     135      MEOH     H1B      HDA3B    0.800000E-01   1.00800           0   0.00000       0.00000    
      6202 MEOH     135      MEOH     H1C      HDA3B    0.800000E-01   1.00800           0   0.00000       0.00000    
      6203 MEOH     135      MEOH     LP1A     LPD     -0.230000       0.00000          -1   0.00000       0.00000    
      6204 MEOH     135      MEOH     LP1B     LPD     -0.230000       0.00000          -1   0.00000       0.00000    
      6205 MEOH     136      MEOH     C1       CD33B     2.31410       11.6110           0  -1.00000       1.30000    
      6206 MEOH     136      MEOH     DC1      DRUD     -2.45410      0.400000           0   0.00000       0.00000    
      6207 MEOH     136      MEOH     O1       OD31H     2.48830       15.5990           0  -1.02800       1.30000    
      6208 MEOH     136      MEOH     DO1      DRUD     -2.48830      0.400000           0   0.00000       0.00000    
      6209 MEOH     136      MEOH     HO1      HDP1A    0.360000       1.00800           0   0.00000       0.00000    
      6210 MEOH     136      MEOH     HO2      DUMH      0.00000       1.00800           0   0.00000       0.00000    
      6211 MEOH     136      MEOH     H1A      HDA3B    0.800000E-01   1.00800           0   0.00000       0.00000    
      6212 MEOH     136      MEOH     H1B      HDA3B    0.800000E-01   1.00800           0   0.00000       0.00000    
      6213 MEOH     136      MEOH     H1C      HDA3B    0.800000E-01   1.00800           0   0.00000       0.00000    
      6214 MEOH     136      MEOH     LP1A     LPD     -0.230000       0.00000          -1   0.00000       0.00000    
      6215 MEOH     136      MEOH     LP1B     LPD     -0.230000       0.00000          -1   0.00000       0.00000    
      6216 MEOH     137      MEOH     C1       CD33B     2.31410       11.6110           0  -1.00000       1.30000    
      6217 MEOH     137      MEOH     DC1      DRUD     -2.45410      0.400000           0   0.00000       0.00000    
      6218 MEOH     137      MEOH     O1       OD31H     2.48830       15.5990           0  -1.02800       1.30000    
      6219 MEOH     137      MEOH     DO1      DRUD     -2.48830      0.400000           0   0.00000       0.00000    
      6220 MEOH     137      MEOH     HO1      HDP1A    0.360000       1.00800           0   0.00000       0.00000    
      6221 MEOH     137      MEOH     HO2      DUMH      0.00000       1.00800           0   0.00000       0.00000    
      6222 MEOH     137      MEOH     H1A      HDA3B    0.800000E-01   1.00800           0   0.00000       0.00000    
      6223 MEOH     137      MEOH     H1B      HDA3B    0.800000E-01   1.00800           0   0.00000       0.00000    
      6224 MEOH     137      MEOH     H1C      HDA3B    0.800000E-01   1.00800           0   0.00000       0.00000    
      6225 MEOH     137      MEOH     LP1A     LPD     -0.230000       0.00000          -1   0.00000       0.00000    
      6226 MEOH     137      MEOH     LP1B     LPD     -0.230000       0.00000          -1   0.00000       0.00000    
      6227 MEOH     138      MEOH     C1       CD33B     2.31410       11.6110           0  -1.00000       1.30000    
      6228 MEOH     138      MEOH     DC1      DRUD     -2.45410      0.400000           0   0.00000       0.00000    
      6229 MEOH     138      MEOH     O1       OD31H     2.48830       15.5990           0  -1.02800       1.30000    
      6230 MEOH     138      MEOH     DO1      DRUD     -2.48830      0.400000           0   0.00000       0.00000    
      6231 MEOH     138      MEOH     HO1      HDP1A    0.360000       1.00800           0   0.00000       0.00000    
      6232 MEOH     138      MEOH     HO2      DUMH      0.00000       1.00800           0   0.00000       0.00000    
      6233 MEOH     138      MEOH     H1A      HDA3B    0.800000E-01   1.00800           0   0.00000       0.00000    
      6234 MEOH     138      MEOH     H1B      HDA3B    0.800000E-01   1.00800           0   0.00000       0.00000    
      6235 MEOH     138      MEOH     H1C      HDA3B    0.800000E-01   1.00800           0   0.00000       0.00000    
      6236 MEOH     138      MEOH     LP1A     LPD     -0.230000       0.00000          -1   0.00000       0.00000    
      6237 MEOH     138      MEOH     LP1B     LPD     -0.230000       0.00000          -1   0.00000       0.00000    
      6238 MEOH     139      MEOH     C1       CD33B     2.31410       11.6110           0  -1.00000       1.30000    
      6239 MEOH     139      MEOH     DC1      DRUD     -2.45410      0.400000           0   0.00000       0.00000    
      6240 MEOH     139      MEOH     O1       OD31H     2.48830       15.5990           0  -1.02800       1.30000    
      6241 MEOH     139      MEOH     DO1      DRUD     -2.48830      0.400000           0   0.00000       0.00000    
      6242 MEOH     139      MEOH     HO1      HDP1A    0.360000       1.00800           0   0.00000       0.00000    
      6243 MEOH     139      MEOH     HO2      DUMH      0.00000       1.00800           0   0.00000       0.00000    
      6244 MEOH     139      MEOH     H1A      HDA3B    0.800000E-01   1.00800           0   0.00000       0.00000    
      6245 MEOH     139      MEOH     H1B      HDA3B    0.800000E-01   1.00800           0   0.00000       0.00000    
      6246 MEOH     139      MEOH     H1C      HDA3B    0.800000E-01   1.00800           0   0.00000       0.00000    
      6247 MEOH     139      MEOH     LP1A     LPD     -0.230000       0.00000          -1   0.00000       0.00000    
      6248 MEOH     139      MEOH     LP1B     LPD     -0.230000       0.00000          -1   0.00000       0.00000    
      6249 MEOH     140      MEOH     C1       CD33B     2.31410       11.6110           0  -1.00000       1.30000    
      6250 MEOH     140      MEOH     DC1      DRUD     -2.45410      0.400000           0   0.00000       0.00000    
      6251 MEOH     140      MEOH     O1       OD31H     2.48830       15.5990           0  -1.02800       1.30000    
      6252 MEOH     140      MEOH     DO1      DRUD     -2.48830      0.400000           0   0.00000       0.00000    
      6253 MEOH     140      MEOH     HO1      HDP1A    0.360000       1.00800           0   0.00000       0.00000    
      6254 MEOH     140      MEOH     HO2      DUMH      0.00000       1.00800           0   0.00000       0.00000    
      6255 MEOH     140      MEOH     H1A      HDA3B    0.800000E-01   1.00800           0   0.00000       0.00000    
      6256 MEOH     140      MEOH     H1B      HDA3B    0.800000E-01   1.00800           0   0.00000       0.00000    
      6257 MEOH     140      MEOH     H1C      HDA3B    0.800000E-01   1.00800           0   0.00000       0.00000    
      6258 MEOH     140      MEOH     LP1A     LPD     -0.230000       0.00000          -1   0.00000       0.00000    
      6259 MEOH     140      MEOH     LP1B     LPD     -0.230000       0.00000          -1   0.00000       0.00000    
      6260 MEOH     141      MEOH     C1       CD33B     2.31410       11.6110           0  -1.00000       1.30000    
      6261 MEOH     141      MEOH     DC1      DRUD     -2.45410      0.400000           0   0.00000       0.00000    
      6262 MEOH     141      MEOH     O1       OD31H     2.48830       15.5990           0  -1.02800       1.30000    
      6263 MEOH     141      MEOH     DO1      DRUD     -2.48830      0.400000           0   0.00000       0.00000    
      6264 MEOH     141      MEOH     HO1      HDP1A    0.360000       1.00800           0   0.00000       0.00000    
      6265 MEOH     141      MEOH     HO2      DUMH      0.00000       1.00800           0   0.00000       0.00000    
      6266 MEOH     141      MEOH     H1A      HDA3B    0.800000E-01   1.00800           0   0.00000       0.00000    
      6267 MEOH     141      MEOH     H1B      HDA3B    0.800000E-01   1.00800           0   0.00000       0.00000    
      6268 MEOH     141      MEOH     H1C      HDA3B    0.800000E-01   1.00800           0   0.00000       0.00000    
      6269 MEOH     141      MEOH     LP1A     LPD     -0.230000       0.00000          -1   0.00000       0.00000    
      6270 MEOH     141      MEOH     LP1B     LPD     -0.230000       0.00000          -1   0.00000       0.00000    
      6271 MEOH     142      MEOH     C1       CD33B     2.31410       11.6110           0  -1.00000       1.30000    
      6272 MEOH     142      MEOH     DC1      DRUD     -2.45410      0.400000           0   0.00000       0.00000    
      6273 MEOH     142      MEOH     O1       OD31H     2.48830       15.5990           0  -1.02800       1.30000    
      6274 MEOH     142      MEOH     DO1      DRUD     -2.48830      0.400000           0   0.00000       0.00000    
      6275 MEOH     142      MEOH     HO1      HDP1A    0.360000       1.00800           0   0.00000       0.00000    
      6276 MEOH     142      MEOH     HO2      DUMH      0.00000       1.00800           0   0.00000       0.00000    
      6277 MEOH     142      MEOH     H1A      HDA3B    0.800000E-01   1.00800           0   0.00000       0.00000    
      6278 MEOH     142      MEOH     H1B      HDA3B    0.800000E-01   1.00800           0   0.00000       0.00000    
      6279 MEOH     142      MEOH     H1C      HDA3B    0.800000E-01   1.00800           0   0.00000       0.00000    
      6280 MEOH     142      MEOH     LP1A     LPD     -0.230000       0.00000          -1   0.00000       0.00000    
      6281 MEOH     142      MEOH     LP1B     LPD     -0.230000       0.00000          -1   0.00000       0.00000    
      6282 MEOH     143      MEOH     C1       CD33B     2.31410       11.6110           0  -1.00000       1.30000    
      6283 MEOH     143      MEOH     DC1      DRUD     -2.45410      0.400000           0   0.00000       0.00000    
      6284 MEOH     143      MEOH     O1       OD31H     2.48830       15.5990           0  -1.02800       1.30000    
      6285 MEOH     143      MEOH     DO1      DRUD     -2.48830      0.400000           0   0.00000       0.00000    
      6286 MEOH     143      MEOH     HO1      HDP1A    0.360000       1.00800           0   0.00000       0.00000    
      6287 MEOH     143      MEOH     HO2      DUMH      0.00000       1.00800           0   0.00000       0.00000    
      6288 MEOH     143      MEOH     H1A      HDA3B    0.800000E-01   1.00800           0   0.00000       0.00000    
      6289 MEOH     143      MEOH     H1B      HDA3B    0.800000E-01   1.00800           0   0.00000       0.00000    
      6290 MEOH     143      MEOH     H1C      HDA3B    0.800000E-01   1.00800           0   0.00000       0.00000    
      6291 MEOH     143      MEOH     LP1A     LPD     -0.230000       0.00000          -1   0.00000       0.00000    
      6292 MEOH     143      MEOH     LP1B     LPD     -0.230000       0.00000          -1   0.00000       0.00000    
      6293 MEOH     144      MEOH     C1       CD33B     2.31410       11.6110           0  -1.00000       1.30000    
      6294 MEOH     144      MEOH     DC1      DRUD     -2.45410      0.400000           0   0.00000       0.00000    
      6295 MEOH     144      MEOH     O1       OD31H     2.48830       15.5990           0  -1.02800       1.30000    
      6296 MEOH     144      MEOH     DO1      DRUD     -2.48830      0.400000           0   0.00000       0.00000    
      6297 MEOH     144      MEOH     HO1      HDP1A    0.360000       1.00800           0   0.00000       0.00000    
      6298 MEOH     144      MEOH     HO2      DUMH      0.00000       1.00800           0   0.00000       0.00000    
      6299 MEOH     144      MEOH     H1A      HDA3B    0.800000E-01   1.00800           0   0.00000       0.00000    
      6300 MEOH     144      MEOH     H1B      HDA3B    0.800000E-01   1.00800           0   0.00000       0.00000    
      6301 MEOH     144      MEOH     H1C      HDA3B    0.800000E-01   1.00800           0   0.00000       0.00000    
      6302 MEOH     144      MEOH     LP1A     LPD     -0.230000       0.00000          -1   0.00000       0.00000    
      6303 MEOH     144      MEOH     LP1B     LPD     -0.230000       0.00000          -1   0.00000       0.00000    
      6304 MEOH     145      MEOH     C1       CD33B     2.31410       11.6110           0  -1.00000       1.30000    
      6305 MEOH     145      MEOH     DC1      DRUD     -2.45410      0.400000           0   0.00000       0.00000    
      6306 MEOH     145      MEOH     O1       OD31H     2.48830       15.5990           0  -1.02800       1.30000    
      6307 MEOH     145      MEOH     DO1      DRUD     -2.48830      0.400000           0   0.00000       0.00000    
      6308 MEOH     145      MEOH     HO1      HDP1A    0.360000       1.00800           0   0.00000       0.00000    
      6309 MEOH     145      MEOH     HO2      DUMH      0.00000       1.00800           0   0.00000       0.00000    
      6310 MEOH     145      MEOH     H1A      HDA3B    0.800000E-01   1.00800           0   0.00000       0.00000    
      6311 MEOH     145      MEOH     H1B      HDA3B    0.800000E-01   1.00800           0   0.00000       0.00000    
      6312 MEOH     145      MEOH     H1C      HDA3B    0.800000E-01   1.00800           0   0.00000       0.00000    
      6313 MEOH     145      MEOH     LP1A     LPD     -0.230000       0.00000          -1   0.00000       0.00000    
      6314 MEOH     145      MEOH     LP1B     LPD     -0.230000       0.00000          -1   0.00000       0.00000    
      6315 MEOH     146      MEOH     C1       CD33B     2.31410       11.6110           0  -1.00000       1.30000    
      6316 MEOH     146      MEOH     DC1      DRUD     -2.45410      0.400000           0   0.00000       0.00000    
      6317 MEOH     146      MEOH     O1       OD31H     2.48830       15.5990           0  -1.02800       1.30000    
      6318 MEOH     146      MEOH     DO1      DRUD     -2.48830      0.400000           0   0.00000       0.00000    
      6319 MEOH     146      MEOH     HO1      HDP1A    0.360000       1.00800           0   0.00000       0.00000    
      6320 MEOH     146      MEOH     HO2      DUMH      0.00000       1.00800           0   0.00000       0.00000    
      6321 MEOH     146      MEOH     H1A      HDA3B    0.800000E-01   1.00800           0   0.00000       0.00000    
      6322 MEOH     146      MEOH     H1B      HDA3B    0.800000E-01   1.00800           0   0.00000       0.00000    
      6323 MEOH     146      MEOH     H1C      HDA3B    0.800000E-01   1.00800           0   0.00000       0.00000    
      6324 MEOH     146      MEOH     LP1A     LPD     -0.230000       0.00000          -1   0.00000       0.00000    
      6325 MEOH     146      MEOH     LP1B     LPD     -0.230000       0.00000          -1   0.00000       0.00000    
      6326 MEOH     147      MEOH     C1       CD33B     2.31410       11.6110           0  -1.00000       1.30000    
      6327 MEOH     147      MEOH     DC1      DRUD     -2.45410      0.400000           0   0.00000       0.00000    
      6328 MEOH     147      MEOH     O1       OD31H     2.48830       15.5990           0  -1.02800       1.30000    
      6329 MEOH     147      MEOH     DO1      DRUD     -2.48830      0.400000           0   0.00000       0.00000    
      6330 MEOH     147      MEOH     HO1      HDP1A    0.360000       1.00800           0   0.00000       0.00000    
      6331 MEOH     147      MEOH     HO2      DUMH      0.00000       1.00800           0   0.00000       0.00000    
      6332 MEOH     147      MEOH     H1A      HDA3B    0.800000E-01   1.00800           0   0.00000       0.00000    
      6333 MEOH     147      MEOH     H1B      HDA3B    0.800000E-01   1.00800           0   0.00000       0.00000    
      6334 MEOH     147      MEOH     H1C      HDA3B    0.800000E-01   1.00800           0   0.00000       0.00000    
      6335 MEOH     147      MEOH     LP1A     LPD     -0.230000       0.00000          -1   0.00000       0.00000    
      6336 MEOH     147      MEOH     LP1B     LPD     -0.230000       0.00000          -1   0.00000       0.00000    
      6337 MEOH     148      MEOH     C1       CD33B     2.31410       11.6110           0  -1.00000       1.30000    
      6338 MEOH     148      MEOH     DC1      DRUD     -2.45410      0.400000           0   0.00000       0.00000    
      6339 MEOH     148      MEOH     O1       OD31H     2.48830       15.5990           0  -1.02800       1.30000    
      6340 MEOH     148      MEOH     DO1      DRUD     -2.48830      0.400000           0   0.00000       0.00000    
      6341 MEOH     148      MEOH     HO1      HDP1A    0.360000       1.00800           0   0.00000       0.00000    
      6342 MEOH     148      MEOH     HO2      DUMH      0.00000       1.00800           0   0.00000       0.00000    
      6343 MEOH     148      MEOH     H1A      HDA3B    0.800000E-01   1.00800           0   0.00000       0.00000    
      6344 MEOH     148      MEOH     H1B      HDA3B    0.800000E-01   1.00800           0   0.00000       0.00000    
      6345 MEOH     148      MEOH     H1C      HDA3B    0.800000E-01   1.00800           0   0.00000       0.00000    
      6346 MEOH     148      MEOH     LP1A     LPD     -0.230000       0.00000          -1   0.00000       0.00000    
      6347 MEOH     148      MEOH     LP1B     LPD     -0.230000       0.00000          -1   0.00000       0.00000    
      6348 MEOH     149      MEOH     C1       CD33B     2.31410       11.6110           0  -1.00000       1.30000    
      6349 MEOH     149      MEOH     DC1      DRUD     -2.45410      0.400000           0   0.00000       0.00000    
      6350 MEOH     149      MEOH     O1       OD31H     2.48830       15.5990           0  -1.02800       1.30000    
      6351 MEOH     149      MEOH     DO1      DRUD     -2.48830      0.400000           0   0.00000       0.00000    
      6352 MEOH     149      MEOH     HO1      HDP1A    0.360000       1.00800           0   0.00000       0.00000    
      6353 MEOH     149      MEOH     HO2      DUMH      0.00000       1.00800           0   0.00000       0.00000    
      6354 MEOH     149      MEOH     H1A      HDA3B    0.800000E-01   1.00800           0   0.00000       0.00000    
      6355 MEOH     149      MEOH     H1B      HDA3B    0.800000E-01   1.00800           0   0.00000       0.00000    
      6356 MEOH     149      MEOH     H1C      HDA3B    0.800000E-01   1.00800           0   0.00000       0.00000    
      6357 MEOH     149      MEOH     LP1A     LPD     -0.230000       0.00000          -1   0.00000       0.00000    
      6358 MEOH     149      MEOH     LP1B     LPD     -0.230000       0.00000          -1   0.00000       0.00000    
      6359 MEOH     150      MEOH     C1       CD33B     2.31410       11.6110           0  -1.00000       1.30000    
      6360 MEOH     150      MEOH     DC1      DRUD     -2.45410      0.400000           0   0.00000       0.00000    
      6361 MEOH     150      MEOH     O1       OD31H     2.48830       15.5990           0  -1.02800       1.30000    
      6362 MEOH     150      MEOH     DO1      DRUD     -2.48830      0.400000           0   0.00000       0.00000    
      6363 MEOH     150      MEOH     HO1      HDP1A    0.360000       1.00800           0   0.00000       0.00000    
      6364 MEOH     150      MEOH     HO2      DUMH      0.00000       1.00800           0   0.00000       0.00000    
      6365 MEOH     150      MEOH     H1A      HDA3B    0.800000E-01   1.00800           0   0.00000       0.00000    
      6366 MEOH     150      MEOH     H1B      HDA3B    0.800000E-01   1.00800           0   0.00000       0.00000    
      6367 MEOH     150      MEOH     H1C      HDA3B    0.800000E-01   1.00800           0   0.00000       0.00000    
      6368 MEOH     150      MEOH     LP1A     LPD     -0.230000       0.00000          -1   0.00000       0.00000    
      6369 MEOH     150      MEOH     LP1B     LPD     -0.230000       0.00000          -1   0.00000       0.00000    
      6370 MEOH     151      MEOH     C1       CD33B     2.31410       11.6110           0  -1.00000       1.30000    
      6371 MEOH     151      MEOH     DC1      DRUD     -2.45410      0.400000           0   0.00000       0.00000    
      6372 MEOH     151      MEOH     O1       OD31H     2.48830       15.5990           0  -1.02800       1.30000    
      6373 MEOH     151      MEOH     DO1      DRUD     -2.48830      0.400000           0   0.00000       0.00000    
      6374 MEOH     151      MEOH     HO1      HDP1A    0.360000       1.00800           0   0.00000       0.00000    
      6375 MEOH     151      MEOH     HO2      DUMH      0.00000       1.00800           0   0.00000       0.00000    
      6376 MEOH     151      MEOH     H1A      HDA3B    0.800000E-01   1.00800           0   0.00000       0.00000    
      6377 MEOH     151      MEOH     H1B      HDA3B    0.800000E-01   1.00800           0   0.00000       0.00000    
      6378 MEOH     151      MEOH     H1C      HDA3B    0.800000E-01   1.00800           0   0.00000       0.00000    
      6379 MEOH     151      MEOH     LP1A     LPD     -0.230000       0.00000          -1   0.00000       0.00000    
      6380 MEOH     151      MEOH     LP1B     LPD     -0.230000       0.00000          -1   0.00000       0.00000    
      6381 MEOH     152      MEOH     C1       CD33B     2.31410       11.6110           0  -1.00000       1.30000    
      6382 MEOH     152      MEOH     DC1      DRUD     -2.45410      0.400000           0   0.00000       0.00000    
      6383 MEOH     152      MEOH     O1       OD31H     2.48830       15.5990           0  -1.02800       1.30000    
      6384 MEOH     152      MEOH     DO1      DRUD     -2.48830      0.400000           0   0.00000       0.00000    
      6385 MEOH     152      MEOH     HO1      HDP1A    0.360000       1.00800           0   0.00000       0.00000    
      6386 MEOH     152      MEOH     HO2      DUMH      0.00000       1.00800           0   0.00000       0.00000    
      6387 MEOH     152      MEOH     H1A      HDA3B    0.800000E-01   1.00800           0   0.00000       0.00000    
      6388 MEOH     152      MEOH     H1B      HDA3B    0.800000E-01   1.00800           0   0.00000       0.00000    
      6389 MEOH     152      MEOH     H1C      HDA3B    0.800000E-01   1.00800           0   0.00000       0.00000    
      6390 MEOH     152      MEOH     LP1A     LPD     -0.230000       0.00000          -1   0.00000       0.00000    
      6391 MEOH     152      MEOH     LP1B     LPD     -0.230000       0.00000          -1   0.00000       0.00000    
      6392 MEOH     153      MEOH     C1       CD33B     2.31410       11.6110           0  -1.00000       1.30000    
      6393 MEOH     153      MEOH     DC1      DRUD     -2.45410      0.400000           0   0.00000       0.00000    
      6394 MEOH     153      MEOH     O1       OD31H     2.48830       15.5990           0  -1.02800       1.30000    
      6395 MEOH     153      MEOH     DO1      DRUD     -2.48830      0.400000           0   0.00000       0.00000    
      6396 MEOH     153      MEOH     HO1      HDP1A    0.360000       1.00800           0   0.00000       0.00000    
      6397 MEOH     153      MEOH     HO2      DUMH      0.00000       1.00800           0   0.00000       0.00000    
      6398 MEOH     153      MEOH     H1A      HDA3B    0.800000E-01   1.00800           0   0.00000       0.00000    
      6399 MEOH     153      MEOH     H1B      HDA3B    0.800000E-01   1.00800           0   0.00000       0.00000    
      6400 MEOH     153      MEOH     H1C      HDA3B    0.800000E-01   1.00800           0   0.00000       0.00000    
      6401 MEOH     153      MEOH     LP1A     LPD     -0.230000       0.00000          -1   0.00000       0.00000    
      6402 MEOH     153      MEOH     LP1B     LPD     -0.230000       0.00000          -1   0.00000       0.00000    
      6403 MEOH     154      MEOH     C1       CD33B     2.31410       11.6110           0  -1.00000       1.30000    
      6404 MEOH     154      MEOH     DC1      DRUD     -2.45410      0.400000           0   0.00000       0.00000    
      6405 MEOH     154      MEOH     O1       OD31H     2.48830       15.5990           0  -1.02800       1.30000    
      6406 MEOH     154      MEOH     DO1      DRUD     -2.48830      0.400000           0   0.00000       0.00000    
      6407 MEOH     154      MEOH     HO1      HDP1A    0.360000       1.00800           0   0.00000       0.00000    
      6408 MEOH     154      MEOH     HO2      DUMH      0.00000       1.00800           0   0.00000       0.00000    
      6409 MEOH     154      MEOH     H1A      HDA3B    0.800000E-01   1.00800           0   0.00000       0.00000    
      6410 MEOH     154      MEOH     H1B      HDA3B    0.800000E-01   1.00800           0   0.00000       0.00000    
      6411 MEOH     154      MEOH     H1C      HDA3B    0.800000E-01   1.00800           0   0.00000       0.00000    
      6412 MEOH     154      MEOH     LP1A     LPD     -0.230000       0.00000          -1   0.00000       0.00000    
      6413 MEOH     154      MEOH     LP1B     LPD     -0.230000       0.00000          -1   0.00000       0.00000    
      6414 MEOH     155      MEOH     C1       CD33B     2.31410       11.6110           0  -1.00000       1.30000    
      6415 MEOH     155      MEOH     DC1      DRUD     -2.45410      0.400000           0   0.00000       0.00000    
      6416 MEOH     155      MEOH     O1       OD31H     2.48830       15.5990           0  -1.02800       1.30000    
      6417 MEOH     155      MEOH     DO1      DRUD     -2.48830      0.400000           0   0.00000       0.00000    
      6418 MEOH     155      MEOH     HO1      HDP1A    0.360000       1.00800           0   0.00000       0.00000    
      6419 MEOH     155      MEOH     HO2      DUMH      0.00000       1.00800           0   0.00000       0.00000    
      6420 MEOH     155      MEOH     H1A      HDA3B    0.800000E-01   1.00800           0   0.00000       0.00000    
      6421 MEOH     155      MEOH     H1B      HDA3B    0.800000E-01   1.00800           0   0.00000       0.00000    
      6422 MEOH     155      MEOH     H1C      HDA3B    0.800000E-01   1.00800           0   0.00000       0.00000    
      6423 MEOH     155      MEOH     LP1A     LPD     -0.230000       0.00000          -1   0.00000       0.00000    
      6424 MEOH     155      MEOH     LP1B     LPD     -0.230000       0.00000          -1   0.00000       0.00000    
      6425 MEOH     156      MEOH     C1       CD33B     2.31410       11.6110           0  -1.00000       1.30000    
      6426 MEOH     156      MEOH     DC1      DRUD     -2.45410      0.400000           0   0.00000       0.00000    
      6427 MEOH     156      MEOH     O1       OD31H     2.48830       15.5990           0  -1.02800       1.30000    
      6428 MEOH     156      MEOH     DO1      DRUD     -2.48830      0.400000           0   0.00000       0.00000    
      6429 MEOH     156      MEOH     HO1      HDP1A    0.360000       1.00800           0   0.00000       0.00000    
      6430 MEOH     156      MEOH     HO2      DUMH      0.00000       1.00800           0   0.00000       0.00000    
      6431 MEOH     156      MEOH     H1A      HDA3B    0.800000E-01   1.00800           0   0.00000       0.00000    
      6432 MEOH     156      MEOH     H1B      HDA3B    0.800000E-01   1.00800           0   0.00000       0.00000    
      6433 MEOH     156      MEOH     H1C      HDA3B    0.800000E-01   1.00800           0   0.00000       0.00000    
      6434 MEOH     156      MEOH     LP1A     LPD     -0.230000       0.00000          -1   0.00000       0.00000    
      6435 MEOH     156      MEOH     LP1B     LPD     -0.230000       0.00000          -1   0.00000       0.00000    
      6436 MEOH     157      MEOH     C1       CD33B     2.31410       11.6110           0  -1.00000       1.30000    
      6437 MEOH     157      MEOH     DC1      DRUD     -2.45410      0.400000           0   0.00000       0.00000    
      6438 MEOH     157      MEOH     O1       OD31H     2.48830       15.5990           0  -1.02800       1.30000    
      6439 MEOH     157      MEOH     DO1      DRUD     -2.48830      0.400000           0   0.00000       0.00000    
      6440 MEOH     157      MEOH     HO1      HDP1A    0.360000       1.00800           0   0.00000       0.00000    
      6441 MEOH     157      MEOH     HO2      DUMH      0.00000       1.00800           0   0.00000       0.00000    
      6442 MEOH     157      MEOH     H1A      HDA3B    0.800000E-01   1.00800           0   0.00000       0.00000    
      6443 MEOH     157      MEOH     H1B      HDA3B    0.800000E-01   1.00800           0   0.00000       0.00000    
      6444 MEOH     157      MEOH     H1C      HDA3B    0.800000E-01   1.00800           0   0.00000       0.00000    
      6445 MEOH     157      MEOH     LP1A     LPD     -0.230000       0.00000          -1   0.00000       0.00000    
      6446 MEOH     157      MEOH     LP1B     LPD     -0.230000       0.00000          -1   0.00000       0.00000    
      6447 MEOH     158      MEOH     C1       CD33B     2.31410       11.6110           0  -1.00000       1.30000    
      6448 MEOH     158      MEOH     DC1      DRUD     -2.45410      0.400000           0   0.00000       0.00000    
      6449 MEOH     158      MEOH     O1       OD31H     2.48830       15.5990           0  -1.02800       1.30000    
      6450 MEOH     158      MEOH     DO1      DRUD     -2.48830      0.400000           0   0.00000       0.00000    
      6451 MEOH     158      MEOH     HO1      HDP1A    0.360000       1.00800           0   0.00000       0.00000    
      6452 MEOH     158      MEOH     HO2      DUMH      0.00000       1.00800           0   0.00000       0.00000    
      6453 MEOH     158      MEOH     H1A      HDA3B    0.800000E-01   1.00800           0   0.00000       0.00000    
      6454 MEOH     158      MEOH     H1B      HDA3B    0.800000E-01   1.00800           0   0.00000       0.00000    
      6455 MEOH     158      MEOH     H1C      HDA3B    0.800000E-01   1.00800           0   0.00000       0.00000    
      6456 MEOH     158      MEOH     LP1A     LPD     -0.230000       0.00000          -1   0.00000       0.00000    
      6457 MEOH     158      MEOH     LP1B     LPD     -0.230000       0.00000          -1   0.00000       0.00000    
      6458 MEOH     159      MEOH     C1       CD33B     2.31410       11.6110           0  -1.00000       1.30000    
      6459 MEOH     159      MEOH     DC1      DRUD     -2.45410      0.400000           0   0.00000       0.00000    
      6460 MEOH     159      MEOH     O1       OD31H     2.48830       15.5990           0  -1.02800       1.30000    
      6461 MEOH     159      MEOH     DO1      DRUD     -2.48830      0.400000           0   0.00000       0.00000    
      6462 MEOH     159      MEOH     HO1      HDP1A    0.360000       1.00800           0   0.00000       0.00000    
      6463 MEOH     159      MEOH     HO2      DUMH      0.00000       1.00800           0   0.00000       0.00000    
      6464 MEOH     159      MEOH     H1A      HDA3B    0.800000E-01   1.00800           0   0.00000       0.00000    
      6465 MEOH     159      MEOH     H1B      HDA3B    0.800000E-01   1.00800           0   0.00000       0.00000    
      6466 MEOH     159      MEOH     H1C      HDA3B    0.800000E-01   1.00800           0   0.00000       0.00000    
      6467 MEOH     159      MEOH     LP1A     LPD     -0.230000       0.00000          -1   0.00000       0.00000    
      6468 MEOH     159      MEOH     LP1B     LPD     -0.230000       0.00000          -1   0.00000       0.00000    
      6469 MEOH     160      MEOH     C1       CD33B     2.31410       11.6110           0  -1.00000       1.30000    
      6470 MEOH     160      MEOH     DC1      DRUD     -2.45410      0.400000           0   0.00000       0.00000    
      6471 MEOH     160      MEOH     O1       OD31H     2.48830       15.5990           0  -1.02800       1.30000    
      6472 MEOH     160      MEOH     DO1      DRUD     -2.48830      0.400000           0   0.00000       0.00000    
      6473 MEOH     160      MEOH     HO1      HDP1A    0.360000       1.00800           0   0.00000       0.00000    
      6474 MEOH     160      MEOH     HO2      DUMH      0.00000       1.00800           0   0.00000       0.00000    
      6475 MEOH     160      MEOH     H1A      HDA3B    0.800000E-01   1.00800           0   0.00000       0.00000    
      6476 MEOH     160      MEOH     H1B      HDA3B    0.800000E-01   1.00800           0   0.00000       0.00000    
      6477 MEOH     160      MEOH     H1C      HDA3B    0.800000E-01   1.00800           0   0.00000       0.00000    
      6478 MEOH     160      MEOH     LP1A     LPD     -0.230000       0.00000          -1   0.00000       0.00000    
      6479 MEOH     160      MEOH     LP1B     LPD     -0.230000       0.00000          -1   0.00000       0.00000    
      6480 MEOH     161      MEOH     C1       CD33B     2.31410       11.6110           0  -1.00000       1.30000    
      6481 MEOH     161      MEOH     DC1      DRUD     -2.45410      0.400000           0   0.00000       0.00000    
      6482 MEOH     161      MEOH     O1       OD31H     2.48830       15.5990           0  -1.02800       1.30000    
      6483 MEOH     161      MEOH     DO1      DRUD     -2.48830      0.400000           0   0.00000       0.00000    
      6484 MEOH     161      MEOH     HO1      HDP1A    0.360000       1.00800           0   0.00000       0.00000    
      6485 MEOH     161      MEOH     HO2      DUMH      0.00000       1.00800           0   0.00000       0.00000    
      6486 MEOH     161      MEOH     H1A      HDA3B    0.800000E-01   1.00800           0   0.00000       0.00000    
      6487 MEOH     161      MEOH     H1B      HDA3B    0.800000E-01   1.00800           0   0.00000       0.00000    
      6488 MEOH     161      MEOH     H1C      HDA3B    0.800000E-01   1.00800           0   0.00000       0.00000    
      6489 MEOH     161      MEOH     LP1A     LPD     -0.230000       0.00000          -1   0.00000       0.00000    
      6490 MEOH     161      MEOH     LP1B     LPD     -0.230000       0.00000          -1   0.00000       0.00000    
      6491 MEOH     162      MEOH     C1       CD33B     2.31410       11.6110           0  -1.00000       1.30000    
      6492 MEOH     162      MEOH     DC1      DRUD     -2.45410      0.400000           0   0.00000       0.00000    
      6493 MEOH     162      MEOH     O1       OD31H     2.48830       15.5990           0  -1.02800       1.30000    
      6494 MEOH     162      MEOH     DO1      DRUD     -2.48830      0.400000           0   0.00000       0.00000    
      6495 MEOH     162      MEOH     HO1      HDP1A    0.360000       1.00800           0   0.00000       0.00000    
      6496 MEOH     162      MEOH     HO2      DUMH      0.00000       1.00800           0   0.00000       0.00000    
      6497 MEOH     162      MEOH     H1A      HDA3B    0.800000E-01   1.00800           0   0.00000       0.00000    
      6498 MEOH     162      MEOH     H1B      HDA3B    0.800000E-01   1.00800           0   0.00000       0.00000    
      6499 MEOH     162      MEOH     H1C      HDA3B    0.800000E-01   1.00800           0   0.00000       0.00000    
      6500 MEOH     162      MEOH     LP1A     LPD     -0.230000       0.00000          -1   0.00000       0.00000    
      6501 MEOH     162      MEOH     LP1B     LPD     -0.230000       0.00000          -1   0.00000       0.00000    
      6502 MEOH     163      MEOH     C1       CD33B     2.31410       11.6110           0  -1.00000       1.30000    
      6503 MEOH     163      MEOH     DC1      DRUD     -2.45410      0.400000           0   0.00000       0.00000    
      6504 MEOH     163      MEOH     O1       OD31H     2.48830       15.5990           0  -1.02800       1.30000    
      6505 MEOH     163      MEOH     DO1      DRUD     -2.48830      0.400000           0   0.00000       0.00000    
      6506 MEOH     163      MEOH     HO1      HDP1A    0.360000       1.00800           0   0.00000       0.00000    
      6507 MEOH     163      MEOH     HO2      DUMH      0.00000       1.00800           0   0.00000       0.00000    
      6508 MEOH     163      MEOH     H1A      HDA3B    0.800000E-01   1.00800           0   0.00000       0.00000    
      6509 MEOH     163      MEOH     H1B      HDA3B    0.800000E-01   1.00800           0   0.00000       0.00000    
      6510 MEOH     163      MEOH     H1C      HDA3B    0.800000E-01   1.00800           0   0.00000       0.00000    
      6511 MEOH     163      MEOH     LP1A     LPD     -0.230000       0.00000          -1   0.00000       0.00000    
      6512 MEOH     163      MEOH     LP1B     LPD     -0.230000       0.00000          -1   0.00000       0.00000    
      6513 MEOH     164      MEOH     C1       CD33B     2.31410       11.6110           0  -1.00000       1.30000    
      6514 MEOH     164      MEOH     DC1      DRUD     -2.45410      0.400000           0   0.00000       0.00000    
      6515 MEOH     164      MEOH     O1       OD31H     2.48830       15.5990           0  -1.02800       1.30000    
      6516 MEOH     164      MEOH     DO1      DRUD     -2.48830      0.400000           0   0.00000       0.00000    
      6517 MEOH     164      MEOH     HO1      HDP1A    0.360000       1.00800           0   0.00000       0.00000    
      6518 MEOH     164      MEOH     HO2      DUMH      0.00000       1.00800           0   0.00000       0.00000    
      6519 MEOH     164      MEOH     H1A      HDA3B    0.800000E-01   1.00800           0   0.00000       0.00000    
      6520 MEOH     164      MEOH     H1B      HDA3B    0.800000E-01   1.00800           0   0.00000       0.00000    
      6521 MEOH     164      MEOH     H1C      HDA3B    0.800000E-01   1.00800           0   0.00000       0.00000    
      6522 MEOH     164      MEOH     LP1A     LPD     -0.230000       0.00000          -1   0.00000       0.00000    
      6523 MEOH     164      MEOH     LP1B     LPD     -0.230000       0.00000          -1   0.00000       0.00000    
      6524 MEOH     165      MEOH     C1       CD33B     2.31410       11.6110           0  -1.00000       1.30000    
      6525 MEOH     165      MEOH     DC1      DRUD     -2.45410      0.400000           0   0.00000       0.00000    
      6526 MEOH     165      MEOH     O1       OD31H     2.48830       15.5990           0  -1.02800       1.30000    
      6527 MEOH     165      MEOH     DO1      DRUD     -2.48830      0.400000           0   0.00000       0.00000    
      6528 MEOH     165      MEOH     HO1      HDP1A    0.360000       1.00800           0   0.00000       0.00000    
      6529 MEOH     165      MEOH     HO2      DUMH      0.00000       1.00800           0   0.00000       0.00000    
      6530 MEOH     165      MEOH     H1A      HDA3B    0.800000E-01   1.00800           0   0.00000       0.00000    
      6531 MEOH     165      MEOH     H1B      HDA3B    0.800000E-01   1.00800           0   0.00000       0.00000    
      6532 MEOH     165      MEOH     H1C      HDA3B    0.800000E-01   1.00800           0   0.00000       0.00000    
      6533 MEOH     165      MEOH     LP1A     LPD     -0.230000       0.00000          -1   0.00000       0.00000    
      6534 MEOH     165      MEOH     LP1B     LPD     -0.230000       0.00000          -1   0.00000       0.00000    
      6535 MEOH     166      MEOH     C1       CD33B     2.31410       11.6110           0  -1.00000       1.30000    
      6536 MEOH     166      MEOH     DC1      DRUD     -2.45410      0.400000           0   0.00000       0.00000    
      6537 MEOH     166      MEOH     O1       OD31H     2.48830       15.5990           0  -1.02800       1.30000    
      6538 MEOH     166      MEOH     DO1      DRUD     -2.48830      0.400000           0   0.00000       0.00000    
      6539 MEOH     166      MEOH     HO1      HDP1A    0.360000       1.00800           0   0.00000       0.00000    
      6540 MEOH     166      MEOH     HO2      DUMH      0.00000       1.00800           0   0.00000       0.00000    
      6541 MEOH     166      MEOH     H1A      HDA3B    0.800000E-01   1.00800           0   0.00000       0.00000    
      6542 MEOH     166      MEOH     H1B      HDA3B    0.800000E-01   1.00800           0   0.00000       0.00000    
      6543 MEOH     166      MEOH     H1C      HDA3B    0.800000E-01   1.00800           0   0.00000       0.00000    
      6544 MEOH     166      MEOH     LP1A     LPD     -0.230000       0.00000          -1   0.00000       0.00000    
      6545 MEOH     166      MEOH     LP1B     LPD     -0.230000       0.00000          -1   0.00000       0.00000    
      6546 MEOH     167      MEOH     C1       CD33B     2.31410       11.6110           0  -1.00000       1.30000    
      6547 MEOH     167      MEOH     DC1      DRUD     -2.45410      0.400000           0   0.00000       0.00000    
      6548 MEOH     167      MEOH     O1       OD31H     2.48830       15.5990           0  -1.02800       1.30000    
      6549 MEOH     167      MEOH     DO1      DRUD     -2.48830      0.400000           0   0.00000       0.00000    
      6550 MEOH     167      MEOH     HO1      HDP1A    0.360000       1.00800           0   0.00000       0.00000    
      6551 MEOH     167      MEOH     HO2      DUMH      0.00000       1.00800           0   0.00000       0.00000    
      6552 MEOH     167      MEOH     H1A      HDA3B    0.800000E-01   1.00800           0   0.00000       0.00000    
      6553 MEOH     167      MEOH     H1B      HDA3B    0.800000E-01   1.00800           0   0.00000       0.00000    
      6554 MEOH     167      MEOH     H1C      HDA3B    0.800000E-01   1.00800           0   0.00000       0.00000    
      6555 MEOH     167      MEOH     LP1A     LPD     -0.230000       0.00000          -1   0.00000       0.00000    
      6556 MEOH     167      MEOH     LP1B     LPD     -0.230000       0.00000          -1   0.00000       0.00000    
      6557 MEOH     168      MEOH     C1       CD33B     2.31410       11.6110           0  -1.00000       1.30000    
      6558 MEOH     168      MEOH     DC1      DRUD     -2.45410      0.400000           0   0.00000       0.00000    
      6559 MEOH     168      MEOH     O1       OD31H     2.48830       15.5990           0  -1.02800       1.30000    
      6560 MEOH     168      MEOH     DO1      DRUD     -2.48830      0.400000           0   0.00000       0.00000    
      6561 MEOH     168      MEOH     HO1      HDP1A    0.360000       1.00800           0   0.00000       0.00000    
      6562 MEOH     168      MEOH     HO2      DUMH      0.00000       1.00800           0   0.00000       0.00000    
      6563 MEOH     168      MEOH     H1A      HDA3B    0.800000E-01   1.00800           0   0.00000       0.00000    
      6564 MEOH     168      MEOH     H1B      HDA3B    0.800000E-01   1.00800           0   0.00000       0.00000    
      6565 MEOH     168      MEOH     H1C      HDA3B    0.800000E-01   1.00800           0   0.00000       0.00000    
      6566 MEOH     168      MEOH     LP1A     LPD     -0.230000       0.00000          -1   0.00000       0.00000    
      6567 MEOH     168      MEOH     LP1B     LPD     -0.230000       0.00000          -1   0.00000       0.00000    
      6568 MEOH     169      MEOH     C1       CD33B     2.31410       11.6110           0  -1.00000       1.30000    
      6569 MEOH     169      MEOH     DC1      DRUD     -2.45410      0.400000           0   0.00000       0.00000    
      6570 MEOH     169      MEOH     O1       OD31H     2.48830       15.5990           0  -1.02800       1.30000    
      6571 MEOH     169      MEOH     DO1      DRUD     -2.48830      0.400000           0   0.00000       0.00000    
      6572 MEOH     169      MEOH     HO1      HDP1A    0.360000       1.00800           0   0.00000       0.00000    
      6573 MEOH     169      MEOH     HO2      DUMH      0.00000       1.00800           0   0.00000       0.00000    
      6574 MEOH     169      MEOH     H1A      HDA3B    0.800000E-01   1.00800           0   0.00000       0.00000    
      6575 MEOH     169      MEOH     H1B      HDA3B    0.800000E-01   1.00800           0   0.00000       0.00000    
      6576 MEOH     169      MEOH     H1C      HDA3B    0.800000E-01   1.00800           0   0.00000       0.00000    
      6577 MEOH     169      MEOH     LP1A     LPD     -0.230000       0.00000          -1   0.00000       0.00000    
      6578 MEOH     169      MEOH     LP1B     LPD     -0.230000       0.00000          -1   0.00000       0.00000    
      6579 MEOH     170      MEOH     C1       CD33B     2.31410       11.6110           0  -1.00000       1.30000    
      6580 MEOH     170      MEOH     DC1      DRUD     -2.45410      0.400000           0   0.00000       0.00000    
      6581 MEOH     170      MEOH     O1       OD31H     2.48830       15.5990           0  -1.02800       1.30000    
      6582 MEOH     170      MEOH     DO1      DRUD     -2.48830      0.400000           0   0.00000       0.00000    
      6583 MEOH     170      MEOH     HO1      HDP1A    0.360000       1.00800           0   0.00000       0.00000    
      6584 MEOH     170      MEOH     HO2      DUMH      0.00000       1.00800           0   0.00000       0.00000    
      6585 MEOH     170      MEOH     H1A      HDA3B    0.800000E-01   1.00800           0   0.00000       0.00000    
      6586 MEOH     170      MEOH     H1B      HDA3B    0.800000E-01   1.00800           0   0.00000       0.00000    
      6587 MEOH     170      MEOH     H1C      HDA3B    0.800000E-01   1.00800           0   0.00000       0.00000    
      6588 MEOH     170      MEOH     LP1A     LPD     -0.230000       0.00000          -1   0.00000       0.00000    
      6589 MEOH     170      MEOH     LP1B     LPD     -0.230000       0.00000          -1   0.00000       0.00000    
      6590 MEOH     171      MEOH     C1       CD33B     2.31410       11.6110           0  -1.00000       1.30000    
      6591 MEOH     171      MEOH     DC1      DRUD     -2.45410      0.400000           0   0.00000       0.00000    
      6592 MEOH     171      MEOH     O1       OD31H     2.48830       15.5990           0  -1.02800       1.30000    
      6593 MEOH     171      MEOH     DO1      DRUD     -2.48830      0.400000           0   0.00000       0.00000    
      6594 MEOH     171      MEOH     HO1      HDP1A    0.360000       1.00800           0   0.00000       0.00000    
      6595 MEOH     171      MEOH     HO2      DUMH      0.00000       1.00800           0   0.00000       0.00000    
      6596 MEOH     171      MEOH     H1A      HDA3B    0.800000E-01   1.00800           0   0.00000       0.00000    
      6597 MEOH     171      MEOH     H1B      HDA3B    0.800000E-01   1.00800           0   0.00000       0.00000    
      6598 MEOH     171      MEOH     H1C      HDA3B    0.800000E-01   1.00800           0   0.00000       0.00000    
      6599 MEOH     171      MEOH     LP1A     LPD     -0.230000       0.00000          -1   0.00000       0.00000    
      6600 MEOH     171      MEOH     LP1B     LPD     -0.230000       0.00000          -1   0.00000       0.00000    
      6601 MEOH     172      MEOH     C1       CD33B     2.31410       11.6110           0  -1.00000       1.30000    
      6602 MEOH     172      MEOH     DC1      DRUD     -2.45410      0.400000           0   0.00000       0.00000    
      6603 MEOH     172      MEOH     O1       OD31H     2.48830       15.5990           0  -1.02800       1.30000    
      6604 MEOH     172      MEOH     DO1      DRUD     -2.48830      0.400000           0   0.00000       0.00000    
      6605 MEOH     172      MEOH     HO1      HDP1A    0.360000       1.00800           0   0.00000       0.00000    
      6606 MEOH     172      MEOH     HO2      DUMH      0.00000       1.00800           0   0.00000       0.00000    
      6607 MEOH     172      MEOH     H1A      HDA3B    0.800000E-01   1.00800           0   0.00000       0.00000    
      6608 MEOH     172      MEOH     H1B      HDA3B    0.800000E-01   1.00800           0   0.00000       0.00000    
      6609 MEOH     172      MEOH     H1C      HDA3B    0.800000E-01   1.00800           0   0.00000       0.00000    
      6610 MEOH     172      MEOH     LP1A     LPD     -0.230000       0.00000          -1   0.00000       0.00000    
      6611 MEOH     172      MEOH     LP1B     LPD     -0.230000       0.00000          -1   0.00000       0.00000    
      6612 MEOH     173      MEOH     C1       CD33B     2.31410       11.6110           0  -1.00000       1.30000    
      6613 MEOH     173      MEOH     DC1      DRUD     -2.45410      0.400000           0   0.00000       0.00000    
      6614 MEOH     173      MEOH     O1       OD31H     2.48830       15.5990           0  -1.02800       1.30000    
      6615 MEOH     173      MEOH     DO1      DRUD     -2.48830      0.400000           0   0.00000       0.00000    
      6616 MEOH     173      MEOH     HO1      HDP1A    0.360000       1.00800           0   0.00000       0.00000    
      6617 MEOH     173      MEOH     HO2      DUMH      0.00000       1.00800           0   0.00000       0.00000    
      6618 MEOH     173      MEOH     H1A      HDA3B    0.800000E-01   1.00800           0   0.00000       0.00000    
      6619 MEOH     173      MEOH     H1B      HDA3B    0.800000E-01   1.00800           0   0.00000       0.00000    
      6620 MEOH     173      MEOH     H1C      HDA3B    0.800000E-01   1.00800           0   0.00000       0.00000    
      6621 MEOH     173      MEOH     LP1A     LPD     -0.230000       0.00000          -1   0.00000       0.00000    
      6622 MEOH     173      MEOH     LP1B     LPD     -0.230000       0.00000          -1   0.00000       0.00000    
      6623 MEOH     174      MEOH     C1       CD33B     2.31410       11.6110           0  -1.00000       1.30000    
      6624 MEOH     174      MEOH     DC1      DRUD     -2.45410      0.400000           0   0.00000       0.00000    
      6625 MEOH     174      MEOH     O1       OD31H     2.48830       15.5990           0  -1.02800       1.30000    
      6626 MEOH     174      MEOH     DO1      DRUD     -2.48830      0.400000           0   0.00000       0.00000    
      6627 MEOH     174      MEOH     HO1      HDP1A    0.360000       1.00800           0   0.00000       0.00000    
      6628 MEOH     174      MEOH     HO2      DUMH      0.00000       1.00800           0   0.00000       0.00000    
      6629 MEOH     174      MEOH     H1A      HDA3B    0.800000E-01   1.00800           0   0.00000       0.00000    
      6630 MEOH     174      MEOH     H1B      HDA3B    0.800000E-01   1.00800           0   0.00000       0.00000    
      6631 MEOH     174      MEOH     H1C      HDA3B    0.800000E-01   1.00800           0   0.00000       0.00000    
      6632 MEOH     174      MEOH     LP1A     LPD     -0.230000       0.00000          -1   0.00000       0.00000    
      6633 MEOH     174      MEOH     LP1B     LPD     -0.230000       0.00000          -1   0.00000       0.00000    
      6634 MEOH     175      MEOH     C1       CD33B     2.31410       11.6110           0  -1.00000       1.30000    
      6635 MEOH     175      MEOH     DC1      DRUD     -2.45410      0.400000           0   0.00000       0.00000    
      6636 MEOH     175      MEOH     O1       OD31H     2.48830       15.5990           0  -1.02800       1.30000    
      6637 MEOH     175      MEOH     DO1      DRUD     -2.48830      0.400000           0   0.00000       0.00000    
      6638 MEOH     175      MEOH     HO1      HDP1A    0.360000       1.00800           0   0.00000       0.00000    
      6639 MEOH     175      MEOH     HO2      DUMH      0.00000       1.00800           0   0.00000       0.00000    
      6640 MEOH     175      MEOH     H1A      HDA3B    0.800000E-01   1.00800           0   0.00000       0.00000    
      6641 MEOH     175      MEOH     H1B      HDA3B    0.800000E-01   1.00800           0   0.00000       0.00000    
      6642 MEOH     175      MEOH     H1C      HDA3B    0.800000E-01   1.00800           0   0.00000       0.00000    
      6643 MEOH     175      MEOH     LP1A     LPD     -0.230000       0.00000          -1   0.00000       0.00000    
      6644 MEOH     175      MEOH     LP1B     LPD     -0.230000       0.00000          -1   0.00000       0.00000    
      6645 MEOH     176      MEOH     C1       CD33B     2.31410       11.6110           0  -1.00000       1.30000    
      6646 MEOH     176      MEOH     DC1      DRUD     -2.45410      0.400000           0   0.00000       0.00000    
      6647 MEOH     176      MEOH     O1       OD31H     2.48830       15.5990           0  -1.02800       1.30000    
      6648 MEOH     176      MEOH     DO1      DRUD     -2.48830      0.400000           0   0.00000       0.00000    
      6649 MEOH     176      MEOH     HO1      HDP1A    0.360000       1.00800           0   0.00000       0.00000    
      6650 MEOH     176      MEOH     HO2      DUMH      0.00000       1.00800           0   0.00000       0.00000    
      6651 MEOH     176      MEOH     H1A      HDA3B    0.800000E-01   1.00800           0   0.00000       0.00000    
      6652 MEOH     176      MEOH     H1B      HDA3B    0.800000E-01   1.00800           0   0.00000       0.00000    
      6653 MEOH     176      MEOH     H1C      HDA3B    0.800000E-01   1.00800           0   0.00000       0.00000    
      6654 MEOH     176      MEOH     LP1A     LPD     -0.230000       0.00000          -1   0.00000       0.00000    
      6655 MEOH     176      MEOH     LP1B     LPD     -0.230000       0.00000          -1   0.00000       0.00000    
      6656 MEOH     177      MEOH     C1       CD33B     2.31410       11.6110           0  -1.00000       1.30000    
      6657 MEOH     177      MEOH     DC1      DRUD     -2.45410      0.400000           0   0.00000       0.00000    
      6658 MEOH     177      MEOH     O1       OD31H     2.48830       15.5990           0  -1.02800       1.30000    
      6659 MEOH     177      MEOH     DO1      DRUD     -2.48830      0.400000           0   0.00000       0.00000    
      6660 MEOH     177      MEOH     HO1      HDP1A    0.360000       1.00800           0   0.00000       0.00000    
      6661 MEOH     177      MEOH     HO2      DUMH      0.00000       1.00800           0   0.00000       0.00000    
      6662 MEOH     177      MEOH     H1A      HDA3B    0.800000E-01   1.00800           0   0.00000       0.00000    
      6663 MEOH     177      MEOH     H1B      HDA3B    0.800000E-01   1.00800           0   0.00000       0.00000    
      6664 MEOH     177      MEOH     H1C      HDA3B    0.800000E-01   1.00800           0   0.00000       0.00000    
      6665 MEOH     177      MEOH     LP1A     LPD     -0.230000       0.00000          -1   0.00000       0.00000    
      6666 MEOH     177      MEOH     LP1B     LPD     -0.230000       0.00000          -1   0.00000       0.00000    
      6667 MEOH     178      MEOH     C1       CD33B     2.31410       11.6110           0  -1.00000       1.30000    
      6668 MEOH     178      MEOH     DC1      DRUD     -2.45410      0.400000           0   0.00000       0.00000    
      6669 MEOH     178      MEOH     O1       OD31H     2.48830       15.5990           0  -1.02800       1.30000    
      6670 MEOH     178      MEOH     DO1      DRUD     -2.48830      0.400000           0   0.00000       0.00000    
      6671 MEOH     178      MEOH     HO1      HDP1A    0.360000       1.00800           0   0.00000       0.00000    
      6672 MEOH     178      MEOH     HO2      DUMH      0.00000       1.00800           0   0.00000       0.00000    
      6673 MEOH     178      MEOH     H1A      HDA3B    0.800000E-01   1.00800           0   0.00000       0.00000    
      6674 MEOH     178      MEOH     H1B      HDA3B    0.800000E-01   1.00800           0   0.00000       0.00000    
      6675 MEOH     178      MEOH     H1C      HDA3B    0.800000E-01   1.00800           0   0.00000       0.00000    
      6676 MEOH     178      MEOH     LP1A     LPD     -0.230000       0.00000          -1   0.00000       0.00000    
      6677 MEOH     178      MEOH     LP1B     LPD     -0.230000       0.00000          -1   0.00000       0.00000    
      6678 MEOH     179      MEOH     C1       CD33B     2.31410       11.6110           0  -1.00000       1.30000    
      6679 MEOH     179      MEOH     DC1      DRUD     -2.45410      0.400000           0   0.00000       0.00000    
      6680 MEOH     179      MEOH     O1       OD31H     2.48830       15.5990           0  -1.02800       1.30000    
      6681 MEOH     179      MEOH     DO1      DRUD     -2.48830      0.400000           0   0.00000       0.00000    
      6682 MEOH     179      MEOH     HO1      HDP1A    0.360000       1.00800           0   0.00000       0.00000    
      6683 MEOH     179      MEOH     HO2      DUMH      0.00000       1.00800           0   0.00000       0.00000    
      6684 MEOH     179      MEOH     H1A      HDA3B    0.800000E-01   1.00800           0   0.00000       0.00000    
      6685 MEOH     179      MEOH     H1B      HDA3B    0.800000E-01   1.00800           0   0.00000       0.00000    
      6686 MEOH     179      MEOH     H1C      HDA3B    0.800000E-01   1.00800           0   0.00000       0.00000    
      6687 MEOH     179      MEOH     LP1A     LPD     -0.230000       0.00000          -1   0.00000       0.00000    
      6688 MEOH     179      MEOH     LP1B     LPD     -0.230000       0.00000          -1   0.00000       0.00000    
      6689 MEOH     180      MEOH     C1       CD33B     2.31410       11.6110           0  -1.00000       1.30000    
      6690 MEOH     180      MEOH     DC1      DRUD     -2.45410      0.400000           0   0.00000       0.00000    
      6691 MEOH     180      MEOH     O1       OD31H     2.48830       15.5990           0  -1.02800       1.30000    
      6692 MEOH     180      MEOH     DO1      DRUD     -2.48830      0.400000           0   0.00000       0.00000    
      6693 MEOH     180      MEOH     HO1      HDP1A    0.360000       1.00800           0   0.00000       0.00000    
      6694 MEOH     180      MEOH     HO2      DUMH      0.00000       1.00800           0   0.00000       0.00000    
      6695 MEOH     180      MEOH     H1A      HDA3B    0.800000E-01   1.00800           0   0.00000       0.00000    
      6696 MEOH     180      MEOH     H1B      HDA3B    0.800000E-01   1.00800           0   0.00000       0.00000    
      6697 MEOH     180      MEOH     H1C      HDA3B    0.800000E-01   1.00800           0   0.00000       0.00000    
      6698 MEOH     180      MEOH     LP1A     LPD     -0.230000       0.00000          -1   0.00000       0.00000    
      6699 MEOH     180      MEOH     LP1B     LPD     -0.230000       0.00000          -1   0.00000       0.00000    
      6700 MEOH     181      MEOH     C1       CD33B     2.31410       11.6110           0  -1.00000       1.30000    
      6701 MEOH     181      MEOH     DC1      DRUD     -2.45410      0.400000           0   0.00000       0.00000    
      6702 MEOH     181      MEOH     O1       OD31H     2.48830       15.5990           0  -1.02800       1.30000    
      6703 MEOH     181      MEOH     DO1      DRUD     -2.48830      0.400000           0   0.00000       0.00000    
      6704 MEOH     181      MEOH     HO1      HDP1A    0.360000       1.00800           0   0.00000       0.00000    
      6705 MEOH     181      MEOH     HO2      DUMH      0.00000       1.00800           0   0.00000       0.00000    
      6706 MEOH     181      MEOH     H1A      HDA3B    0.800000E-01   1.00800           0   0.00000       0.00000    
      6707 MEOH     181      MEOH     H1B      HDA3B    0.800000E-01   1.00800           0   0.00000       0.00000    
      6708 MEOH     181      MEOH     H1C      HDA3B    0.800000E-01   1.00800           0   0.00000       0.00000    
      6709 MEOH     181      MEOH     LP1A     LPD     -0.230000       0.00000          -1   0.00000       0.00000    
      6710 MEOH     181      MEOH     LP1B     LPD     -0.230000       0.00000          -1   0.00000       0.00000    
      6711 MEOH     182      MEOH     C1       CD33B     2.31410       11.6110           0  -1.00000       1.30000    
      6712 MEOH     182      MEOH     DC1      DRUD     -2.45410      0.400000           0   0.00000       0.00000    
      6713 MEOH     182      MEOH     O1       OD31H     2.48830       15.5990           0  -1.02800       1.30000    
      6714 MEOH     182      MEOH     DO1      DRUD     -2.48830      0.400000           0   0.00000       0.00000    
      6715 MEOH     182      MEOH     HO1      HDP1A    0.360000       1.00800           0   0.00000       0.00000    
      6716 MEOH     182      MEOH     HO2      DUMH      0.00000       1.00800           0   0.00000       0.00000    
      6717 MEOH     182      MEOH     H1A      HDA3B    0.800000E-01   1.00800           0   0.00000       0.00000    
      6718 MEOH     182      MEOH     H1B      HDA3B    0.800000E-01   1.00800           0   0.00000       0.00000    
      6719 MEOH     182      MEOH     H1C      HDA3B    0.800000E-01   1.00800           0   0.00000       0.00000    
      6720 MEOH     182      MEOH     LP1A     LPD     -0.230000       0.00000          -1   0.00000       0.00000    
      6721 MEOH     182      MEOH     LP1B     LPD     -0.230000       0.00000          -1   0.00000       0.00000    
      6722 MEOH     183      MEOH     C1       CD33B     2.31410       11.6110           0  -1.00000       1.30000    
      6723 MEOH     183      MEOH     DC1      DRUD     -2.45410      0.400000           0   0.00000       0.00000    
      6724 MEOH     183      MEOH     O1       OD31H     2.48830       15.5990           0  -1.02800       1.30000    
      6725 MEOH     183      MEOH     DO1      DRUD     -2.48830      0.400000           0   0.00000       0.00000    
      6726 MEOH     183      MEOH     HO1      HDP1A    0.360000       1.00800           0   0.00000       0.00000    
      6727 MEOH     183      MEOH     HO2      DUMH      0.00000       1.00800           0   0.00000       0.00000    
      6728 MEOH     183      MEOH     H1A      HDA3B    0.800000E-01   1.00800           0   0.00000       0.00000    
      6729 MEOH     183      MEOH     H1B      HDA3B    0.800000E-01   1.00800           0   0.00000       0.00000    
      6730 MEOH     183      MEOH     H1C      HDA3B    0.800000E-01   1.00800           0   0.00000       0.00000    
      6731 MEOH     183      MEOH     LP1A     LPD     -0.230000       0.00000          -1   0.00000       0.00000    
      6732 MEOH     183      MEOH     LP1B     LPD     -0.230000       0.00000          -1   0.00000       0.00000    
      6733 MEOH     184      MEOH     C1       CD33B     2.31410       11.6110           0  -1.00000       1.30000    
      6734 MEOH     184      MEOH     DC1      DRUD     -2.45410      0.400000           0   0.00000       0.00000    
      6735 MEOH     184      MEOH     O1       OD31H     2.48830       15.5990           0  -1.02800       1.30000    
      6736 MEOH     184      MEOH     DO1      DRUD     -2.48830      0.400000           0   0.00000       0.00000    
      6737 MEOH     184      MEOH     HO1      HDP1A    0.360000       1.00800           0   0.00000       0.00000    
      6738 MEOH     184      MEOH     HO2      DUMH      0.00000       1.00800           0   0.00000       0.00000    
      6739 MEOH     184      MEOH     H1A      HDA3B    0.800000E-01   1.00800           0   0.00000       0.00000    
      6740 MEOH     184      MEOH     H1B      HDA3B    0.800000E-01   1.00800           0   0.00000       0.00000    
      6741 MEOH     184      MEOH     H1C      HDA3B    0.800000E-01   1.00800           0   0.00000       0.00000    
      6742 MEOH     184      MEOH     LP1A     LPD     -0.230000       0.00000          -1   0.00000       0.00000    
      6743 MEOH     184      MEOH     LP1B     LPD     -0.230000       0.00000          -1   0.00000       0.00000    
      6744 MEOH     185      MEOH     C1       CD33B     2.31410       11.6110           0  -1.00000       1.30000    
      6745 MEOH     185      MEOH     DC1      DRUD     -2.45410      0.400000           0   0.00000       0.00000    
      6746 MEOH     185      MEOH     O1       OD31H     2.48830       15.5990           0  -1.02800       1.30000    
      6747 MEOH     185      MEOH     DO1      DRUD     -2.48830      0.400000           0   0.00000       0.00000    
      6748 MEOH     185      MEOH     HO1      HDP1A    0.360000       1.00800           0   0.00000       0.00000    
      6749 MEOH     185      MEOH     HO2      DUMH      0.00000       1.00800           0   0.00000       0.00000    
      6750 MEOH     185      MEOH     H1A      HDA3B    0.800000E-01   1.00800           0   0.00000       0.00000    
      6751 MEOH     185      MEOH     H1B      HDA3B    0.800000E-01   1.00800           0   0.00000       0.00000    
      6752 MEOH     185      MEOH     H1C      HDA3B    0.800000E-01   1.00800           0   0.00000       0.00000    
      6753 MEOH     185      MEOH     LP1A     LPD     -0.230000       0.00000          -1   0.00000       0.00000    
      6754 MEOH     185      MEOH     LP1B     LPD     -0.230000       0.00000          -1   0.00000       0.00000    
      6755 MEOH     186      MEOH     C1       CD33B     2.31410       11.6110           0  -1.00000       1.30000    
      6756 MEOH     186      MEOH     DC1      DRUD     -2.45410      0.400000           0   0.00000       0.00000    
      6757 MEOH     186      MEOH     O1       OD31H     2.48830       15.5990           0  -1.02800       1.30000    
      6758 MEOH     186      MEOH     DO1      DRUD     -2.48830      0.400000           0   0.00000       0.00000    
      6759 MEOH     186      MEOH     HO1      HDP1A    0.360000       1.00800           0   0.00000       0.00000    
      6760 MEOH     186      MEOH     HO2      DUMH      0.00000       1.00800           0   0.00000       0.00000    
      6761 MEOH     186      MEOH     H1A      HDA3B    0.800000E-01   1.00800           0   0.00000       0.00000    
      6762 MEOH     186      MEOH     H1B      HDA3B    0.800000E-01   1.00800           0   0.00000       0.00000    
      6763 MEOH     186      MEOH     H1C      HDA3B    0.800000E-01   1.00800           0   0.00000       0.00000    
      6764 MEOH     186      MEOH     LP1A     LPD     -0.230000       0.00000          -1   0.00000       0.00000    
      6765 MEOH     186      MEOH     LP1B     LPD     -0.230000       0.00000          -1   0.00000       0.00000    
      6766 MEOH     187      MEOH     C1       CD33B     2.31410       11.6110           0  -1.00000       1.30000    
      6767 MEOH     187      MEOH     DC1      DRUD     -2.45410      0.400000           0   0.00000       0.00000    
      6768 MEOH     187      MEOH     O1       OD31H     2.48830       15.5990           0  -1.02800       1.30000    
      6769 MEOH     187      MEOH     DO1      DRUD     -2.48830      0.400000           0   0.00000       0.00000    
      6770 MEOH     187      MEOH     HO1      HDP1A    0.360000       1.00800           0   0.00000       0.00000    
      6771 MEOH     187      MEOH     HO2      DUMH      0.00000       1.00800           0   0.00000       0.00000    
      6772 MEOH     187      MEOH     H1A      HDA3B    0.800000E-01   1.00800           0   0.00000       0.00000    
      6773 MEOH     187      MEOH     H1B      HDA3B    0.800000E-01   1.00800           0   0.00000       0.00000    
      6774 MEOH     187      MEOH     H1C      HDA3B    0.800000E-01   1.00800           0   0.00000       0.00000    
      6775 MEOH     187      MEOH     LP1A     LPD     -0.230000       0.00000          -1   0.00000       0.00000    
      6776 MEOH     187      MEOH     LP1B     LPD     -0.230000       0.00000          -1   0.00000       0.00000    
      6777 MEOH     188      MEOH     C1       CD33B     2.31410       11.6110           0  -1.00000       1.30000    
      6778 MEOH     188      MEOH     DC1      DRUD     -2.45410      0.400000           0   0.00000       0.00000    
      6779 MEOH     188      MEOH     O1       OD31H     2.48830       15.5990           0  -1.02800       1.30000    
      6780 MEOH     188      MEOH     DO1      DRUD     -2.48830      0.400000           0   0.00000       0.00000    
      6781 MEOH     188      MEOH     HO1      HDP1A    0.360000       1.00800           0   0.00000       0.00000    
      6782 MEOH     188      MEOH     HO2      DUMH      0.00000       1.00800           0   0.00000       0.00000    
      6783 MEOH     188      MEOH     H1A      HDA3B    0.800000E-01   1.00800           0   0.00000       0.00000    
      6784 MEOH     188      MEOH     H1B      HDA3B    0.800000E-01   1.00800           0   0.00000       0.00000    
      6785 MEOH     188      MEOH     H1C      HDA3B    0.800000E-01   1.00800           0   0.00000       0.00000    
      6786 MEOH     188      MEOH     LP1A     LPD     -0.230000       0.00000          -1   0.00000       0.00000    
      6787 MEOH     188      MEOH     LP1B     LPD     -0.230000       0.00000          -1   0.00000       0.00000    
      6788 MEOH     189      MEOH     C1       CD33B     2.31410       11.6110           0  -1.00000       1.30000    
      6789 MEOH     189      MEOH     DC1      DRUD     -2.45410      0.400000           0   0.00000       0.00000    
      6790 MEOH     189      MEOH     O1       OD31H     2.48830       15.5990           0  -1.02800       1.30000    
      6791 MEOH     189      MEOH     DO1      DRUD     -2.48830      0.400000           0   0.00000       0.00000    
      6792 MEOH     189      MEOH     HO1      HDP1A    0.360000       1.00800           0   0.00000       0.00000    
      6793 MEOH     189      MEOH     HO2      DUMH      0.00000       1.00800           0   0.00000       0.00000    
      6794 MEOH     189      MEOH     H1A      HDA3B    0.800000E-01   1.00800           0   0.00000       0.00000    
      6795 MEOH     189      MEOH     H1B      HDA3B    0.800000E-01   1.00800           0   0.00000       0.00000    
      6796 MEOH     189      MEOH     H1C      HDA3B    0.800000E-01   1.00800           0   0.00000       0.00000    
      6797 MEOH     189      MEOH     LP1A     LPD     -0.230000       0.00000          -1   0.00000       0.00000    
      6798 MEOH     189      MEOH     LP1B     LPD     -0.230000       0.00000          -1   0.00000       0.00000    
      6799 MEOH     190      MEOH     C1       CD33B     2.31410       11.6110           0  -1.00000       1.30000    
      6800 MEOH     190      MEOH     DC1      DRUD     -2.45410      0.400000           0   0.00000       0.00000    
      6801 MEOH     190      MEOH     O1       OD31H     2.48830       15.5990           0  -1.02800       1.30000    
      6802 MEOH     190      MEOH     DO1      DRUD     -2.48830      0.400000           0   0.00000       0.00000    
      6803 MEOH     190      MEOH     HO1      HDP1A    0.360000       1.00800           0   0.00000       0.00000    
      6804 MEOH     190      MEOH     HO2      DUMH      0.00000       1.00800           0   0.00000       0.00000    
      6805 MEOH     190      MEOH     H1A      HDA3B    0.800000E-01   1.00800           0   0.00000       0.00000    
      6806 MEOH     190      MEOH     H1B      HDA3B    0.800000E-01   1.00800           0   0.00000       0.00000    
      6807 MEOH     190      MEOH     H1C      HDA3B    0.800000E-01   1.00800           0   0.00000       0.00000    
      6808 MEOH     190      MEOH     LP1A     LPD     -0.230000       0.00000          -1   0.00000       0.00000    
      6809 MEOH     190      MEOH     LP1B     LPD     -0.230000       0.00000          -1   0.00000       0.00000    
      6810 MEOH     191      MEOH     C1       CD33B     2.31410       11.6110           0  -1.00000       1.30000    
      6811 MEOH     191      MEOH     DC1      DRUD     -2.45410      0.400000           0   0.00000       0.00000    
      6812 MEOH     191      MEOH     O1       OD31H     2.48830       15.5990           0  -1.02800       1.30000    
      6813 MEOH     191      MEOH     DO1      DRUD     -2.48830      0.400000           0   0.00000       0.00000    
      6814 MEOH     191      MEOH     HO1      HDP1A    0.360000       1.00800           0   0.00000       0.00000    
      6815 MEOH     191      MEOH     HO2      DUMH      0.00000       1.00800           0   0.00000       0.00000    
      6816 MEOH     191      MEOH     H1A      HDA3B    0.800000E-01   1.00800           0   0.00000       0.00000    
      6817 MEOH     191      MEOH     H1B      HDA3B    0.800000E-01   1.00800           0   0.00000       0.00000    
      6818 MEOH     191      MEOH     H1C      HDA3B    0.800000E-01   1.00800           0   0.00000       0.00000    
      6819 MEOH     191      MEOH     LP1A     LPD     -0.230000       0.00000          -1   0.00000       0.00000    
      6820 MEOH     191      MEOH     LP1B     LPD     -0.230000       0.00000          -1   0.00000       0.00000    
      6821 MEOH     192      MEOH     C1       CD33B     2.31410       11.6110           0  -1.00000       1.30000    
      6822 MEOH     192      MEOH     DC1      DRUD     -2.45410      0.400000           0   0.00000       0.00000    
      6823 MEOH     192      MEOH     O1       OD31H     2.48830       15.5990           0  -1.02800       1.30000    
      6824 MEOH     192      MEOH     DO1      DRUD     -2.48830      0.400000           0   0.00000       0.00000    
      6825 MEOH     192      MEOH     HO1      HDP1A    0.360000       1.00800           0   0.00000       0.00000    
      6826 MEOH     192      MEOH     HO2      DUMH      0.00000       1.00800           0   0.00000       0.00000    
      6827 MEOH     192      MEOH     H1A      HDA3B    0.800000E-01   1.00800           0   0.00000       0.00000    
      6828 MEOH     192      MEOH     H1B      HDA3B    0.800000E-01   1.00800           0   0.00000       0.00000    
      6829 MEOH     192      MEOH     H1C      HDA3B    0.800000E-01   1.00800           0   0.00000       0.00000    
      6830 MEOH     192      MEOH     LP1A     LPD     -0.230000       0.00000          -1   0.00000       0.00000    
      6831 MEOH     192      MEOH     LP1B     LPD     -0.230000       0.00000          -1   0.00000       0.00000    
      6832 MEOH     193      MEOH     C1       CD33B     2.31410       11.6110           0  -1.00000       1.30000    
      6833 MEOH     193      MEOH     DC1      DRUD     -2.45410      0.400000           0   0.00000       0.00000    
      6834 MEOH     193      MEOH     O1       OD31H     2.48830       15.5990           0  -1.02800       1.30000    
      6835 MEOH     193      MEOH     DO1      DRUD     -2.48830      0.400000           0   0.00000       0.00000    
      6836 MEOH     193      MEOH     HO1      HDP1A    0.360000       1.00800           0   0.00000       0.00000    
      6837 MEOH     193      MEOH     HO2      DUMH      0.00000       1.00800           0   0.00000       0.00000    
      6838 MEOH     193      MEOH     H1A      HDA3B    0.800000E-01   1.00800           0   0.00000       0.00000    
      6839 MEOH     193      MEOH     H1B      HDA3B    0.800000E-01   1.00800           0   0.00000       0.00000    
      6840 MEOH     193      MEOH     H1C      HDA3B    0.800000E-01   1.00800           0   0.00000       0.00000    
      6841 MEOH     193      MEOH     LP1A     LPD     -0.230000       0.00000          -1   0.00000       0.00000    
      6842 MEOH     193      MEOH     LP1B     LPD     -0.230000       0.00000          -1   0.00000       0.00000    
      6843 MEOH     194      MEOH     C1       CD33B     2.31410       11.6110           0  -1.00000       1.30000    
      6844 MEOH     194      MEOH     DC1      DRUD     -2.45410      0.400000           0   0.00000       0.00000    
      6845 MEOH     194      MEOH     O1       OD31H     2.48830       15.5990           0  -1.02800       1.30000    
      6846 MEOH     194      MEOH     DO1      DRUD     -2.48830      0.400000           0   0.00000       0.00000    
      6847 MEOH     194      MEOH     HO1      HDP1A    0.360000       1.00800           0   0.00000       0.00000    
      6848 MEOH     194      MEOH     HO2      DUMH      0.00000       1.00800           0   0.00000       0.00000    
      6849 MEOH     194      MEOH     H1A      HDA3B    0.800000E-01   1.00800           0   0.00000       0.00000    
      6850 MEOH     194      MEOH     H1B      HDA3B    0.800000E-01   1.00800           0   0.00000       0.00000    
      6851 MEOH     194      MEOH     H1C      HDA3B    0.800000E-01   1.00800           0   0.00000       0.00000    
      6852 MEOH     194      MEOH     LP1A     LPD     -0.230000       0.00000          -1   0.00000       0.00000    
      6853 MEOH     194      MEOH     LP1B     LPD     -0.230000       0.00000          -1   0.00000       0.00000    
      6854 MEOH     195      MEOH     C1       CD33B     2.31410       11.6110           0  -1.00000       1.30000    
      6855 MEOH     195      MEOH     DC1      DRUD     -2.45410      0.400000           0   0.00000       0.00000    
      6856 MEOH     195      MEOH     O1       OD31H     2.48830       15.5990           0  -1.02800       1.30000    
      6857 MEOH     195      MEOH     DO1      DRUD     -2.48830      0.400000           0   0.00000       0.00000    
      6858 MEOH     195      MEOH     HO1      HDP1A    0.360000       1.00800           0   0.00000       0.00000    
      6859 MEOH     195      MEOH     HO2      DUMH      0.00000       1.00800           0   0.00000       0.00000    
      6860 MEOH     195      MEOH     H1A      HDA3B    0.800000E-01   1.00800           0   0.00000       0.00000    
      6861 MEOH     195      MEOH     H1B      HDA3B    0.800000E-01   1.00800           0   0.00000       0.00000    
      6862 MEOH     195      MEOH     H1C      HDA3B    0.800000E-01   1.00800           0   0.00000       0.00000    
      6863 MEOH     195      MEOH     LP1A     LPD     -0.230000       0.00000          -1   0.00000       0.00000    
      6864 MEOH     195      MEOH     LP1B     LPD     -0.230000       0.00000          -1   0.00000       0.00000    
      6865 MEOH     196      MEOH     C1       CD33B     2.31410       11.6110           0  -1.00000       1.30000    
      6866 MEOH     196      MEOH     DC1      DRUD     -2.45410      0.400000           0   0.00000       0.00000    
      6867 MEOH     196      MEOH     O1       OD31H     2.48830       15.5990           0  -1.02800       1.30000    
      6868 MEOH     196      MEOH     DO1      DRUD     -2.48830      0.400000           0   0.00000       0.00000    
      6869 MEOH     196      MEOH     HO1      HDP1A    0.360000       1.00800           0   0.00000       0.00000    
      6870 MEOH     196      MEOH     HO2      DUMH      0.00000       1.00800           0   0.00000       0.00000    
      6871 MEOH     196      MEOH     H1A      HDA3B    0.800000E-01   1.00800           0   0.00000       0.00000    
      6872 MEOH     196      MEOH     H1B      HDA3B    0.800000E-01   1.00800           0   0.00000       0.00000    
      6873 MEOH     196      MEOH     H1C      HDA3B    0.800000E-01   1.00800           0   0.00000       0.00000    
      6874 MEOH     196      MEOH     LP1A     LPD     -0.230000       0.00000          -1   0.00000       0.00000    
      6875 MEOH     196      MEOH     LP1B     LPD     -0.230000       0.00000          -1   0.00000       0.00000    
      6876 MEOH     197      MEOH     C1       CD33B     2.31410       11.6110           0  -1.00000       1.30000    
      6877 MEOH     197      MEOH     DC1      DRUD     -2.45410      0.400000           0   0.00000       0.00000    
      6878 MEOH     197      MEOH     O1       OD31H     2.48830       15.5990           0  -1.02800       1.30000    
      6879 MEOH     197      MEOH     DO1      DRUD     -2.48830      0.400000           0   0.00000       0.00000    
      6880 MEOH     197      MEOH     HO1      HDP1A    0.360000       1.00800           0   0.00000       0.00000    
      6881 MEOH     197      MEOH     HO2      DUMH      0.00000       1.00800           0   0.00000       0.00000    
      6882 MEOH     197      MEOH     H1A      HDA3B    0.800000E-01   1.00800           0   0.00000       0.00000    
      6883 MEOH     197      MEOH     H1B      HDA3B    0.800000E-01   1.00800           0   0.00000       0.00000    
      6884 MEOH     197      MEOH     H1C      HDA3B    0.800000E-01   1.00800           0   0.00000       0.00000    
      6885 MEOH     197      MEOH     LP1A     LPD     -0.230000       0.00000          -1   0.00000       0.00000    
      6886 MEOH     197      MEOH     LP1B     LPD     -0.230000       0.00000          -1   0.00000       0.00000    
      6887 MEOH     198      MEOH     C1       CD33B     2.31410       11.6110           0  -1.00000       1.30000    
      6888 MEOH     198      MEOH     DC1      DRUD     -2.45410      0.400000           0   0.00000       0.00000    
      6889 MEOH     198      MEOH     O1       OD31H     2.48830       15.5990           0  -1.02800       1.30000    
      6890 MEOH     198      MEOH     DO1      DRUD     -2.48830      0.400000           0   0.00000       0.00000    
      6891 MEOH     198      MEOH     HO1      HDP1A    0.360000       1.00800           0   0.00000       0.00000    
      6892 MEOH     198      MEOH     HO2      DUMH      0.00000       1.00800           0   0.00000       0.00000    
      6893 MEOH     198      MEOH     H1A      HDA3B    0.800000E-01   1.00800           0   0.00000       0.00000    
      6894 MEOH     198      MEOH     H1B      HDA3B    0.800000E-01   1.00800           0   0.00000       0.00000    
      6895 MEOH     198      MEOH     H1C      HDA3B    0.800000E-01   1.00800           0   0.00000       0.00000    
      6896 MEOH     198      MEOH     LP1A     LPD     -0.230000       0.00000          -1   0.00000       0.00000    
      6897 MEOH     198      MEOH     LP1B     LPD     -0.230000       0.00000          -1   0.00000       0.00000    
      6898 MEOH     199      MEOH     C1       CD33B     2.31410       11.6110           0  -1.00000       1.30000    
      6899 MEOH     199      MEOH     DC1      DRUD     -2.45410      0.400000           0   0.00000       0.00000    
      6900 MEOH     199      MEOH     O1       OD31H     2.48830       15.5990           0  -1.02800       1.30000    
      6901 MEOH     199      MEOH     DO1      DRUD     -2.48830      0.400000           0   0.00000       0.00000    
      6902 MEOH     199      MEOH     HO1      HDP1A    0.360000       1.00800           0   0.00000       0.00000    
      6903 MEOH     199      MEOH     HO2      DUMH      0.00000       1.00800           0   0.00000       0.00000    
      6904 MEOH     199      MEOH     H1A      HDA3B    0.800000E-01   1.00800           0   0.00000       0.00000    
      6905 MEOH     199      MEOH     H1B      HDA3B    0.800000E-01   1.00800           0   0.00000       0.00000    
      6906 MEOH     199      MEOH     H1C      HDA3B    0.800000E-01   1.00800           0   0.00000       0.00000    
      6907 MEOH     199      MEOH     LP1A     LPD     -0.230000       0.00000          -1   0.00000       0.00000    
      6908 MEOH     199      MEOH     LP1B     LPD     -0.230000       0.00000          -1   0.00000       0.00000    
      6909 MEOH     200      MEOH     C1       CD33B     2.31410       11.6110           0  -1.00000       1.30000    
      6910 MEOH     200      MEOH     DC1      DRUD     -2.45410      0.400000           0   0.00000       0.00000    
      6911 MEOH     200      MEOH     O1       OD31H     2.48830       15.5990           0  -1.02800       1.30000    
      6912 MEOH     200      MEOH     DO1      DRUD     -2.48830      0.400000           0   0.00000       0.00000    
      6913 MEOH     200      MEOH     HO1      HDP1A    0.360000       1.00800           0   0.00000       0.00000    
      6914 MEOH     200      MEOH     HO2      DUMH      0.00000       1.00800           0   0.00000       0.00000    
      6915 MEOH     200      MEOH     H1A      HDA3B    0.800000E-01   1.00800           0   0.00000       0.00000    
      6916 MEOH     200      MEOH     H1B      HDA3B    0.800000E-01   1.00800           0   0.00000       0.00000    
      6917 MEOH     200      MEOH     H1C      HDA3B    0.800000E-01   1.00800           0   0.00000       0.00000    
      6918 MEOH     200      MEOH     LP1A     LPD     -0.230000       0.00000          -1   0.00000       0.00000    
      6919 MEOH     200      MEOH     LP1B     LPD     -0.230000       0.00000          -1   0.00000       0.00000    
      6920 MEOH     201      MEOH     C1       CD33B     2.31410       11.6110           0  -1.00000       1.30000    
      6921 MEOH     201      MEOH     DC1      DRUD     -2.45410      0.400000           0   0.00000       0.00000    
      6922 MEOH     201      MEOH     O1       OD31H     2.48830       15.5990           0  -1.02800       1.30000    
      6923 MEOH     201      MEOH     DO1      DRUD     -2.48830      0.400000           0   0.00000       0.00000    
      6924 MEOH     201      MEOH     HO1      HDP1A    0.360000       1.00800           0   0.00000       0.00000    
      6925 MEOH     201      MEOH     HO2      DUMH      0.00000       1.00800           0   0.00000       0.00000    
      6926 MEOH     201      MEOH     H1A      HDA3B    0.800000E-01   1.00800           0   0.00000       0.00000    
      6927 MEOH     201      MEOH     H1B      HDA3B    0.800000E-01   1.00800           0   0.00000       0.00000    
      6928 MEOH     201      MEOH     H1C      HDA3B    0.800000E-01   1.00800           0   0.00000       0.00000    
      6929 MEOH     201      MEOH     LP1A     LPD     -0.230000       0.00000          -1   0.00000       0.00000    
      6930 MEOH     201      MEOH     LP1B     LPD     -0.230000       0.00000          -1   0.00000       0.00000    
      6931 MEOH     202      MEOH     C1       CD33B     2.31410       11.6110           0  -1.00000       1.30000    
      6932 MEOH     202      MEOH     DC1      DRUD     -2.45410      0.400000           0   0.00000       0.00000    
      6933 MEOH     202      MEOH     O1       OD31H     2.48830       15.5990           0  -1.02800       1.30000    
      6934 MEOH     202      MEOH     DO1      DRUD     -2.48830      0.400000           0   0.00000       0.00000    
      6935 MEOH     202      MEOH     HO1      HDP1A    0.360000       1.00800           0   0.00000       0.00000    
      6936 MEOH     202      MEOH     HO2      DUMH      0.00000       1.00800           0   0.00000       0.00000    
      6937 MEOH     202      MEOH     H1A      HDA3B    0.800000E-01   1.00800           0   0.00000       0.00000    
      6938 MEOH     202      MEOH     H1B      HDA3B    0.800000E-01   1.00800           0   0.00000       0.00000    
      6939 MEOH     202      MEOH     H1C      HDA3B    0.800000E-01   1.00800           0   0.00000       0.00000    
      6940 MEOH     202      MEOH     LP1A     LPD     -0.230000       0.00000          -1   0.00000       0.00000    
      6941 MEOH     202      MEOH     LP1B     LPD     -0.230000       0.00000          -1   0.00000       0.00000    
      6942 MEOH     203      MEOH     C1       CD33B     2.31410       11.6110           0  -1.00000       1.30000    
      6943 MEOH     203      MEOH     DC1      DRUD     -2.45410      0.400000           0   0.00000       0.00000    
      6944 MEOH     203      MEOH     O1       OD31H     2.48830       15.5990           0  -1.02800       1.30000    
      6945 MEOH     203      MEOH     DO1      DRUD     -2.48830      0.400000           0   0.00000       0.00000    
      6946 MEOH     203      MEOH     HO1      HDP1A    0.360000       1.00800           0   0.00000       0.00000    
      6947 MEOH     203      MEOH     HO2      DUMH      0.00000       1.00800           0   0.00000       0.00000    
      6948 MEOH     203      MEOH     H1A      HDA3B    0.800000E-01   1.00800           0   0.00000       0.00000    
      6949 MEOH     203      MEOH     H1B      HDA3B    0.800000E-01   1.00800           0   0.00000       0.00000    
      6950 MEOH     203      MEOH     H1C      HDA3B    0.800000E-01   1.00800           0   0.00000       0.00000    
      6951 MEOH     203      MEOH     LP1A     LPD     -0.230000       0.00000          -1   0.00000       0.00000    
      6952 MEOH     203      MEOH     LP1B     LPD     -0.230000       0.00000          -1   0.00000       0.00000    
      6953 MEOH     204      MEOH     C1       CD33B     2.31410       11.6110           0  -1.00000       1.30000    
      6954 MEOH     204      MEOH     DC1      DRUD     -2.45410      0.400000           0   0.00000       0.00000    
      6955 MEOH     204      MEOH     O1       OD31H     2.48830       15.5990           0  -1.02800       1.30000    
      6956 MEOH     204      MEOH     DO1      DRUD     -2.48830      0.400000           0   0.00000       0.00000    
      6957 MEOH     204      MEOH     HO1      HDP1A    0.360000       1.00800           0   0.00000       0.00000    
      6958 MEOH     204      MEOH     HO2      DUMH      0.00000       1.00800           0   0.00000       0.00000    
      6959 MEOH     204      MEOH     H1A      HDA3B    0.800000E-01   1.00800           0   0.00000       0.00000    
      6960 MEOH     204      MEOH     H1B      HDA3B    0.800000E-01   1.00800           0   0.00000       0.00000    
      6961 MEOH     204      MEOH     H1C      HDA3B    0.800000E-01   1.00800           0   0.00000       0.00000    
      6962 MEOH     204      MEOH     LP1A     LPD     -0.230000       0.00000          -1   0.00000       0.00000    
      6963 MEOH     204      MEOH     LP1B     LPD     -0.230000       0.00000          -1   0.00000       0.00000    
      6964 MEOH     205      MEOH     C1       CD33B     2.31410       11.6110           0  -1.00000       1.30000    
      6965 MEOH     205      MEOH     DC1      DRUD     -2.45410      0.400000           0   0.00000       0.00000    
      6966 MEOH     205      MEOH     O1       OD31H     2.48830       15.5990           0  -1.02800       1.30000    
      6967 MEOH     205      MEOH     DO1      DRUD     -2.48830      0.400000           0   0.00000       0.00000    
      6968 MEOH     205      MEOH     HO1      HDP1A    0.360000       1.00800           0   0.00000       0.00000    
      6969 MEOH     205      MEOH     HO2      DUMH      0.00000       1.00800           0   0.00000       0.00000    
      6970 MEOH     205      MEOH     H1A      HDA3B    0.800000E-01   1.00800           0   0.00000       0.00000    
      6971 MEOH     205      MEOH     H1B      HDA3B    0.800000E-01   1.00800           0   0.00000       0.00000    
      6972 MEOH     205      MEOH     H1C      HDA3B    0.800000E-01   1.00800           0   0.00000       0.00000    
      6973 MEOH     205      MEOH     LP1A     LPD     -0.230000       0.00000          -1   0.00000       0.00000    
      6974 MEOH     205      MEOH     LP1B     LPD     -0.230000       0.00000          -1   0.00000       0.00000    
      6975 MEOH     206      MEOH     C1       CD33B     2.31410       11.6110           0  -1.00000       1.30000    
      6976 MEOH     206      MEOH     DC1      DRUD     -2.45410      0.400000           0   0.00000       0.00000    
      6977 MEOH     206      MEOH     O1       OD31H     2.48830       15.5990           0  -1.02800       1.30000    
      6978 MEOH     206      MEOH     DO1      DRUD     -2.48830      0.400000           0   0.00000       0.00000    
      6979 MEOH     206      MEOH     HO1      HDP1A    0.360000       1.00800           0   0.00000       0.00000    
      6980 MEOH     206      MEOH     HO2      DUMH      0.00000       1.00800           0   0.00000       0.00000    
      6981 MEOH     206      MEOH     H1A      HDA3B    0.800000E-01   1.00800           0   0.00000       0.00000    
      6982 MEOH     206      MEOH     H1B      HDA3B    0.800000E-01   1.00800           0   0.00000       0.00000    
      6983 MEOH     206      MEOH     H1C      HDA3B    0.800000E-01   1.00800           0   0.00000       0.00000    
      6984 MEOH     206      MEOH     LP1A     LPD     -0.230000       0.00000          -1   0.00000       0.00000    
      6985 MEOH     206      MEOH     LP1B     LPD     -0.230000       0.00000          -1   0.00000       0.00000    
      6986 MEOH     207      MEOH     C1       CD33B     2.31410       11.6110           0  -1.00000       1.30000    
      6987 MEOH     207      MEOH     DC1      DRUD     -2.45410      0.400000           0   0.00000       0.00000    
      6988 MEOH     207      MEOH     O1       OD31H     2.48830       15.5990           0  -1.02800       1.30000    
      6989 MEOH     207      MEOH     DO1      DRUD     -2.48830      0.400000           0   0.00000       0.00000    
      6990 MEOH     207      MEOH     HO1      HDP1A    0.360000       1.00800           0   0.00000       0.00000    
      6991 MEOH     207      MEOH     HO2      DUMH      0.00000       1.00800           0   0.00000       0.00000    
      6992 MEOH     207      MEOH     H1A      HDA3B    0.800000E-01   1.00800           0   0.00000       0.00000    
      6993 MEOH     207      MEOH     H1B      HDA3B    0.800000E-01   1.00800           0   0.00000       0.00000    
      6994 MEOH     207      MEOH     H1C      HDA3B    0.800000E-01   1.00800           0   0.00000       0.00000    
      6995 MEOH     207      MEOH     LP1A     LPD     -0.230000       0.00000          -1   0.00000       0.00000    
      6996 MEOH     207      MEOH     LP1B     LPD     -0.230000       0.00000          -1   0.00000       0.00000    
      6997 MEOH     208      MEOH     C1       CD33B     2.31410       11.6110           0  -1.00000       1.30000    
      6998 MEOH     208      MEOH     DC1      DRUD     -2.45410      0.400000           0   0.00000       0.00000    
      6999 MEOH     208      MEOH     O1       OD31H     2.48830       15.5990           0  -1.02800       1.30000    
      7000 MEOH     208      MEOH     DO1      DRUD     -2.48830      0.400000           0   0.00000       0.00000    
      7001 MEOH     208      MEOH     HO1      HDP1A    0.360000       1.00800           0   0.00000       0.00000    
      7002 MEOH     208      MEOH     HO2      DUMH      0.00000       1.00800           0   0.00000       0.00000    
      7003 MEOH     208      MEOH     H1A      HDA3B    0.800000E-01   1.00800           0   0.00000       0.00000    
      7004 MEOH     208      MEOH     H1B      HDA3B    0.800000E-01   1.00800           0   0.00000       0.00000    
      7005 MEOH     208      MEOH     H1C      HDA3B    0.800000E-01   1.00800           0   0.00000       0.00000    
      7006 MEOH     208      MEOH     LP1A     LPD     -0.230000       0.00000          -1   0.00000       0.00000    
      7007 MEOH     208      MEOH     LP1B     LPD     -0.230000       0.00000          -1   0.00000       0.00000    
      7008 MEOH     209      MEOH     C1       CD33B     2.31410       11.6110           0  -1.00000       1.30000    
      7009 MEOH     209      MEOH     DC1      DRUD     -2.45410      0.400000           0   0.00000       0.00000    
      7010 MEOH     209      MEOH     O1       OD31H     2.48830       15.5990           0  -1.02800       1.30000    
      7011 MEOH     209      MEOH     DO1      DRUD     -2.48830      0.400000           0   0.00000       0.00000    
      7012 MEOH     209      MEOH     HO1      HDP1A    0.360000       1.00800           0   0.00000       0.00000    
      7013 MEOH     209      MEOH     HO2      DUMH      0.00000       1.00800           0   0.00000       0.00000    
      7014 MEOH     209      MEOH     H1A      HDA3B    0.800000E-01   1.00800           0   0.00000       0.00000    
      7015 MEOH     209      MEOH     H1B      HDA3B    0.800000E-01   1.00800           0   0.00000       0.00000    
      7016 MEOH     209      MEOH     H1C      HDA3B    0.800000E-01   1.00800           0   0.00000       0.00000    
      7017 MEOH     209      MEOH     LP1A     LPD     -0.230000       0.00000          -1   0.00000       0.00000    
      7018 MEOH     209      MEOH     LP1B     LPD     -0.230000       0.00000          -1   0.00000       0.00000    
      7019 MEOH     210      MEOH     C1       CD33B     2.31410       11.6110           0  -1.00000       1.30000    
      7020 MEOH     210      MEOH     DC1      DRUD     -2.45410      0.400000           0   0.00000       0.00000    
      7021 MEOH     210      MEOH     O1       OD31H     2.48830       15.5990           0  -1.02800       1.30000    
      7022 MEOH     210      MEOH     DO1      DRUD     -2.48830      0.400000           0   0.00000       0.00000    
      7023 MEOH     210      MEOH     HO1      HDP1A    0.360000       1.00800           0   0.00000       0.00000    
      7024 MEOH     210      MEOH     HO2      DUMH      0.00000       1.00800           0   0.00000       0.00000    
      7025 MEOH     210      MEOH     H1A      HDA3B    0.800000E-01   1.00800           0   0.00000       0.00000    
      7026 MEOH     210      MEOH     H1B      HDA3B    0.800000E-01   1.00800           0   0.00000       0.00000    
      7027 MEOH     210      MEOH     H1C      HDA3B    0.800000E-01   1.00800           0   0.00000       0.00000    
      7028 MEOH     210      MEOH     LP1A     LPD     -0.230000       0.00000          -1   0.00000       0.00000    
      7029 MEOH     210      MEOH     LP1B     LPD     -0.230000       0.00000          -1   0.00000       0.00000    
      7030 MEOH     211      MEOH     C1       CD33B     2.31410       11.6110           0  -1.00000       1.30000    
      7031 MEOH     211      MEOH     DC1      DRUD     -2.45410      0.400000           0   0.00000       0.00000    
      7032 MEOH     211      MEOH     O1       OD31H     2.48830       15.5990           0  -1.02800       1.30000    
      7033 MEOH     211      MEOH     DO1      DRUD     -2.48830      0.400000           0   0.00000       0.00000    
      7034 MEOH     211      MEOH     HO1      HDP1A    0.360000       1.00800           0   0.00000       0.00000    
      7035 MEOH     211      MEOH     HO2      DUMH      0.00000       1.00800           0   0.00000       0.00000    
      7036 MEOH     211      MEOH     H1A      HDA3B    0.800000E-01   1.00800           0   0.00000       0.00000    
      7037 MEOH     211      MEOH     H1B      HDA3B    0.800000E-01   1.00800           0   0.00000       0.00000    
      7038 MEOH     211      MEOH     H1C      HDA3B    0.800000E-01   1.00800           0   0.00000       0.00000    
      7039 MEOH     211      MEOH     LP1A     LPD     -0.230000       0.00000          -1   0.00000       0.00000    
      7040 MEOH     211      MEOH     LP1B     LPD     -0.230000       0.00000          -1   0.00000       0.00000    
      7041 MEOH     212      MEOH     C1       CD33B     2.31410       11.6110           0  -1.00000       1.30000    
      7042 MEOH     212      MEOH     DC1      DRUD     -2.45410      0.400000           0   0.00000       0.00000    
      7043 MEOH     212      MEOH     O1       OD31H     2.48830       15.5990           0  -1.02800       1.30000    
      7044 MEOH     212      MEOH     DO1      DRUD     -2.48830      0.400000           0   0.00000       0.00000    
      7045 MEOH     212      MEOH     HO1      HDP1A    0.360000       1.00800           0   0.00000       0.00000    
      7046 MEOH     212      MEOH     HO2      DUMH      0.00000       1.00800           0   0.00000       0.00000    
      7047 MEOH     212      MEOH     H1A      HDA3B    0.800000E-01   1.00800           0   0.00000       0.00000    
      7048 MEOH     212      MEOH     H1B      HDA3B    0.800000E-01   1.00800           0   0.00000       0.00000    
      7049 MEOH     212      MEOH     H1C      HDA3B    0.800000E-01   1.00800           0   0.00000       0.00000    
      7050 MEOH     212      MEOH     LP1A     LPD     -0.230000       0.00000          -1   0.00000       0.00000    
      7051 MEOH     212      MEOH     LP1B     LPD     -0.230000       0.00000          -1   0.00000       0.00000    
      7052 MEOH     213      MEOH     C1       CD33B     2.31410       11.6110           0  -1.00000       1.30000    
      7053 MEOH     213      MEOH     DC1      DRUD     -2.45410      0.400000           0   0.00000       0.00000    
      7054 MEOH     213      MEOH     O1       OD31H     2.48830       15.5990           0  -1.02800       1.30000    
      7055 MEOH     213      MEOH     DO1      DRUD     -2.48830      0.400000           0   0.00000       0.00000    
      7056 MEOH     213      MEOH     HO1      HDP1A    0.360000       1.00800           0   0.00000       0.00000    
      7057 MEOH     213      MEOH     HO2      DUMH      0.00000       1.00800           0   0.00000       0.00000    
      7058 MEOH     213      MEOH     H1A      HDA3B    0.800000E-01   1.00800           0   0.00000       0.00000    
      7059 MEOH     213      MEOH     H1B      HDA3B    0.800000E-01   1.00800           0   0.00000       0.00000    
      7060 MEOH     213      MEOH     H1C      HDA3B    0.800000E-01   1.00800           0   0.00000       0.00000    
      7061 MEOH     213      MEOH     LP1A     LPD     -0.230000       0.00000          -1   0.00000       0.00000    
      7062 MEOH     213      MEOH     LP1B     LPD     -0.230000       0.00000          -1   0.00000       0.00000    
      7063 MEOH     214      MEOH     C1       CD33B     2.31410       11.6110           0  -1.00000       1.30000    
      7064 MEOH     214      MEOH     DC1      DRUD     -2.45410      0.400000           0   0.00000       0.00000    
      7065 MEOH     214      MEOH     O1       OD31H     2.48830       15.5990           0  -1.02800       1.30000    
      7066 MEOH     214      MEOH     DO1      DRUD     -2.48830      0.400000           0   0.00000       0.00000    
      7067 MEOH     214      MEOH     HO1      HDP1A    0.360000       1.00800           0   0.00000       0.00000    
      7068 MEOH     214      MEOH     HO2      DUMH      0.00000       1.00800           0   0.00000       0.00000    
      7069 MEOH     214      MEOH     H1A      HDA3B    0.800000E-01   1.00800           0   0.00000       0.00000    
      7070 MEOH     214      MEOH     H1B      HDA3B    0.800000E-01   1.00800           0   0.00000       0.00000    
      7071 MEOH     214      MEOH     H1C      HDA3B    0.800000E-01   1.00800           0   0.00000       0.00000    
      7072 MEOH     214      MEOH     LP1A     LPD     -0.230000       0.00000          -1   0.00000       0.00000    
      7073 MEOH     214      MEOH     LP1B     LPD     -0.230000       0.00000          -1   0.00000       0.00000    
      7074 MEOH     215      MEOH     C1       CD33B     2.31410       11.6110           0  -1.00000       1.30000    
      7075 MEOH     215      MEOH     DC1      DRUD     -2.45410      0.400000           0   0.00000       0.00000    
      7076 MEOH     215      MEOH     O1       OD31H     2.48830       15.5990           0  -1.02800       1.30000    
      7077 MEOH     215      MEOH     DO1      DRUD     -2.48830      0.400000           0   0.00000       0.00000    
      7078 MEOH     215      MEOH     HO1      HDP1A    0.360000       1.00800           0   0.00000       0.00000    
      7079 MEOH     215      MEOH     HO2      DUMH      0.00000       1.00800           0   0.00000       0.00000    
      7080 MEOH     215      MEOH     H1A      HDA3B    0.800000E-01   1.00800           0   0.00000       0.00000    
      7081 MEOH     215      MEOH     H1B      HDA3B    0.800000E-01   1.00800           0   0.00000       0.00000    
      7082 MEOH     215      MEOH     H1C      HDA3B    0.800000E-01   1.00800           0   0.00000       0.00000    
      7083 MEOH     215      MEOH     LP1A     LPD     -0.230000       0.00000          -1   0.00000       0.00000    
      7084 MEOH     215      MEOH     LP1B     LPD     -0.230000       0.00000          -1   0.00000       0.00000    
      7085 MEOH     216      MEOH     C1       CD33B     2.31410       11.6110           0  -1.00000       1.30000    
      7086 MEOH     216      MEOH     DC1      DRUD     -2.45410      0.400000           0   0.00000       0.00000    
      7087 MEOH     216      MEOH     O1       OD31H     2.48830       15.5990           0  -1.02800       1.30000    
      7088 MEOH     216      MEOH     DO1      DRUD     -2.48830      0.400000           0   0.00000       0.00000    
      7089 MEOH     216      MEOH     HO1      HDP1A    0.360000       1.00800           0   0.00000       0.00000    
      7090 MEOH     216      MEOH     HO2      DUMH      0.00000       1.00800           0   0.00000       0.00000    
      7091 MEOH     216      MEOH     H1A      HDA3B    0.800000E-01   1.00800           0   0.00000       0.00000    
      7092 MEOH     216      MEOH     H1B      HDA3B    0.800000E-01   1.00800           0   0.00000       0.00000    
      7093 MEOH     216      MEOH     H1C      HDA3B    0.800000E-01   1.00800           0   0.00000       0.00000    
      7094 MEOH     216      MEOH     LP1A     LPD     -0.230000       0.00000          -1   0.00000       0.00000    
      7095 MEOH     216      MEOH     LP1B     LPD     -0.230000       0.00000          -1   0.00000       0.00000    
      7096 MEOH     217      MEOH     C1       CD33B     2.31410       11.6110           0  -1.00000       1.30000    
      7097 MEOH     217      MEOH     DC1      DRUD     -2.45410      0.400000           0   0.00000       0.00000    
      7098 MEOH     217      MEOH     O1       OD31H     2.48830       15.5990           0  -1.02800       1.30000    
      7099 MEOH     217      MEOH     DO1      DRUD     -2.48830      0.400000           0   0.00000       0.00000    
      7100 MEOH     217      MEOH     HO1      HDP1A    0.360000       1.00800           0   0.00000       0.00000    
      7101 MEOH     217      MEOH     HO2      DUMH      0.00000       1.00800           0   0.00000       0.00000    
      7102 MEOH     217      MEOH     H1A      HDA3B    0.800000E-01   1.00800           0   0.00000       0.00000    
      7103 MEOH     217      MEOH     H1B      HDA3B    0.800000E-01   1.00800           0   0.00000       0.00000    
      7104 MEOH     217      MEOH     H1C      HDA3B    0.800000E-01   1.00800           0   0.00000       0.00000    
      7105 MEOH     217      MEOH     LP1A     LPD     -0.230000       0.00000          -1   0.00000       0.00000    
      7106 MEOH     217      MEOH     LP1B     LPD     -0.230000       0.00000          -1   0.00000       0.00000    
      7107 MEOH     218      MEOH     C1       CD33B     2.31410       11.6110           0  -1.00000       1.30000    
      7108 MEOH     218      MEOH     DC1      DRUD     -2.45410      0.400000           0   0.00000       0.00000    
      7109 MEOH     218      MEOH     O1       OD31H     2.48830       15.5990           0  -1.02800       1.30000    
      7110 MEOH     218      MEOH     DO1      DRUD     -2.48830      0.400000           0   0.00000       0.00000    
      7111 MEOH     218      MEOH     HO1      HDP1A    0.360000       1.00800           0   0.00000       0.00000    
      7112 MEOH     218      MEOH     HO2      DUMH      0.00000       1.00800           0   0.00000       0.00000    
      7113 MEOH     218      MEOH     H1A      HDA3B    0.800000E-01   1.00800           0   0.00000       0.00000    
      7114 MEOH     218      MEOH     H1B      HDA3B    0.800000E-01   1.00800           0   0.00000       0.00000    
      7115 MEOH     218      MEOH     H1C      HDA3B    0.800000E-01   1.00800           0   0.00000       0.00000    
      7116 MEOH     218      MEOH     LP1A     LPD     -0.230000       0.00000          -1   0.00000       0.00000    
      7117 MEOH     218      MEOH     LP1B     LPD     -0.230000       0.00000          -1   0.00000       0.00000    
      7118 MEOH     219      MEOH     C1       CD33B     2.31410       11.6110           0  -1.00000       1.30000    
      7119 MEOH     219      MEOH     DC1      DRUD     -2.45410      0.400000           0   0.00000       0.00000    
      7120 MEOH     219      MEOH     O1       OD31H     2.48830       15.5990           0  -1.02800       1.30000    
      7121 MEOH     219      MEOH     DO1      DRUD     -2.48830      0.400000           0   0.00000       0.00000    
      7122 MEOH     219      MEOH     HO1      HDP1A    0.360000       1.00800           0   0.00000       0.00000    
      7123 MEOH     219      MEOH     HO2      DUMH      0.00000       1.00800           0   0.00000       0.00000    
      7124 MEOH     219      MEOH     H1A      HDA3B    0.800000E-01   1.00800           0   0.00000       0.00000    
      7125 MEOH     219      MEOH     H1B      HDA3B    0.800000E-01   1.00800           0   0.00000       0.00000    
      7126 MEOH     219      MEOH     H1C      HDA3B    0.800000E-01   1.00800           0   0.00000       0.00000    
      7127 MEOH     219      MEOH     LP1A     LPD     -0.230000       0.00000          -1   0.00000       0.00000    
      7128 MEOH     219      MEOH     LP1B     LPD     -0.230000       0.00000          -1   0.00000       0.00000    
      7129 MEOH     220      MEOH     C1       CD33B     2.31410       11.6110           0  -1.00000       1.30000    
      7130 MEOH     220      MEOH     DC1      DRUD     -2.45410      0.400000           0   0.00000       0.00000    
      7131 MEOH     220      MEOH     O1       OD31H     2.48830       15.5990           0  -1.02800       1.30000    
      7132 MEOH     220      MEOH     DO1      DRUD     -2.48830      0.400000           0   0.00000       0.00000    
      7133 MEOH     220      MEOH     HO1      HDP1A    0.360000       1.00800           0   0.00000       0.00000    
      7134 MEOH     220      MEOH     HO2      DUMH      0.00000       1.00800           0   0.00000       0.00000    
      7135 MEOH     220      MEOH     H1A      HDA3B    0.800000E-01   1.00800           0   0.00000       0.00000    
      7136 MEOH     220      MEOH     H1B      HDA3B    0.800000E-01   1.00800           0   0.00000       0.00000    
      7137 MEOH     220      MEOH     H1C      HDA3B    0.800000E-01   1.00800           0   0.00000       0.00000    
      7138 MEOH     220      MEOH     LP1A     LPD     -0.230000       0.00000          -1   0.00000       0.00000    
      7139 MEOH     220      MEOH     LP1B     LPD     -0.230000       0.00000          -1   0.00000       0.00000    
      7140 MEOH     221      MEOH     C1       CD33B     2.31410       11.6110           0  -1.00000       1.30000    
      7141 MEOH     221      MEOH     DC1      DRUD     -2.45410      0.400000           0   0.00000       0.00000    
      7142 MEOH     221      MEOH     O1       OD31H     2.48830       15.5990           0  -1.02800       1.30000    
      7143 MEOH     221      MEOH     DO1      DRUD     -2.48830      0.400000           0   0.00000       0.00000    
      7144 MEOH     221      MEOH     HO1      HDP1A    0.360000       1.00800           0   0.00000       0.00000    
      7145 MEOH     221      MEOH     HO2      DUMH      0.00000       1.00800           0   0.00000       0.00000    
      7146 MEOH     221      MEOH     H1A      HDA3B    0.800000E-01   1.00800           0   0.00000       0.00000    
      7147 MEOH     221      MEOH     H1B      HDA3B    0.800000E-01   1.00800           0   0.00000       0.00000    
      7148 MEOH     221      MEOH     H1C      HDA3B    0.800000E-01   1.00800           0   0.00000       0.00000    
      7149 MEOH     221      MEOH     LP1A     LPD     -0.230000       0.00000          -1   0.00000       0.00000    
      7150 MEOH     221      MEOH     LP1B     LPD     -0.230000       0.00000          -1   0.00000       0.00000    
      7151 MEOH     222      MEOH     C1       CD33B     2.31410       11.6110           0  -1.00000       1.30000    
      7152 MEOH     222      MEOH     DC1      DRUD     -2.45410      0.400000           0   0.00000       0.00000    
      7153 MEOH     222      MEOH     O1       OD31H     2.48830       15.5990           0  -1.02800       1.30000    
      7154 MEOH     222      MEOH     DO1      DRUD     -2.48830      0.400000           0   0.00000       0.00000    
      7155 MEOH     222      MEOH     HO1      HDP1A    0.360000       1.00800           0   0.00000       0.00000    
      7156 MEOH     222      MEOH     HO2      DUMH      0.00000       1.00800           0   0.00000       0.00000    
      7157 MEOH     222      MEOH     H1A      HDA3B    0.800000E-01   1.00800           0   0.00000       0.00000    
      7158 MEOH     222      MEOH     H1B      HDA3B    0.800000E-01   1.00800           0   0.00000       0.00000    
      7159 MEOH     222      MEOH     H1C      HDA3B    0.800000E-01   1.00800           0   0.00000       0.00000    
      7160 MEOH     222      MEOH     LP1A     LPD     -0.230000       0.00000          -1   0.00000       0.00000    
      7161 MEOH     222      MEOH     LP1B     LPD     -0.230000       0.00000          -1   0.00000       0.00000    
      7162 MEOH     223      MEOH     C1       CD33B     2.31410       11.6110           0  -1.00000       1.30000    
      7163 MEOH     223      MEOH     DC1      DRUD     -2.45410      0.400000           0   0.00000       0.00000    
      7164 MEOH     223      MEOH     O1       OD31H     2.48830       15.5990           0  -1.02800       1.30000    
      7165 MEOH     223      MEOH     DO1      DRUD     -2.48830      0.400000           0   0.00000       0.00000    
      7166 MEOH     223      MEOH     HO1      HDP1A    0.360000       1.00800           0   0.00000       0.00000    
      7167 MEOH     223      MEOH     HO2      DUMH      0.00000       1.00800           0   0.00000       0.00000    
      7168 MEOH     223      MEOH     H1A      HDA3B    0.800000E-01   1.00800           0   0.00000       0.00000    
      7169 MEOH     223      MEOH     H1B      HDA3B    0.800000E-01   1.00800           0   0.00000       0.00000    
      7170 MEOH     223      MEOH     H1C      HDA3B    0.800000E-01   1.00800           0   0.00000       0.00000    
      7171 MEOH     223      MEOH     LP1A     LPD     -0.230000       0.00000          -1   0.00000       0.00000    
      7172 MEOH     223      MEOH     LP1B     LPD     -0.230000       0.00000          -1   0.00000       0.00000    
      7173 MEOH     224      MEOH     C1       CD33B     2.31410       11.6110           0  -1.00000       1.30000    
      7174 MEOH     224      MEOH     DC1      DRUD     -2.45410      0.400000           0   0.00000       0.00000    
      7175 MEOH     224      MEOH     O1       OD31H     2.48830       15.5990           0  -1.02800       1.30000    
      7176 MEOH     224      MEOH     DO1      DRUD     -2.48830      0.400000           0   0.00000       0.00000    
      7177 MEOH     224      MEOH     HO1      HDP1A    0.360000       1.00800           0   0.00000       0.00000    
      7178 MEOH     224      MEOH     HO2      DUMH      0.00000       1.00800           0   0.00000       0.00000    
      7179 MEOH     224      MEOH     H1A      HDA3B    0.800000E-01   1.00800           0   0.00000       0.00000    
      7180 MEOH     224      MEOH     H1B      HDA3B    0.800000E-01   1.00800           0   0.00000       0.00000    
      7181 MEOH     224      MEOH     H1C      HDA3B    0.800000E-01   1.00800           0   0.00000       0.00000    
      7182 MEOH     224      MEOH     LP1A     LPD     -0.230000       0.00000          -1   0.00000       0.00000    
      7183 MEOH     224      MEOH     LP1B     LPD     -0.230000       0.00000          -1   0.00000       0.00000    
      7184 MEOH     225      MEOH     C1       CD33B     2.31410       11.6110           0  -1.00000       1.30000    
      7185 MEOH     225      MEOH     DC1      DRUD     -2.45410      0.400000           0   0.00000       0.00000    
      7186 MEOH     225      MEOH     O1       OD31H     2.48830       15.5990           0  -1.02800       1.30000    
      7187 MEOH     225      MEOH     DO1      DRUD     -2.48830      0.400000           0   0.00000       0.00000    
      7188 MEOH     225      MEOH     HO1      HDP1A    0.360000       1.00800           0   0.00000       0.00000    
      7189 MEOH     225      MEOH     HO2      DUMH      0.00000       1.00800           0   0.00000       0.00000    
      7190 MEOH     225      MEOH     H1A      HDA3B    0.800000E-01   1.00800           0   0.00000       0.00000    
      7191 MEOH     225      MEOH     H1B      HDA3B    0.800000E-01   1.00800           0   0.00000       0.00000    
      7192 MEOH     225      MEOH     H1C      HDA3B    0.800000E-01   1.00800           0   0.00000       0.00000    
      7193 MEOH     225      MEOH     LP1A     LPD     -0.230000       0.00000          -1   0.00000       0.00000    
      7194 MEOH     225      MEOH     LP1B     LPD     -0.230000       0.00000          -1   0.00000       0.00000    
      7195 MEOH     226      MEOH     C1       CD33B     2.31410       11.6110           0  -1.00000       1.30000    
      7196 MEOH     226      MEOH     DC1      DRUD     -2.45410      0.400000           0   0.00000       0.00000    
      7197 MEOH     226      MEOH     O1       OD31H     2.48830       15.5990           0  -1.02800       1.30000    
      7198 MEOH     226      MEOH     DO1      DRUD     -2.48830      0.400000           0   0.00000       0.00000    
      7199 MEOH     226      MEOH     HO1      HDP1A    0.360000       1.00800           0   0.00000       0.00000    
      7200 MEOH     226      MEOH     HO2      DUMH      0.00000       1.00800           0   0.00000       0.00000    
      7201 MEOH     226      MEOH     H1A      HDA3B    0.800000E-01   1.00800           0   0.00000       0.00000    
      7202 MEOH     226      MEOH     H1B      HDA3B    0.800000E-01   1.00800           0   0.00000       0.00000    
      7203 MEOH     226      MEOH     H1C      HDA3B    0.800000E-01   1.00800           0   0.00000       0.00000    
      7204 MEOH     226      MEOH     LP1A     LPD     -0.230000       0.00000          -1   0.00000       0.00000    
      7205 MEOH     226      MEOH     LP1B     LPD     -0.230000       0.00000          -1   0.00000       0.00000    
      7206 MEOH     227      MEOH     C1       CD33B     2.31410       11.6110           0  -1.00000       1.30000    
      7207 MEOH     227      MEOH     DC1      DRUD     -2.45410      0.400000           0   0.00000       0.00000    
      7208 MEOH     227      MEOH     O1       OD31H     2.48830       15.5990           0  -1.02800       1.30000    
      7209 MEOH     227      MEOH     DO1      DRUD     -2.48830      0.400000           0   0.00000       0.00000    
      7210 MEOH     227      MEOH     HO1      HDP1A    0.360000       1.00800           0   0.00000       0.00000    
      7211 MEOH     227      MEOH     HO2      DUMH      0.00000       1.00800           0   0.00000       0.00000    
      7212 MEOH     227      MEOH     H1A      HDA3B    0.800000E-01   1.00800           0   0.00000       0.00000    
      7213 MEOH     227      MEOH     H1B      HDA3B    0.800000E-01   1.00800           0   0.00000       0.00000    
      7214 MEOH     227      MEOH     H1C      HDA3B    0.800000E-01   1.00800           0   0.00000       0.00000    
      7215 MEOH     227      MEOH     LP1A     LPD     -0.230000       0.00000          -1   0.00000       0.00000    
      7216 MEOH     227      MEOH     LP1B     LPD     -0.230000       0.00000          -1   0.00000       0.00000    
      7217 MEOH     228      MEOH     C1       CD33B     2.31410       11.6110           0  -1.00000       1.30000    
      7218 MEOH     228      MEOH     DC1      DRUD     -2.45410      0.400000           0   0.00000       0.00000    
      7219 MEOH     228      MEOH     O1       OD31H     2.48830       15.5990           0  -1.02800       1.30000    
      7220 MEOH     228      MEOH     DO1      DRUD     -2.48830      0.400000           0   0.00000       0.00000    
      7221 MEOH     228      MEOH     HO1      HDP1A    0.360000       1.00800           0   0.00000       0.00000    
      7222 MEOH     228      MEOH     HO2      DUMH      0.00000       1.00800           0   0.00000       0.00000    
      7223 MEOH     228      MEOH     H1A      HDA3B    0.800000E-01   1.00800           0   0.00000       0.00000    
      7224 MEOH     228      MEOH     H1B      HDA3B    0.800000E-01   1.00800           0   0.00000       0.00000    
      7225 MEOH     228      MEOH     H1C      HDA3B    0.800000E-01   1.00800           0   0.00000       0.00000    
      7226 MEOH     228      MEOH     LP1A     LPD     -0.230000       0.00000          -1   0.00000       0.00000    
      7227 MEOH     228      MEOH     LP1B     LPD     -0.230000       0.00000          -1   0.00000       0.00000    
      7228 MEOH     229      MEOH     C1       CD33B     2.31410       11.6110           0  -1.00000       1.30000    
      7229 MEOH     229      MEOH     DC1      DRUD     -2.45410      0.400000           0   0.00000       0.00000    
      7230 MEOH     229      MEOH     O1       OD31H     2.48830       15.5990           0  -1.02800       1.30000    
      7231 MEOH     229      MEOH     DO1      DRUD     -2.48830      0.400000           0   0.00000       0.00000    
      7232 MEOH     229      MEOH     HO1      HDP1A    0.360000       1.00800           0   0.00000       0.00000    
      7233 MEOH     229      MEOH     HO2      DUMH      0.00000       1.00800           0   0.00000       0.00000    
      7234 MEOH     229      MEOH     H1A      HDA3B    0.800000E-01   1.00800           0   0.00000       0.00000    
      7235 MEOH     229      MEOH     H1B      HDA3B    0.800000E-01   1.00800           0   0.00000       0.00000    
      7236 MEOH     229      MEOH     H1C      HDA3B    0.800000E-01   1.00800           0   0.00000       0.00000    
      7237 MEOH     229      MEOH     LP1A     LPD     -0.230000       0.00000          -1   0.00000       0.00000    
      7238 MEOH     229      MEOH     LP1B     LPD     -0.230000       0.00000          -1   0.00000       0.00000    
      7239 MEOH     230      MEOH     C1       CD33B     2.31410       11.6110           0  -1.00000       1.30000    
      7240 MEOH     230      MEOH     DC1      DRUD     -2.45410      0.400000           0   0.00000       0.00000    
      7241 MEOH     230      MEOH     O1       OD31H     2.48830       15.5990           0  -1.02800       1.30000    
      7242 MEOH     230      MEOH     DO1      DRUD     -2.48830      0.400000           0   0.00000       0.00000    
      7243 MEOH     230      MEOH     HO1      HDP1A    0.360000       1.00800           0   0.00000       0.00000    
      7244 MEOH     230      MEOH     HO2      DUMH      0.00000       1.00800           0   0.00000       0.00000    
      7245 MEOH     230      MEOH     H1A      HDA3B    0.800000E-01   1.00800           0   0.00000       0.00000    
      7246 MEOH     230      MEOH     H1B      HDA3B    0.800000E-01   1.00800           0   0.00000       0.00000    
      7247 MEOH     230      MEOH     H1C      HDA3B    0.800000E-01   1.00800           0   0.00000       0.00000    
      7248 MEOH     230      MEOH     LP1A     LPD     -0.230000       0.00000          -1   0.00000       0.00000    
      7249 MEOH     230      MEOH     LP1B     LPD     -0.230000       0.00000          -1   0.00000       0.00000    
      7250 MEOH     231      MEOH     C1       CD33B     2.31410       11.6110           0  -1.00000       1.30000    
      7251 MEOH     231      MEOH     DC1      DRUD     -2.45410      0.400000           0   0.00000       0.00000    
      7252 MEOH     231      MEOH     O1       OD31H     2.48830       15.5990           0  -1.02800       1.30000    
      7253 MEOH     231      MEOH     DO1      DRUD     -2.48830      0.400000           0   0.00000       0.00000    
      7254 MEOH     231      MEOH     HO1      HDP1A    0.360000       1.00800           0   0.00000       0.00000    
      7255 MEOH     231      MEOH     HO2      DUMH      0.00000       1.00800           0   0.00000       0.00000    
      7256 MEOH     231      MEOH     H1A      HDA3B    0.800000E-01   1.00800           0   0.00000       0.00000    
      7257 MEOH     231      MEOH     H1B      HDA3B    0.800000E-01   1.00800           0   0.00000       0.00000    
      7258 MEOH     231      MEOH     H1C      HDA3B    0.800000E-01   1.00800           0   0.00000       0.00000    
      7259 MEOH     231      MEOH     LP1A     LPD     -0.230000       0.00000          -1   0.00000       0.00000    
      7260 MEOH     231      MEOH     LP1B     LPD     -0.230000       0.00000          -1   0.00000       0.00000    
      7261 MEOH     232      MEOH     C1       CD33B     2.31410       11.6110           0  -1.00000       1.30000    
      7262 MEOH     232      MEOH     DC1      DRUD     -2.45410      0.400000           0   0.00000       0.00000    
      7263 MEOH     232      MEOH     O1       OD31H     2.48830       15.5990           0  -1.02800       1.30000    
      7264 MEOH     232      MEOH     DO1      DRUD     -2.48830      0.400000           0   0.00000       0.00000    
      7265 MEOH     232      MEOH     HO1      HDP1A    0.360000       1.00800           0   0.00000       0.00000    
      7266 MEOH     232      MEOH     HO2      DUMH      0.00000       1.00800           0   0.00000       0.00000    
      7267 MEOH     232      MEOH     H1A      HDA3B    0.800000E-01   1.00800           0   0.00000       0.00000    
      7268 MEOH     232      MEOH     H1B      HDA3B    0.800000E-01   1.00800           0   0.00000       0.00000    
      7269 MEOH     232      MEOH     H1C      HDA3B    0.800000E-01   1.00800           0   0.00000       0.00000    
      7270 MEOH     232      MEOH     LP1A     LPD     -0.230000       0.00000          -1   0.00000       0.00000    
      7271 MEOH     232      MEOH     LP1B     LPD     -0.230000       0.00000          -1   0.00000       0.00000    
      7272 MEOH     233      MEOH     C1       CD33B     2.31410       11.6110           0  -1.00000       1.30000    
      7273 MEOH     233      MEOH     DC1      DRUD     -2.45410      0.400000           0   0.00000       0.00000    
      7274 MEOH     233      MEOH     O1       OD31H     2.48830       15.5990           0  -1.02800       1.30000    
      7275 MEOH     233      MEOH     DO1      DRUD     -2.48830      0.400000           0   0.00000       0.00000    
      7276 MEOH     233      MEOH     HO1      HDP1A    0.360000       1.00800           0   0.00000       0.00000    
      7277 MEOH     233      MEOH     HO2      DUMH      0.00000       1.00800           0   0.00000       0.00000    
      7278 MEOH     233      MEOH     H1A      HDA3B    0.800000E-01   1.00800           0   0.00000       0.00000    
      7279 MEOH     233      MEOH     H1B      HDA3B    0.800000E-01   1.00800           0   0.00000       0.00000    
      7280 MEOH     233      MEOH     H1C      HDA3B    0.800000E-01   1.00800           0   0.00000       0.00000    
      7281 MEOH     233      MEOH     LP1A     LPD     -0.230000       0.00000          -1   0.00000       0.00000    
      7282 MEOH     233      MEOH     LP1B     LPD     -0.230000       0.00000          -1   0.00000       0.00000    
      7283 MEOH     234      MEOH     C1       CD33B     2.31410       11.6110           0  -1.00000       1.30000    
      7284 MEOH     234      MEOH     DC1      DRUD     -2.45410      0.400000           0   0.00000       0.00000    
      7285 MEOH     234      MEOH     O1       OD31H     2.48830       15.5990           0  -1.02800       1.30000    
      7286 MEOH     234      MEOH     DO1      DRUD     -2.48830      0.400000           0   0.00000       0.00000    
      7287 MEOH     234      MEOH     HO1      HDP1A    0.360000       1.00800           0   0.00000       0.00000    
      7288 MEOH     234      MEOH     HO2      DUMH      0.00000       1.00800           0   0.00000       0.00000    
      7289 MEOH     234      MEOH     H1A      HDA3B    0.800000E-01   1.00800           0   0.00000       0.00000    
      7290 MEOH     234      MEOH     H1B      HDA3B    0.800000E-01   1.00800           0   0.00000       0.00000    
      7291 MEOH     234      MEOH     H1C      HDA3B    0.800000E-01   1.00800           0   0.00000       0.00000    
      7292 MEOH     234      MEOH     LP1A     LPD     -0.230000       0.00000          -1   0.00000       0.00000    
      7293 MEOH     234      MEOH     LP1B     LPD     -0.230000       0.00000          -1   0.00000       0.00000    
      7294 MEOH     235      MEOH     C1       CD33B     2.31410       11.6110           0  -1.00000       1.30000    
      7295 MEOH     235      MEOH     DC1      DRUD     -2.45410      0.400000           0   0.00000       0.00000    
      7296 MEOH     235      MEOH     O1       OD31H     2.48830       15.5990           0  -1.02800       1.30000    
      7297 MEOH     235      MEOH     DO1      DRUD     -2.48830      0.400000           0   0.00000       0.00000    
      7298 MEOH     235      MEOH     HO1      HDP1A    0.360000       1.00800           0   0.00000       0.00000    
      7299 MEOH     235      MEOH     HO2      DUMH      0.00000       1.00800           0   0.00000       0.00000    
      7300 MEOH     235      MEOH     H1A      HDA3B    0.800000E-01   1.00800           0   0.00000       0.00000    
      7301 MEOH     235      MEOH     H1B      HDA3B    0.800000E-01   1.00800           0   0.00000       0.00000    
      7302 MEOH     235      MEOH     H1C      HDA3B    0.800000E-01   1.00800           0   0.00000       0.00000    
      7303 MEOH     235      MEOH     LP1A     LPD     -0.230000       0.00000          -1   0.00000       0.00000    
      7304 MEOH     235      MEOH     LP1B     LPD     -0.230000       0.00000          -1   0.00000       0.00000    
      7305 MEOH     236      MEOH     C1       CD33B     2.31410       11.6110           0  -1.00000       1.30000    
      7306 MEOH     236      MEOH     DC1      DRUD     -2.45410      0.400000           0   0.00000       0.00000    
      7307 MEOH     236      MEOH     O1       OD31H     2.48830       15.5990           0  -1.02800       1.30000    
      7308 MEOH     236      MEOH     DO1      DRUD     -2.48830      0.400000           0   0.00000       0.00000    
      7309 MEOH     236      MEOH     HO1      HDP1A    0.360000       1.00800           0   0.00000       0.00000    
      7310 MEOH     236      MEOH     HO2      DUMH      0.00000       1.00800           0   0.00000       0.00000    
      7311 MEOH     236      MEOH     H1A      HDA3B    0.800000E-01   1.00800           0   0.00000       0.00000    
      7312 MEOH     236      MEOH     H1B      HDA3B    0.800000E-01   1.00800           0   0.00000       0.00000    
      7313 MEOH     236      MEOH     H1C      HDA3B    0.800000E-01   1.00800           0   0.00000       0.00000    
      7314 MEOH     236      MEOH     LP1A     LPD     -0.230000       0.00000          -1   0.00000       0.00000    
      7315 MEOH     236      MEOH     LP1B     LPD     -0.230000       0.00000          -1   0.00000       0.00000    
      7316 MEOH     237      MEOH     C1       CD33B     2.31410       11.6110           0  -1.00000       1.30000    
      7317 MEOH     237      MEOH     DC1      DRUD     -2.45410      0.400000           0   0.00000       0.00000    
      7318 MEOH     237      MEOH     O1       OD31H     2.48830       15.5990           0  -1.02800       1.30000    
      7319 MEOH     237      MEOH     DO1      DRUD     -2.48830      0.400000           0   0.00000       0.00000    
      7320 MEOH     237      MEOH     HO1      HDP1A    0.360000       1.00800           0   0.00000       0.00000    
      7321 MEOH     237      MEOH     HO2      DUMH      0.00000       1.00800           0   0.00000       0.00000    
      7322 MEOH     237      MEOH     H1A      HDA3B    0.800000E-01   1.00800           0   0.00000       0.00000    
      7323 MEOH     237      MEOH     H1B      HDA3B    0.800000E-01   1.00800           0   0.00000       0.00000    
      7324 MEOH     237      MEOH     H1C      HDA3B    0.800000E-01   1.00800           0   0.00000       0.00000    
      7325 MEOH     237      MEOH     LP1A     LPD     -0.230000       0.00000          -1   0.00000       0.00000    
      7326 MEOH     237      MEOH     LP1B     LPD     -0.230000       0.00000          -1   0.00000       0.00000    
      7327 MEOH     238      MEOH     C1       CD33B     2.31410       11.6110           0  -1.00000       1.30000    
      7328 MEOH     238      MEOH     DC1      DRUD     -2.45410      0.400000           0   0.00000       0.00000    
      7329 MEOH     238      MEOH     O1       OD31H     2.48830       15.5990           0  -1.02800       1.30000    
      7330 MEOH     238      MEOH     DO1      DRUD     -2.48830      0.400000           0   0.00000       0.00000    
      7331 MEOH     238      MEOH     HO1      HDP1A    0.360000       1.00800           0   0.00000       0.00000    
      7332 MEOH     238      MEOH     HO2      DUMH      0.00000       1.00800           0   0.00000       0.00000    
      7333 MEOH     238      MEOH     H1A      HDA3B    0.800000E-01   1.00800           0   0.00000       0.00000    
      7334 MEOH     238      MEOH     H1B      HDA3B    0.800000E-01   1.00800           0   0.00000       0.00000    
      7335 MEOH     238      MEOH     H1C      HDA3B    0.800000E-01   1.00800           0   0.00000       0.00000    
      7336 MEOH     238      MEOH     LP1A     LPD     -0.230000       0.00000          -1   0.00000       0.00000    
      7337 MEOH     238      MEOH     LP1B     LPD     -0.230000       0.00000          -1   0.00000       0.00000    
      7338 MEOH     239      MEOH     C1       CD33B     2.31410       11.6110           0  -1.00000       1.30000    
      7339 MEOH     239      MEOH     DC1      DRUD     -2.45410      0.400000           0   0.00000       0.00000    
      7340 MEOH     239      MEOH     O1       OD31H     2.48830       15.5990           0  -1.02800       1.30000    
      7341 MEOH     239      MEOH     DO1      DRUD     -2.48830      0.400000           0   0.00000       0.00000    
      7342 MEOH     239      MEOH     HO1      HDP1A    0.360000       1.00800           0   0.00000       0.00000    
      7343 MEOH     239      MEOH     HO2      DUMH      0.00000       1.00800           0   0.00000       0.00000    
      7344 MEOH     239      MEOH     H1A      HDA3B    0.800000E-01   1.00800           0   0.00000       0.00000    
      7345 MEOH     239      MEOH     H1B      HDA3B    0.800000E-01   1.00800           0   0.00000       0.00000    
      7346 MEOH     239      MEOH     H1C      HDA3B    0.800000E-01   1.00800           0   0.00000       0.00000    
      7347 MEOH     239      MEOH     LP1A     LPD     -0.230000       0.00000          -1   0.00000       0.00000    
      7348 MEOH     239      MEOH     LP1B     LPD     -0.230000       0.00000          -1   0.00000       0.00000    
      7349 MEOH     240      MEOH     C1       CD33B     2.31410       11.6110           0  -1.00000       1.30000    
      7350 MEOH     240      MEOH     DC1      DRUD     -2.45410      0.400000           0   0.00000       0.00000    
      7351 MEOH     240      MEOH     O1       OD31H     2.48830       15.5990           0  -1.02800       1.30000    
      7352 MEOH     240      MEOH     DO1      DRUD     -2.48830      0.400000           0   0.00000       0.00000    
      7353 MEOH     240      MEOH     HO1      HDP1A    0.360000       1.00800           0   0.00000       0.00000    
      7354 MEOH     240      MEOH     HO2      DUMH      0.00000       1.00800           0   0.00000       0.00000    
      7355 MEOH     240      MEOH     H1A      HDA3B    0.800000E-01   1.00800           0   0.00000       0.00000    
      7356 MEOH     240      MEOH     H1B      HDA3B    0.800000E-01   1.00800           0   0.00000       0.00000    
      7357 MEOH     240      MEOH     H1C      HDA3B    0.800000E-01   1.00800           0   0.00000       0.00000    
      7358 MEOH     240      MEOH     LP1A     LPD     -0.230000       0.00000          -1   0.00000       0.00000    
      7359 MEOH     240      MEOH     LP1B     LPD     -0.230000       0.00000          -1   0.00000       0.00000    
      7360 MEOH     241      MEOH     C1       CD33B     2.31410       11.6110           0  -1.00000       1.30000    
      7361 MEOH     241      MEOH     DC1      DRUD     -2.45410      0.400000           0   0.00000       0.00000    
      7362 MEOH     241      MEOH     O1       OD31H     2.48830       15.5990           0  -1.02800       1.30000    
      7363 MEOH     241      MEOH     DO1      DRUD     -2.48830      0.400000           0   0.00000       0.00000    
      7364 MEOH     241      MEOH     HO1      HDP1A    0.360000       1.00800           0   0.00000       0.00000    
      7365 MEOH     241      MEOH     HO2      DUMH      0.00000       1.00800           0   0.00000       0.00000    
      7366 MEOH     241      MEOH     H1A      HDA3B    0.800000E-01   1.00800           0   0.00000       0.00000    
      7367 MEOH     241      MEOH     H1B      HDA3B    0.800000E-01   1.00800           0   0.00000       0.00000    
      7368 MEOH     241      MEOH     H1C      HDA3B    0.800000E-01   1.00800           0   0.00000       0.00000    
      7369 MEOH     241      MEOH     LP1A     LPD     -0.230000       0.00000          -1   0.00000       0.00000    
      7370 MEOH     241      MEOH     LP1B     LPD     -0.230000       0.00000          -1   0.00000       0.00000    
      7371 MEOH     242      MEOH     C1       CD33B     2.31410       11.6110           0  -1.00000       1.30000    
      7372 MEOH     242      MEOH     DC1      DRUD     -2.45410      0.400000           0   0.00000       0.00000    
      7373 MEOH     242      MEOH     O1       OD31H     2.48830       15.5990           0  -1.02800       1.30000    
      7374 MEOH     242      MEOH     DO1      DRUD     -2.48830      0.400000           0   0.00000       0.00000    
      7375 MEOH     242      MEOH     HO1      HDP1A    0.360000       1.00800           0   0.00000       0.00000    
      7376 MEOH     242      MEOH     HO2      DUMH      0.00000       1.00800           0   0.00000       0.00000    
      7377 MEOH     242      MEOH     H1A      HDA3B    0.800000E-01   1.00800           0   0.00000       0.00000    
      7378 MEOH     242      MEOH     H1B      HDA3B    0.800000E-01   1.00800           0   0.00000       0.00000    
      7379 MEOH     242      MEOH     H1C      HDA3B    0.800000E-01   1.00800           0   0.00000       0.00000    
      7380 MEOH     242      MEOH     LP1A     LPD     -0.230000       0.00000          -1   0.00000       0.00000    
      7381 MEOH     242      MEOH     LP1B     LPD     -0.230000       0.00000          -1   0.00000       0.00000    
      7382 MEOH     243      MEOH     C1       CD33B     2.31410       11.6110           0  -1.00000       1.30000    
      7383 MEOH     243      MEOH     DC1      DRUD     -2.45410      0.400000           0   0.00000       0.00000    
      7384 MEOH     243      MEOH     O1       OD31H     2.48830       15.5990           0  -1.02800       1.30000    
      7385 MEOH     243      MEOH     DO1      DRUD     -2.48830      0.400000           0   0.00000       0.00000    
      7386 MEOH     243      MEOH     HO1      HDP1A    0.360000       1.00800           0   0.00000       0.00000    
      7387 MEOH     243      MEOH     HO2      DUMH      0.00000       1.00800           0   0.00000       0.00000    
      7388 MEOH     243      MEOH     H1A      HDA3B    0.800000E-01   1.00800           0   0.00000       0.00000    
      7389 MEOH     243      MEOH     H1B      HDA3B    0.800000E-01   1.00800           0   0.00000       0.00000    
      7390 MEOH     243      MEOH     H1C      HDA3B    0.800000E-01   1.00800           0   0.00000       0.00000    
      7391 MEOH     243      MEOH     LP1A     LPD     -0.230000       0.00000          -1   0.00000       0.00000    
      7392 MEOH     243      MEOH     LP1B     LPD     -0.230000       0.00000          -1   0.00000       0.00000    
      7393 MEOH     244      MEOH     C1       CD33B     2.31410       11.6110           0  -1.00000       1.30000    
      7394 MEOH     244      MEOH     DC1      DRUD     -2.45410      0.400000           0   0.00000       0.00000    
      7395 MEOH     244      MEOH     O1       OD31H     2.48830       15.5990           0  -1.02800       1.30000    
      7396 MEOH     244      MEOH     DO1      DRUD     -2.48830      0.400000           0   0.00000       0.00000    
      7397 MEOH     244      MEOH     HO1      HDP1A    0.360000       1.00800           0   0.00000       0.00000    
      7398 MEOH     244      MEOH     HO2      DUMH      0.00000       1.00800           0   0.00000       0.00000    
      7399 MEOH     244      MEOH     H1A      HDA3B    0.800000E-01   1.00800           0   0.00000       0.00000    
      7400 MEOH     244      MEOH     H1B      HDA3B    0.800000E-01   1.00800           0   0.00000       0.00000    
      7401 MEOH     244      MEOH     H1C      HDA3B    0.800000E-01   1.00800           0   0.00000       0.00000    
      7402 MEOH     244      MEOH     LP1A     LPD     -0.230000       0.00000          -1   0.00000       0.00000    
      7403 MEOH     244      MEOH     LP1B     LPD     -0.230000       0.00000          -1   0.00000       0.00000    
      7404 MEOH     245      MEOH     C1       CD33B     2.31410       11.6110           0  -1.00000       1.30000    
      7405 MEOH     245      MEOH     DC1      DRUD     -2.45410      0.400000           0   0.00000       0.00000    
      7406 MEOH     245      MEOH     O1       OD31H     2.48830       15.5990           0  -1.02800       1.30000    
      7407 MEOH     245      MEOH     DO1      DRUD     -2.48830      0.400000           0   0.00000       0.00000    
      7408 MEOH     245      MEOH     HO1      HDP1A    0.360000       1.00800           0   0.00000       0.00000    
      7409 MEOH     245      MEOH     HO2      DUMH      0.00000       1.00800           0   0.00000       0.00000    
      7410 MEOH     245      MEOH     H1A      HDA3B    0.800000E-01   1.00800           0   0.00000       0.00000    
      7411 MEOH     245      MEOH     H1B      HDA3B    0.800000E-01   1.00800           0   0.00000       0.00000    
      7412 MEOH     245      MEOH     H1C      HDA3B    0.800000E-01   1.00800           0   0.00000       0.00000    
      7413 MEOH     245      MEOH     LP1A     LPD     -0.230000       0.00000          -1   0.00000       0.00000    
      7414 MEOH     245      MEOH     LP1B     LPD     -0.230000       0.00000          -1   0.00000       0.00000    
      7415 MEOH     246      MEOH     C1       CD33B     2.31410       11.6110           0  -1.00000       1.30000    
      7416 MEOH     246      MEOH     DC1      DRUD     -2.45410      0.400000           0   0.00000       0.00000    
      7417 MEOH     246      MEOH     O1       OD31H     2.48830       15.5990           0  -1.02800       1.30000    
      7418 MEOH     246      MEOH     DO1      DRUD     -2.48830      0.400000           0   0.00000       0.00000    
      7419 MEOH     246      MEOH     HO1      HDP1A    0.360000       1.00800           0   0.00000       0.00000    
      7420 MEOH     246      MEOH     HO2      DUMH      0.00000       1.00800           0   0.00000       0.00000    
      7421 MEOH     246      MEOH     H1A      HDA3B    0.800000E-01   1.00800           0   0.00000       0.00000    
      7422 MEOH     246      MEOH     H1B      HDA3B    0.800000E-01   1.00800           0   0.00000       0.00000    
      7423 MEOH     246      MEOH     H1C      HDA3B    0.800000E-01   1.00800           0   0.00000       0.00000    
      7424 MEOH     246      MEOH     LP1A     LPD     -0.230000       0.00000          -1   0.00000       0.00000    
      7425 MEOH     246      MEOH     LP1B     LPD     -0.230000       0.00000          -1   0.00000       0.00000    
      7426 MEOH     247      MEOH     C1       CD33B     2.31410       11.6110           0  -1.00000       1.30000    
      7427 MEOH     247      MEOH     DC1      DRUD     -2.45410      0.400000           0   0.00000       0.00000    
      7428 MEOH     247      MEOH     O1       OD31H     2.48830       15.5990           0  -1.02800       1.30000    
      7429 MEOH     247      MEOH     DO1      DRUD     -2.48830      0.400000           0   0.00000       0.00000    
      7430 MEOH     247      MEOH     HO1      HDP1A    0.360000       1.00800           0   0.00000       0.00000    
      7431 MEOH     247      MEOH     HO2      DUMH      0.00000       1.00800           0   0.00000       0.00000    
      7432 MEOH     247      MEOH     H1A      HDA3B    0.800000E-01   1.00800           0   0.00000       0.00000    
      7433 MEOH     247      MEOH     H1B      HDA3B    0.800000E-01   1.00800           0   0.00000       0.00000    
      7434 MEOH     247      MEOH     H1C      HDA3B    0.800000E-01   1.00800           0   0.00000       0.00000    
      7435 MEOH     247      MEOH     LP1A     LPD     -0.230000       0.00000          -1   0.00000       0.00000    
      7436 MEOH     247      MEOH     LP1B     LPD     -0.230000       0.00000          -1   0.00000       0.00000    
      7437 MEOH     248      MEOH     C1       CD33B     2.31410       11.6110           0  -1.00000       1.30000    
      7438 MEOH     248      MEOH     DC1      DRUD     -2.45410      0.400000           0   0.00000       0.00000    
      7439 MEOH     248      MEOH     O1       OD31H     2.48830       15.5990           0  -1.02800       1.30000    
      7440 MEOH     248      MEOH     DO1      DRUD     -2.48830      0.400000           0   0.00000       0.00000    
      7441 MEOH     248      MEOH     HO1      HDP1A    0.360000       1.00800           0   0.00000       0.00000    
      7442 MEOH     248      MEOH     HO2      DUMH      0.00000       1.00800           0   0.00000       0.00000    
      7443 MEOH     248      MEOH     H1A      HDA3B    0.800000E-01   1.00800           0   0.00000       0.00000    
      7444 MEOH     248      MEOH     H1B      HDA3B    0.800000E-01   1.00800           0   0.00000       0.00000    
      7445 MEOH     248      MEOH     H1C      HDA3B    0.800000E-01   1.00800           0   0.00000       0.00000    
      7446 MEOH     248      MEOH     LP1A     LPD     -0.230000       0.00000          -1   0.00000       0.00000    
      7447 MEOH     248      MEOH     LP1B     LPD     -0.230000       0.00000          -1   0.00000       0.00000    
      7448 MEOH     249      MEOH     C1       CD33B     2.31410       11.6110           0  -1.00000       1.30000    
      7449 MEOH     249      MEOH     DC1      DRUD     -2.45410      0.400000           0   0.00000       0.00000    
      7450 MEOH     249      MEOH     O1       OD31H     2.48830       15.5990           0  -1.02800       1.30000    
      7451 MEOH     249      MEOH     DO1      DRUD     -2.48830      0.400000           0   0.00000       0.00000    
      7452 MEOH     249      MEOH     HO1      HDP1A    0.360000       1.00800           0   0.00000       0.00000    
      7453 MEOH     249      MEOH     HO2      DUMH      0.00000       1.00800           0   0.00000       0.00000    
      7454 MEOH     249      MEOH     H1A      HDA3B    0.800000E-01   1.00800           0   0.00000       0.00000    
      7455 MEOH     249      MEOH     H1B      HDA3B    0.800000E-01   1.00800           0   0.00000       0.00000    
      7456 MEOH     249      MEOH     H1C      HDA3B    0.800000E-01   1.00800           0   0.00000       0.00000    
      7457 MEOH     249      MEOH     LP1A     LPD     -0.230000       0.00000          -1   0.00000       0.00000    
      7458 MEOH     249      MEOH     LP1B     LPD     -0.230000       0.00000          -1   0.00000       0.00000    
      7459 MEOH     250      MEOH     C1       CD33B     2.31410       11.6110           0  -1.00000       1.30000    
      7460 MEOH     250      MEOH     DC1      DRUD     -2.45410      0.400000           0   0.00000       0.00000    
      7461 MEOH     250      MEOH     O1       OD31H     2.48830       15.5990           0  -1.02800       1.30000    
      7462 MEOH     250      MEOH     DO1      DRUD     -2.48830      0.400000           0   0.00000       0.00000    
      7463 MEOH     250      MEOH     HO1      HDP1A    0.360000       1.00800           0   0.00000       0.00000    
      7464 MEOH     250      MEOH     HO2      DUMH      0.00000       1.00800           0   0.00000       0.00000    
      7465 MEOH     250      MEOH     H1A      HDA3B    0.800000E-01   1.00800           0   0.00000       0.00000    
      7466 MEOH     250      MEOH     H1B      HDA3B    0.800000E-01   1.00800           0   0.00000       0.00000    
      7467 MEOH     250      MEOH     H1C      HDA3B    0.800000E-01   1.00800           0   0.00000       0.00000    
      7468 MEOH     250      MEOH     LP1A     LPD     -0.230000       0.00000          -1   0.00000       0.00000    
      7469 MEOH     250      MEOH     LP1B     LPD     -0.230000       0.00000          -1   0.00000       0.00000    
      7470 MEOH     251      MEOH     C1       CD33B     2.31410       11.6110           0  -1.00000       1.30000    
      7471 MEOH     251      MEOH     DC1      DRUD     -2.45410      0.400000           0   0.00000       0.00000    
      7472 MEOH     251      MEOH     O1       OD31H     2.48830       15.5990           0  -1.02800       1.30000    
      7473 MEOH     251      MEOH     DO1      DRUD     -2.48830      0.400000           0   0.00000       0.00000    
      7474 MEOH     251      MEOH     HO1      HDP1A    0.360000       1.00800           0   0.00000       0.00000    
      7475 MEOH     251      MEOH     HO2      DUMH      0.00000       1.00800           0   0.00000       0.00000    
      7476 MEOH     251      MEOH     H1A      HDA3B    0.800000E-01   1.00800           0   0.00000       0.00000    
      7477 MEOH     251      MEOH     H1B      HDA3B    0.800000E-01   1.00800           0   0.00000       0.00000    
      7478 MEOH     251      MEOH     H1C      HDA3B    0.800000E-01   1.00800           0   0.00000       0.00000    
      7479 MEOH     251      MEOH     LP1A     LPD     -0.230000       0.00000          -1   0.00000       0.00000    
      7480 MEOH     251      MEOH     LP1B     LPD     -0.230000       0.00000          -1   0.00000       0.00000    
      7481 MEOH     252      MEOH     C1       CD33B     2.31410       11.6110           0  -1.00000       1.30000    
      7482 MEOH     252      MEOH     DC1      DRUD     -2.45410      0.400000           0   0.00000       0.00000    
      7483 MEOH     252      MEOH     O1       OD31H     2.48830       15.5990           0  -1.02800       1.30000    
      7484 MEOH     252      MEOH     DO1      DRUD     -2.48830      0.400000           0   0.00000       0.00000    
      7485 MEOH     252      MEOH     HO1      HDP1A    0.360000       1.00800           0   0.00000       0.00000    
      7486 MEOH     252      MEOH     HO2      DUMH      0.00000       1.00800           0   0.00000       0.00000    
      7487 MEOH     252      MEOH     H1A      HDA3B    0.800000E-01   1.00800           0   0.00000       0.00000    
      7488 MEOH     252      MEOH     H1B      HDA3B    0.800000E-01   1.00800           0   0.00000       0.00000    
      7489 MEOH     252      MEOH     H1C      HDA3B    0.800000E-01   1.00800           0   0.00000       0.00000    
      7490 MEOH     252      MEOH     LP1A     LPD     -0.230000       0.00000          -1   0.00000       0.00000    
      7491 MEOH     252      MEOH     LP1B     LPD     -0.230000       0.00000          -1   0.00000       0.00000    
      7492 MEOH     253      MEOH     C1       CD33B     2.31410       11.6110           0  -1.00000       1.30000    
      7493 MEOH     253      MEOH     DC1      DRUD     -2.45410      0.400000           0   0.00000       0.00000    
      7494 MEOH     253      MEOH     O1       OD31H     2.48830       15.5990           0  -1.02800       1.30000    
      7495 MEOH     253      MEOH     DO1      DRUD     -2.48830      0.400000           0   0.00000       0.00000    
      7496 MEOH     253      MEOH     HO1      HDP1A    0.360000       1.00800           0   0.00000       0.00000    
      7497 MEOH     253      MEOH     HO2      DUMH      0.00000       1.00800           0   0.00000       0.00000    
      7498 MEOH     253      MEOH     H1A      HDA3B    0.800000E-01   1.00800           0   0.00000       0.00000    
      7499 MEOH     253      MEOH     H1B      HDA3B    0.800000E-01   1.00800           0   0.00000       0.00000    
      7500 MEOH     253      MEOH     H1C      HDA3B    0.800000E-01   1.00800           0   0.00000       0.00000    
      7501 MEOH     253      MEOH     LP1A     LPD     -0.230000       0.00000          -1   0.00000       0.00000    
      7502 MEOH     253      MEOH     LP1B     LPD     -0.230000       0.00000          -1   0.00000       0.00000    
      7503 MEOH     254      MEOH     C1       CD33B     2.31410       11.6110           0  -1.00000       1.30000    
      7504 MEOH     254      MEOH     DC1      DRUD     -2.45410      0.400000           0   0.00000       0.00000    
      7505 MEOH     254      MEOH     O1       OD31H     2.48830       15.5990           0  -1.02800       1.30000    
      7506 MEOH     254      MEOH     DO1      DRUD     -2.48830      0.400000           0   0.00000       0.00000    
      7507 MEOH     254      MEOH     HO1      HDP1A    0.360000       1.00800           0   0.00000       0.00000    
      7508 MEOH     254      MEOH     HO2      DUMH      0.00000       1.00800           0   0.00000       0.00000    
      7509 MEOH     254      MEOH     H1A      HDA3B    0.800000E-01   1.00800           0   0.00000       0.00000    
      7510 MEOH     254      MEOH     H1B      HDA3B    0.800000E-01   1.00800           0   0.00000       0.00000    
      7511 MEOH     254      MEOH     H1C      HDA3B    0.800000E-01   1.00800           0   0.00000       0.00000    
      7512 MEOH     254      MEOH     LP1A     LPD     -0.230000       0.00000          -1   0.00000       0.00000    
      7513 MEOH     254      MEOH     LP1B     LPD     -0.230000       0.00000          -1   0.00000       0.00000    
      7514 MEOH     255      MEOH     C1       CD33B     2.31410       11.6110           0  -1.00000       1.30000    
      7515 MEOH     255      MEOH     DC1      DRUD     -2.45410      0.400000           0   0.00000       0.00000    
      7516 MEOH     255      MEOH     O1       OD31H     2.48830       15.5990           0  -1.02800       1.30000    
      7517 MEOH     255      MEOH     DO1      DRUD     -2.48830      0.400000           0   0.00000       0.00000    
      7518 MEOH     255      MEOH     HO1      HDP1A    0.360000       1.00800           0   0.00000       0.00000    
      7519 MEOH     255      MEOH     HO2      DUMH      0.00000       1.00800           0   0.00000       0.00000    
      7520 MEOH     255      MEOH     H1A      HDA3B    0.800000E-01   1.00800           0   0.00000       0.00000    
      7521 MEOH     255      MEOH     H1B      HDA3B    0.800000E-01   1.00800           0   0.00000       0.00000    
      7522 MEOH     255      MEOH     H1C      HDA3B    0.800000E-01   1.00800           0   0.00000       0.00000    
      7523 MEOH     255      MEOH     LP1A     LPD     -0.230000       0.00000          -1   0.00000       0.00000    
      7524 MEOH     255      MEOH     LP1B     LPD     -0.230000       0.00000          -1   0.00000       0.00000    
      7525 MEOH     256      MEOH     C1       CD33B     2.31410       11.6110           0  -1.00000       1.30000    
      7526 MEOH     256      MEOH     DC1      DRUD     -2.45410      0.400000           0   0.00000       0.00000    
      7527 MEOH     256      MEOH     O1       OD31H     2.48830       15.5990           0  -1.02800       1.30000    
      7528 MEOH     256      MEOH     DO1      DRUD     -2.48830      0.400000           0   0.00000       0.00000    
      7529 MEOH     256      MEOH     HO1      HDP1A    0.360000       1.00800           0   0.00000       0.00000    
      7530 MEOH     256      MEOH     HO2      DUMH      0.00000       1.00800           0   0.00000       0.00000    
      7531 MEOH     256      MEOH     H1A      HDA3B    0.800000E-01   1.00800           0   0.00000       0.00000    
      7532 MEOH     256      MEOH     H1B      HDA3B    0.800000E-01   1.00800           0   0.00000       0.00000    
      7533 MEOH     256      MEOH     H1C      HDA3B    0.800000E-01   1.00800           0   0.00000       0.00000    
      7534 MEOH     256      MEOH     LP1A     LPD     -0.230000       0.00000          -1   0.00000       0.00000    
      7535 MEOH     256      MEOH     LP1B     LPD     -0.230000       0.00000          -1   0.00000       0.00000    
      7536 MEOH     257      MEOH     C1       CD33B     2.31410       11.6110           0  -1.00000       1.30000    
      7537 MEOH     257      MEOH     DC1      DRUD     -2.45410      0.400000           0   0.00000       0.00000    
      7538 MEOH     257      MEOH     O1       OD31H     2.48830       15.5990           0  -1.02800       1.30000    
      7539 MEOH     257      MEOH     DO1      DRUD     -2.48830      0.400000           0   0.00000       0.00000    
      7540 MEOH     257      MEOH     HO1      HDP1A    0.360000       1.00800           0   0.00000       0.00000    
      7541 MEOH     257      MEOH     HO2      DUMH      0.00000       1.00800           0   0.00000       0.00000    
      7542 MEOH     257      MEOH     H1A      HDA3B    0.800000E-01   1.00800           0   0.00000       0.00000    
      7543 MEOH     257      MEOH     H1B      HDA3B    0.800000E-01   1.00800           0   0.00000       0.00000    
      7544 MEOH     257      MEOH     H1C      HDA3B    0.800000E-01   1.00800           0   0.00000       0.00000    
      7545 MEOH     257      MEOH     LP1A     LPD     -0.230000       0.00000          -1   0.00000       0.00000    
      7546 MEOH     257      MEOH     LP1B     LPD     -0.230000       0.00000          -1   0.00000       0.00000    
      7547 MEOH     258      MEOH     C1       CD33B     2.31410       11.6110           0  -1.00000       1.30000    
      7548 MEOH     258      MEOH     DC1      DRUD     -2.45410      0.400000           0   0.00000       0.00000    
      7549 MEOH     258      MEOH     O1       OD31H     2.48830       15.5990           0  -1.02800       1.30000    
      7550 MEOH     258      MEOH     DO1      DRUD     -2.48830      0.400000           0   0.00000       0.00000    
      7551 MEOH     258      MEOH     HO1      HDP1A    0.360000       1.00800           0   0.00000       0.00000    
      7552 MEOH     258      MEOH     HO2      DUMH      0.00000       1.00800           0   0.00000       0.00000    
      7553 MEOH     258      MEOH     H1A      HDA3B    0.800000E-01   1.00800           0   0.00000       0.00000    
      7554 MEOH     258      MEOH     H1B      HDA3B    0.800000E-01   1.00800           0   0.00000       0.00000    
      7555 MEOH     258      MEOH     H1C      HDA3B    0.800000E-01   1.00800           0   0.00000       0.00000    
      7556 MEOH     258      MEOH     LP1A     LPD     -0.230000       0.00000          -1   0.00000       0.00000    
      7557 MEOH     258      MEOH     LP1B     LPD     -0.230000       0.00000          -1   0.00000       0.00000    
      7558 MEOH     259      MEOH     C1       CD33B     2.31410       11.6110           0  -1.00000       1.30000    
      7559 MEOH     259      MEOH     DC1      DRUD     -2.45410      0.400000           0   0.00000       0.00000    
      7560 MEOH     259      MEOH     O1       OD31H     2.48830       15.5990           0  -1.02800       1.30000    
      7561 MEOH     259      MEOH     DO1      DRUD     -2.48830      0.400000           0   0.00000       0.00000    
      7562 MEOH     259      MEOH     HO1      HDP1A    0.360000       1.00800           0   0.00000       0.00000    
      7563 MEOH     259      MEOH     HO2      DUMH      0.00000       1.00800           0   0.00000       0.00000    
      7564 MEOH     259      MEOH     H1A      HDA3B    0.800000E-01   1.00800           0   0.00000       0.00000    
      7565 MEOH     259      MEOH     H1B      HDA3B    0.800000E-01   1.00800           0   0.00000       0.00000    
      7566 MEOH     259      MEOH     H1C      HDA3B    0.800000E-01   1.00800           0   0.00000       0.00000    
      7567 MEOH     259      MEOH     LP1A     LPD     -0.230000       0.00000          -1   0.00000       0.00000    
      7568 MEOH     259      MEOH     LP1B     LPD     -0.230000       0.00000          -1   0.00000       0.00000    
      7569 MEOH     260      MEOH     C1       CD33B     2.31410       11.6110           0  -1.00000       1.30000    
      7570 MEOH     260      MEOH     DC1      DRUD     -2.45410      0.400000           0   0.00000       0.00000    
      7571 MEOH     260      MEOH     O1       OD31H     2.48830       15.5990           0  -1.02800       1.30000    
      7572 MEOH     260      MEOH     DO1      DRUD     -2.48830      0.400000           0   0.00000       0.00000    
      7573 MEOH     260      MEOH     HO1      HDP1A    0.360000       1.00800           0   0.00000       0.00000    
      7574 MEOH     260      MEOH     HO2      DUMH      0.00000       1.00800           0   0.00000       0.00000    
      7575 MEOH     260      MEOH     H1A      HDA3B    0.800000E-01   1.00800           0   0.00000       0.00000    
      7576 MEOH     260      MEOH     H1B      HDA3B    0.800000E-01   1.00800           0   0.00000       0.00000    
      7577 MEOH     260      MEOH     H1C      HDA3B    0.800000E-01   1.00800           0   0.00000       0.00000    
      7578 MEOH     260      MEOH     LP1A     LPD     -0.230000       0.00000          -1   0.00000       0.00000    
      7579 MEOH     260      MEOH     LP1B     LPD     -0.230000       0.00000          -1   0.00000       0.00000    
      7580 MEOH     261      MEOH     C1       CD33B     2.31410       11.6110           0  -1.00000       1.30000    
      7581 MEOH     261      MEOH     DC1      DRUD     -2.45410      0.400000           0   0.00000       0.00000    
      7582 MEOH     261      MEOH     O1       OD31H     2.48830       15.5990           0  -1.02800       1.30000    
      7583 MEOH     261      MEOH     DO1      DRUD     -2.48830      0.400000           0   0.00000       0.00000    
      7584 MEOH     261      MEOH     HO1      HDP1A    0.360000       1.00800           0   0.00000       0.00000    
      7585 MEOH     261      MEOH     HO2      DUMH      0.00000       1.00800           0   0.00000       0.00000    
      7586 MEOH     261      MEOH     H1A      HDA3B    0.800000E-01   1.00800           0   0.00000       0.00000    
      7587 MEOH     261      MEOH     H1B      HDA3B    0.800000E-01   1.00800           0   0.00000       0.00000    
      7588 MEOH     261      MEOH     H1C      HDA3B    0.800000E-01   1.00800           0   0.00000       0.00000    
      7589 MEOH     261      MEOH     LP1A     LPD     -0.230000       0.00000          -1   0.00000       0.00000    
      7590 MEOH     261      MEOH     LP1B     LPD     -0.230000       0.00000          -1   0.00000       0.00000    
      7591 MEOH     262      MEOH     C1       CD33B     2.31410       11.6110           0  -1.00000       1.30000    
      7592 MEOH     262      MEOH     DC1      DRUD     -2.45410      0.400000           0   0.00000       0.00000    
      7593 MEOH     262      MEOH     O1       OD31H     2.48830       15.5990           0  -1.02800       1.30000    
      7594 MEOH     262      MEOH     DO1      DRUD     -2.48830      0.400000           0   0.00000       0.00000    
      7595 MEOH     262      MEOH     HO1      HDP1A    0.360000       1.00800           0   0.00000       0.00000    
      7596 MEOH     262      MEOH     HO2      DUMH      0.00000       1.00800           0   0.00000       0.00000    
      7597 MEOH     262      MEOH     H1A      HDA3B    0.800000E-01   1.00800           0   0.00000       0.00000    
      7598 MEOH     262      MEOH     H1B      HDA3B    0.800000E-01   1.00800           0   0.00000       0.00000    
      7599 MEOH     262      MEOH     H1C      HDA3B    0.800000E-01   1.00800           0   0.00000       0.00000    
      7600 MEOH     262      MEOH     LP1A     LPD     -0.230000       0.00000          -1   0.00000       0.00000    
      7601 MEOH     262      MEOH     LP1B     LPD     -0.230000       0.00000          -1   0.00000       0.00000    
      7602 MEOH     263      MEOH     C1       CD33B     2.31410       11.6110           0  -1.00000       1.30000    
      7603 MEOH     263      MEOH     DC1      DRUD     -2.45410      0.400000           0   0.00000       0.00000    
      7604 MEOH     263      MEOH     O1       OD31H     2.48830       15.5990           0  -1.02800       1.30000    
      7605 MEOH     263      MEOH     DO1      DRUD     -2.48830      0.400000           0   0.00000       0.00000    
      7606 MEOH     263      MEOH     HO1      HDP1A    0.360000       1.00800           0   0.00000       0.00000    
      7607 MEOH     263      MEOH     HO2      DUMH      0.00000       1.00800           0   0.00000       0.00000    
      7608 MEOH     263      MEOH     H1A      HDA3B    0.800000E-01   1.00800           0   0.00000       0.00000    
      7609 MEOH     263      MEOH     H1B      HDA3B    0.800000E-01   1.00800           0   0.00000       0.00000    
      7610 MEOH     263      MEOH     H1C      HDA3B    0.800000E-01   1.00800           0   0.00000       0.00000    
      7611 MEOH     263      MEOH     LP1A     LPD     -0.230000       0.00000          -1   0.00000       0.00000    
      7612 MEOH     263      MEOH     LP1B     LPD     -0.230000       0.00000          -1   0.00000       0.00000    
      7613 MEOH     264      MEOH     C1       CD33B     2.31410       11.6110           0  -1.00000       1.30000    
      7614 MEOH     264      MEOH     DC1      DRUD     -2.45410      0.400000           0   0.00000       0.00000    
      7615 MEOH     264      MEOH     O1       OD31H     2.48830       15.5990           0  -1.02800       1.30000    
      7616 MEOH     264      MEOH     DO1      DRUD     -2.48830      0.400000           0   0.00000       0.00000    
      7617 MEOH     264      MEOH     HO1      HDP1A    0.360000       1.00800           0   0.00000       0.00000    
      7618 MEOH     264      MEOH     HO2      DUMH      0.00000       1.00800           0   0.00000       0.00000    
      7619 MEOH     264      MEOH     H1A      HDA3B    0.800000E-01   1.00800           0   0.00000       0.00000    
      7620 MEOH     264      MEOH     H1B      HDA3B    0.800000E-01   1.00800           0   0.00000       0.00000    
      7621 MEOH     264      MEOH     H1C      HDA3B    0.800000E-01   1.00800           0   0.00000       0.00000    
      7622 MEOH     264      MEOH     LP1A     LPD     -0.230000       0.00000          -1   0.00000       0.00000    
      7623 MEOH     264      MEOH     LP1B     LPD     -0.230000       0.00000          -1   0.00000       0.00000    
      7624 MEOH     265      MEOH     C1       CD33B     2.31410       11.6110           0  -1.00000       1.30000    
      7625 MEOH     265      MEOH     DC1      DRUD     -2.45410      0.400000           0   0.00000       0.00000    
      7626 MEOH     265      MEOH     O1       OD31H     2.48830       15.5990           0  -1.02800       1.30000    
      7627 MEOH     265      MEOH     DO1      DRUD     -2.48830      0.400000           0   0.00000       0.00000    
      7628 MEOH     265      MEOH     HO1      HDP1A    0.360000       1.00800           0   0.00000       0.00000    
      7629 MEOH     265      MEOH     HO2      DUMH      0.00000       1.00800           0   0.00000       0.00000    
      7630 MEOH     265      MEOH     H1A      HDA3B    0.800000E-01   1.00800           0   0.00000       0.00000    
      7631 MEOH     265      MEOH     H1B      HDA3B    0.800000E-01   1.00800           0   0.00000       0.00000    
      7632 MEOH     265      MEOH     H1C      HDA3B    0.800000E-01   1.00800           0   0.00000       0.00000    
      7633 MEOH     265      MEOH     LP1A     LPD     -0.230000       0.00000          -1   0.00000       0.00000    
      7634 MEOH     265      MEOH     LP1B     LPD     -0.230000       0.00000          -1   0.00000       0.00000    
      7635 MEOH     266      MEOH     C1       CD33B     2.31410       11.6110           0  -1.00000       1.30000    
      7636 MEOH     266      MEOH     DC1      DRUD     -2.45410      0.400000           0   0.00000       0.00000    
      7637 MEOH     266      MEOH     O1       OD31H     2.48830       15.5990           0  -1.02800       1.30000    
      7638 MEOH     266      MEOH     DO1      DRUD     -2.48830      0.400000           0   0.00000       0.00000    
      7639 MEOH     266      MEOH     HO1      HDP1A    0.360000       1.00800           0   0.00000       0.00000    
      7640 MEOH     266      MEOH     HO2      DUMH      0.00000       1.00800           0   0.00000       0.00000    
      7641 MEOH     266      MEOH     H1A      HDA3B    0.800000E-01   1.00800           0   0.00000       0.00000    
      7642 MEOH     266      MEOH     H1B      HDA3B    0.800000E-01   1.00800           0   0.00000       0.00000    
      7643 MEOH     266      MEOH     H1C      HDA3B    0.800000E-01   1.00800           0   0.00000       0.00000    
      7644 MEOH     266      MEOH     LP1A     LPD     -0.230000       0.00000          -1   0.00000       0.00000    
      7645 MEOH     266      MEOH     LP1B     LPD     -0.230000       0.00000          -1   0.00000       0.00000    
      7646 MEOH     267      MEOH     C1       CD33B     2.31410       11.6110           0  -1.00000       1.30000    
      7647 MEOH     267      MEOH     DC1      DRUD     -2.45410      0.400000           0   0.00000       0.00000    
      7648 MEOH     267      MEOH     O1       OD31H     2.48830       15.5990           0  -1.02800       1.30000    
      7649 MEOH     267      MEOH     DO1      DRUD     -2.48830      0.400000           0   0.00000       0.00000    
      7650 MEOH     267      MEOH     HO1      HDP1A    0.360000       1.00800           0   0.00000       0.00000    
      7651 MEOH     267      MEOH     HO2      DUMH      0.00000       1.00800           0   0.00000       0.00000    
      7652 MEOH     267      MEOH     H1A      HDA3B    0.800000E-01   1.00800           0   0.00000       0.00000    
      7653 MEOH     267      MEOH     H1B      HDA3B    0.800000E-01   1.00800           0   0.00000       0.00000    
      7654 MEOH     267      MEOH     H1C      HDA3B    0.800000E-01   1.00800           0   0.00000       0.00000    
      7655 MEOH     267      MEOH     LP1A     LPD     -0.230000       0.00000          -1   0.00000       0.00000    
      7656 MEOH     267      MEOH     LP1B     LPD     -0.230000       0.00000          -1   0.00000       0.00000    
      7657 MEOH     268      MEOH     C1       CD33B     2.31410       11.6110           0  -1.00000       1.30000    
      7658 MEOH     268      MEOH     DC1      DRUD     -2.45410      0.400000           0   0.00000       0.00000    
      7659 MEOH     268      MEOH     O1       OD31H     2.48830       15.5990           0  -1.02800       1.30000    
      7660 MEOH     268      MEOH     DO1      DRUD     -2.48830      0.400000           0   0.00000       0.00000    
      7661 MEOH     268      MEOH     HO1      HDP1A    0.360000       1.00800           0   0.00000       0.00000    
      7662 MEOH     268      MEOH     HO2      DUMH      0.00000       1.00800           0   0.00000       0.00000    
      7663 MEOH     268      MEOH     H1A      HDA3B    0.800000E-01   1.00800           0   0.00000       0.00000    
      7664 MEOH     268      MEOH     H1B      HDA3B    0.800000E-01   1.00800           0   0.00000       0.00000    
      7665 MEOH     268      MEOH     H1C      HDA3B    0.800000E-01   1.00800           0   0.00000       0.00000    
      7666 MEOH     268      MEOH     LP1A     LPD     -0.230000       0.00000          -1   0.00000       0.00000    
      7667 MEOH     268      MEOH     LP1B     LPD     -0.230000       0.00000          -1   0.00000       0.00000    
      7668 MEOH     269      MEOH     C1       CD33B     2.31410       11.6110           0  -1.00000       1.30000    
      7669 MEOH     269      MEOH     DC1      DRUD     -2.45410      0.400000           0   0.00000       0.00000    
      7670 MEOH     269      MEOH     O1       OD31H     2.48830       15.5990           0  -1.02800       1.30000    
      7671 MEOH     269      MEOH     DO1      DRUD     -2.48830      0.400000           0   0.00000       0.00000    
      7672 MEOH     269      MEOH     HO1      HDP1A    0.360000       1.00800           0   0.00000       0.00000    
      7673 MEOH     269      MEOH     HO2      DUMH      0.00000       1.00800           0   0.00000       0.00000    
      7674 MEOH     269      MEOH     H1A      HDA3B    0.800000E-01   1.00800           0   0.00000       0.00000    
      7675 MEOH     269      MEOH     H1B      HDA3B    0.800000E-01   1.00800           0   0.00000       0.00000    
      7676 MEOH     269      MEOH     H1C      HDA3B    0.800000E-01   1.00800           0   0.00000       0.00000    
      7677 MEOH     269      MEOH     LP1A     LPD     -0.230000       0.00000          -1   0.00000       0.00000    
      7678 MEOH     269      MEOH     LP1B     LPD     -0.230000       0.00000          -1   0.00000       0.00000    
      7679 MEOH     270      MEOH     C1       CD33B     2.31410       11.6110           0  -1.00000       1.30000    
      7680 MEOH     270      MEOH     DC1      DRUD     -2.45410      0.400000           0   0.00000       0.00000    
      7681 MEOH     270      MEOH     O1       OD31H     2.48830       15.5990           0  -1.02800       1.30000    
      7682 MEOH     270      MEOH     DO1      DRUD     -2.48830      0.400000           0   0.00000       0.00000    
      7683 MEOH     270      MEOH     HO1      HDP1A    0.360000       1.00800           0   0.00000       0.00000    
      7684 MEOH     270      MEOH     HO2      DUMH      0.00000       1.00800           0   0.00000       0.00000    
      7685 MEOH     270      MEOH     H1A      HDA3B    0.800000E-01   1.00800           0   0.00000       0.00000    
      7686 MEOH     270      MEOH     H1B      HDA3B    0.800000E-01   1.00800           0   0.00000       0.00000    
      7687 MEOH     270      MEOH     H1C      HDA3B    0.800000E-01   1.00800           0   0.00000       0.00000    
      7688 MEOH     270      MEOH     LP1A     LPD     -0.230000       0.00000          -1   0.00000       0.00000    
      7689 MEOH     270      MEOH     LP1B     LPD     -0.230000       0.00000          -1   0.00000       0.00000    
      7690 MEOH     271      MEOH     C1       CD33B     2.31410       11.6110           0  -1.00000       1.30000    
      7691 MEOH     271      MEOH     DC1      DRUD     -2.45410      0.400000           0   0.00000       0.00000    
      7692 MEOH     271      MEOH     O1       OD31H     2.48830       15.5990           0  -1.02800       1.30000    
      7693 MEOH     271      MEOH     DO1      DRUD     -2.48830      0.400000           0   0.00000       0.00000    
      7694 MEOH     271      MEOH     HO1      HDP1A    0.360000       1.00800           0   0.00000       0.00000    
      7695 MEOH     271      MEOH     HO2      DUMH      0.00000       1.00800           0   0.00000       0.00000    
      7696 MEOH     271      MEOH     H1A      HDA3B    0.800000E-01   1.00800           0   0.00000       0.00000    
      7697 MEOH     271      MEOH     H1B      HDA3B    0.800000E-01   1.00800           0   0.00000       0.00000    
      7698 MEOH     271      MEOH     H1C      HDA3B    0.800000E-01   1.00800           0   0.00000       0.00000    
      7699 MEOH     271      MEOH     LP1A     LPD     -0.230000       0.00000          -1   0.00000       0.00000    
      7700 MEOH     271      MEOH     LP1B     LPD     -0.230000       0.00000          -1   0.00000       0.00000    
      7701 MEOH     272      MEOH     C1       CD33B     2.31410       11.6110           0  -1.00000       1.30000    
      7702 MEOH     272      MEOH     DC1      DRUD     -2.45410      0.400000           0   0.00000       0.00000    
      7703 MEOH     272      MEOH     O1       OD31H     2.48830       15.5990           0  -1.02800       1.30000    
      7704 MEOH     272      MEOH     DO1      DRUD     -2.48830      0.400000           0   0.00000       0.00000    
      7705 MEOH     272      MEOH     HO1      HDP1A    0.360000       1.00800           0   0.00000       0.00000    
      7706 MEOH     272      MEOH     HO2      DUMH      0.00000       1.00800           0   0.00000       0.00000    
      7707 MEOH     272      MEOH     H1A      HDA3B    0.800000E-01   1.00800           0   0.00000       0.00000    
      7708 MEOH     272      MEOH     H1B      HDA3B    0.800000E-01   1.00800           0   0.00000       0.00000    
      7709 MEOH     272      MEOH     H1C      HDA3B    0.800000E-01   1.00800           0   0.00000       0.00000    
      7710 MEOH     272      MEOH     LP1A     LPD     -0.230000       0.00000          -1   0.00000       0.00000    
      7711 MEOH     272      MEOH     LP1B     LPD     -0.230000       0.00000          -1   0.00000       0.00000    
      7712 MEOH     273      MEOH     C1       CD33B     2.31410       11.6110           0  -1.00000       1.30000    
      7713 MEOH     273      MEOH     DC1      DRUD     -2.45410      0.400000           0   0.00000       0.00000    
      7714 MEOH     273      MEOH     O1       OD31H     2.48830       15.5990           0  -1.02800       1.30000    
      7715 MEOH     273      MEOH     DO1      DRUD     -2.48830      0.400000           0   0.00000       0.00000    
      7716 MEOH     273      MEOH     HO1      HDP1A    0.360000       1.00800           0   0.00000       0.00000    
      7717 MEOH     273      MEOH     HO2      DUMH      0.00000       1.00800           0   0.00000       0.00000    
      7718 MEOH     273      MEOH     H1A      HDA3B    0.800000E-01   1.00800           0   0.00000       0.00000    
      7719 MEOH     273      MEOH     H1B      HDA3B    0.800000E-01   1.00800           0   0.00000       0.00000    
      7720 MEOH     273      MEOH     H1C      HDA3B    0.800000E-01   1.00800           0   0.00000       0.00000    
      7721 MEOH     273      MEOH     LP1A     LPD     -0.230000       0.00000          -1   0.00000       0.00000    
      7722 MEOH     273      MEOH     LP1B     LPD     -0.230000       0.00000          -1   0.00000       0.00000    
      7723 MEOH     274      MEOH     C1       CD33B     2.31410       11.6110           0  -1.00000       1.30000    
      7724 MEOH     274      MEOH     DC1      DRUD     -2.45410      0.400000           0   0.00000       0.00000    
      7725 MEOH     274      MEOH     O1       OD31H     2.48830       15.5990           0  -1.02800       1.30000    
      7726 MEOH     274      MEOH     DO1      DRUD     -2.48830      0.400000           0   0.00000       0.00000    
      7727 MEOH     274      MEOH     HO1      HDP1A    0.360000       1.00800           0   0.00000       0.00000    
      7728 MEOH     274      MEOH     HO2      DUMH      0.00000       1.00800           0   0.00000       0.00000    
      7729 MEOH     274      MEOH     H1A      HDA3B    0.800000E-01   1.00800           0   0.00000       0.00000    
      7730 MEOH     274      MEOH     H1B      HDA3B    0.800000E-01   1.00800           0   0.00000       0.00000    
      7731 MEOH     274      MEOH     H1C      HDA3B    0.800000E-01   1.00800           0   0.00000       0.00000    
      7732 MEOH     274      MEOH     LP1A     LPD     -0.230000       0.00000          -1   0.00000       0.00000    
      7733 MEOH     274      MEOH     LP1B     LPD     -0.230000       0.00000          -1   0.00000       0.00000    
      7734 MEOH     275      MEOH     C1       CD33B     2.31410       11.6110           0  -1.00000       1.30000    
      7735 MEOH     275      MEOH     DC1      DRUD     -2.45410      0.400000           0   0.00000       0.00000    
      7736 MEOH     275      MEOH     O1       OD31H     2.48830       15.5990           0  -1.02800       1.30000    
      7737 MEOH     275      MEOH     DO1      DRUD     -2.48830      0.400000           0   0.00000       0.00000    
      7738 MEOH     275      MEOH     HO1      HDP1A    0.360000       1.00800           0   0.00000       0.00000    
      7739 MEOH     275      MEOH     HO2      DUMH      0.00000       1.00800           0   0.00000       0.00000    
      7740 MEOH     275      MEOH     H1A      HDA3B    0.800000E-01   1.00800           0   0.00000       0.00000    
      7741 MEOH     275      MEOH     H1B      HDA3B    0.800000E-01   1.00800           0   0.00000       0.00000    
      7742 MEOH     275      MEOH     H1C      HDA3B    0.800000E-01   1.00800           0   0.00000       0.00000    
      7743 MEOH     275      MEOH     LP1A     LPD     -0.230000       0.00000          -1   0.00000       0.00000    
      7744 MEOH     275      MEOH     LP1B     LPD     -0.230000       0.00000          -1   0.00000       0.00000    
      7745 MEOH     276      MEOH     C1       CD33B     2.31410       11.6110           0  -1.00000       1.30000    
      7746 MEOH     276      MEOH     DC1      DRUD     -2.45410      0.400000           0   0.00000       0.00000    
      7747 MEOH     276      MEOH     O1       OD31H     2.48830       15.5990           0  -1.02800       1.30000    
      7748 MEOH     276      MEOH     DO1      DRUD     -2.48830      0.400000           0   0.00000       0.00000    
      7749 MEOH     276      MEOH     HO1      HDP1A    0.360000       1.00800           0   0.00000       0.00000    
      7750 MEOH     276      MEOH     HO2      DUMH      0.00000       1.00800           0   0.00000       0.00000    
      7751 MEOH     276      MEOH     H1A      HDA3B    0.800000E-01   1.00800           0   0.00000       0.00000    
      7752 MEOH     276      MEOH     H1B      HDA3B    0.800000E-01   1.00800           0   0.00000       0.00000    
      7753 MEOH     276      MEOH     H1C      HDA3B    0.800000E-01   1.00800           0   0.00000       0.00000    
      7754 MEOH     276      MEOH     LP1A     LPD     -0.230000       0.00000          -1   0.00000       0.00000    
      7755 MEOH     276      MEOH     LP1B     LPD     -0.230000       0.00000          -1   0.00000       0.00000    
      7756 MEOH     277      MEOH     C1       CD33B     2.31410       11.6110           0  -1.00000       1.30000    
      7757 MEOH     277      MEOH     DC1      DRUD     -2.45410      0.400000           0   0.00000       0.00000    
      7758 MEOH     277      MEOH     O1       OD31H     2.48830       15.5990           0  -1.02800       1.30000    
      7759 MEOH     277      MEOH     DO1      DRUD     -2.48830      0.400000           0   0.00000       0.00000    
      7760 MEOH     277      MEOH     HO1      HDP1A    0.360000       1.00800           0   0.00000       0.00000    
      7761 MEOH     277      MEOH     HO2      DUMH      0.00000       1.00800           0   0.00000       0.00000    
      7762 MEOH     277      MEOH     H1A      HDA3B    0.800000E-01   1.00800           0   0.00000       0.00000    
      7763 MEOH     277      MEOH     H1B      HDA3B    0.800000E-01   1.00800           0   0.00000       0.00000    
      7764 MEOH     277      MEOH     H1C      HDA3B    0.800000E-01   1.00800           0   0.00000       0.00000    
      7765 MEOH     277      MEOH     LP1A     LPD     -0.230000       0.00000          -1   0.00000       0.00000    
      7766 MEOH     277      MEOH     LP1B     LPD     -0.230000       0.00000          -1   0.00000       0.00000    
      7767 MEOH     278      MEOH     C1       CD33B     2.31410       11.6110           0  -1.00000       1.30000    
      7768 MEOH     278      MEOH     DC1      DRUD     -2.45410      0.400000           0   0.00000       0.00000    
      7769 MEOH     278      MEOH     O1       OD31H     2.48830       15.5990           0  -1.02800       1.30000    
      7770 MEOH     278      MEOH     DO1      DRUD     -2.48830      0.400000           0   0.00000       0.00000    
      7771 MEOH     278      MEOH     HO1      HDP1A    0.360000       1.00800           0   0.00000       0.00000    
      7772 MEOH     278      MEOH     HO2      DUMH      0.00000       1.00800           0   0.00000       0.00000    
      7773 MEOH     278      MEOH     H1A      HDA3B    0.800000E-01   1.00800           0   0.00000       0.00000    
      7774 MEOH     278      MEOH     H1B      HDA3B    0.800000E-01   1.00800           0   0.00000       0.00000    
      7775 MEOH     278      MEOH     H1C      HDA3B    0.800000E-01   1.00800           0   0.00000       0.00000    
      7776 MEOH     278      MEOH     LP1A     LPD     -0.230000       0.00000          -1   0.00000       0.00000    
      7777 MEOH     278      MEOH     LP1B     LPD     -0.230000       0.00000          -1   0.00000       0.00000    
      7778 MEOH     279      MEOH     C1       CD33B     2.31410       11.6110           0  -1.00000       1.30000    
      7779 MEOH     279      MEOH     DC1      DRUD     -2.45410      0.400000           0   0.00000       0.00000    
      7780 MEOH     279      MEOH     O1       OD31H     2.48830       15.5990           0  -1.02800       1.30000    
      7781 MEOH     279      MEOH     DO1      DRUD     -2.48830      0.400000           0   0.00000       0.00000    
      7782 MEOH     279      MEOH     HO1      HDP1A    0.360000       1.00800           0   0.00000       0.00000    
      7783 MEOH     279      MEOH     HO2      DUMH      0.00000       1.00800           0   0.00000       0.00000    
      7784 MEOH     279      MEOH     H1A      HDA3B    0.800000E-01   1.00800           0   0.00000       0.00000    
      7785 MEOH     279      MEOH     H1B      HDA3B    0.800000E-01   1.00800           0   0.00000       0.00000    
      7786 MEOH     279      MEOH     H1C      HDA3B    0.800000E-01   1.00800           0   0.00000       0.00000    
      7787 MEOH     279      MEOH     LP1A     LPD     -0.230000       0.00000          -1   0.00000       0.00000    
      7788 MEOH     279      MEOH     LP1B     LPD     -0.230000       0.00000          -1   0.00000       0.00000    
      7789 MEOH     280      MEOH     C1       CD33B     2.31410       11.6110           0  -1.00000       1.30000    
      7790 MEOH     280      MEOH     DC1      DRUD     -2.45410      0.400000           0   0.00000       0.00000    
      7791 MEOH     280      MEOH     O1       OD31H     2.48830       15.5990           0  -1.02800       1.30000    
      7792 MEOH     280      MEOH     DO1      DRUD     -2.48830      0.400000           0   0.00000       0.00000    
      7793 MEOH     280      MEOH     HO1      HDP1A    0.360000       1.00800           0   0.00000       0.00000    
      7794 MEOH     280      MEOH     HO2      DUMH      0.00000       1.00800           0   0.00000       0.00000    
      7795 MEOH     280      MEOH     H1A      HDA3B    0.800000E-01   1.00800           0   0.00000       0.00000    
      7796 MEOH     280      MEOH     H1B      HDA3B    0.800000E-01   1.00800           0   0.00000       0.00000    
      7797 MEOH     280      MEOH     H1C      HDA3B    0.800000E-01   1.00800           0   0.00000       0.00000    
      7798 MEOH     280      MEOH     LP1A     LPD     -0.230000       0.00000          -1   0.00000       0.00000    
      7799 MEOH     280      MEOH     LP1B     LPD     -0.230000       0.00000          -1   0.00000       0.00000    
      7800 MEOH     281      MEOH     C1       CD33B     2.31410       11.6110           0  -1.00000       1.30000    
      7801 MEOH     281      MEOH     DC1      DRUD     -2.45410      0.400000           0   0.00000       0.00000    
      7802 MEOH     281      MEOH     O1       OD31H     2.48830       15.5990           0  -1.02800       1.30000    
      7803 MEOH     281      MEOH     DO1      DRUD     -2.48830      0.400000           0   0.00000       0.00000    
      7804 MEOH     281      MEOH     HO1      HDP1A    0.360000       1.00800           0   0.00000       0.00000    
      7805 MEOH     281      MEOH     HO2      DUMH      0.00000       1.00800           0   0.00000       0.00000    
      7806 MEOH     281      MEOH     H1A      HDA3B    0.800000E-01   1.00800           0   0.00000       0.00000    
      7807 MEOH     281      MEOH     H1B      HDA3B    0.800000E-01   1.00800           0   0.00000       0.00000    
      7808 MEOH     281      MEOH     H1C      HDA3B    0.800000E-01   1.00800           0   0.00000       0.00000    
      7809 MEOH     281      MEOH     LP1A     LPD     -0.230000       0.00000          -1   0.00000       0.00000    
      7810 MEOH     281      MEOH     LP1B     LPD     -0.230000       0.00000          -1   0.00000       0.00000    
      7811 MEOH     282      MEOH     C1       CD33B     2.31410       11.6110           0  -1.00000       1.30000    
      7812 MEOH     282      MEOH     DC1      DRUD     -2.45410      0.400000           0   0.00000       0.00000    
      7813 MEOH     282      MEOH     O1       OD31H     2.48830       15.5990           0  -1.02800       1.30000    
      7814 MEOH     282      MEOH     DO1      DRUD     -2.48830      0.400000           0   0.00000       0.00000    
      7815 MEOH     282      MEOH     HO1      HDP1A    0.360000       1.00800           0   0.00000       0.00000    
      7816 MEOH     282      MEOH     HO2      DUMH      0.00000       1.00800           0   0.00000       0.00000    
      7817 MEOH     282      MEOH     H1A      HDA3B    0.800000E-01   1.00800           0   0.00000       0.00000    
      7818 MEOH     282      MEOH     H1B      HDA3B    0.800000E-01   1.00800           0   0.00000       0.00000    
      7819 MEOH     282      MEOH     H1C      HDA3B    0.800000E-01   1.00800           0   0.00000       0.00000    
      7820 MEOH     282      MEOH     LP1A     LPD     -0.230000       0.00000          -1   0.00000       0.00000    
      7821 MEOH     282      MEOH     LP1B     LPD     -0.230000       0.00000          -1   0.00000       0.00000    
      7822 MEOH     283      MEOH     C1       CD33B     2.31410       11.6110           0  -1.00000       1.30000    
      7823 MEOH     283      MEOH     DC1      DRUD     -2.45410      0.400000           0   0.00000       0.00000    
      7824 MEOH     283      MEOH     O1       OD31H     2.48830       15.5990           0  -1.02800       1.30000    
      7825 MEOH     283      MEOH     DO1      DRUD     -2.48830      0.400000           0   0.00000       0.00000    
      7826 MEOH     283      MEOH     HO1      HDP1A    0.360000       1.00800           0   0.00000       0.00000    
      7827 MEOH     283      MEOH     HO2      DUMH      0.00000       1.00800           0   0.00000       0.00000    
      7828 MEOH     283      MEOH     H1A      HDA3B    0.800000E-01   1.00800           0   0.00000       0.00000    
      7829 MEOH     283      MEOH     H1B      HDA3B    0.800000E-01   1.00800           0   0.00000       0.00000    
      7830 MEOH     283      MEOH     H1C      HDA3B    0.800000E-01   1.00800           0   0.00000       0.00000    
      7831 MEOH     283      MEOH     LP1A     LPD     -0.230000       0.00000          -1   0.00000       0.00000    
      7832 MEOH     283      MEOH     LP1B     LPD     -0.230000       0.00000          -1   0.00000       0.00000    
      7833 MEOH     284      MEOH     C1       CD33B     2.31410       11.6110           0  -1.00000       1.30000    
      7834 MEOH     284      MEOH     DC1      DRUD     -2.45410      0.400000           0   0.00000       0.00000    
      7835 MEOH     284      MEOH     O1       OD31H     2.48830       15.5990           0  -1.02800       1.30000    
      7836 MEOH     284      MEOH     DO1      DRUD     -2.48830      0.400000           0   0.00000       0.00000    
      7837 MEOH     284      MEOH     HO1      HDP1A    0.360000       1.00800           0   0.00000       0.00000    
      7838 MEOH     284      MEOH     HO2      DUMH      0.00000       1.00800           0   0.00000       0.00000    
      7839 MEOH     284      MEOH     H1A      HDA3B    0.800000E-01   1.00800           0   0.00000       0.00000    
      7840 MEOH     284      MEOH     H1B      HDA3B    0.800000E-01   1.00800           0   0.00000       0.00000    
      7841 MEOH     284      MEOH     H1C      HDA3B    0.800000E-01   1.00800           0   0.00000       0.00000    
      7842 MEOH     284      MEOH     LP1A     LPD     -0.230000       0.00000          -1   0.00000       0.00000    
      7843 MEOH     284      MEOH     LP1B     LPD     -0.230000       0.00000          -1   0.00000       0.00000    
      7844 MEOH     285      MEOH     C1       CD33B     2.31410       11.6110           0  -1.00000       1.30000    
      7845 MEOH     285      MEOH     DC1      DRUD     -2.45410      0.400000           0   0.00000       0.00000    
      7846 MEOH     285      MEOH     O1       OD31H     2.48830       15.5990           0  -1.02800       1.30000    
      7847 MEOH     285      MEOH     DO1      DRUD     -2.48830      0.400000           0   0.00000       0.00000    
      7848 MEOH     285      MEOH     HO1      HDP1A    0.360000       1.00800           0   0.00000       0.00000    
      7849 MEOH     285      MEOH     HO2      DUMH      0.00000       1.00800           0   0.00000       0.00000    
      7850 MEOH     285      MEOH     H1A      HDA3B    0.800000E-01   1.00800           0   0.00000       0.00000    
      7851 MEOH     285      MEOH     H1B      HDA3B    0.800000E-01   1.00800           0   0.00000       0.00000    
      7852 MEOH     285      MEOH     H1C      HDA3B    0.800000E-01   1.00800           0   0.00000       0.00000    
      7853 MEOH     285      MEOH     LP1A     LPD     -0.230000       0.00000          -1   0.00000       0.00000    
      7854 MEOH     285      MEOH     LP1B     LPD     -0.230000       0.00000          -1   0.00000       0.00000    
      7855 MEOH     286      MEOH     C1       CD33B     2.31410       11.6110           0  -1.00000       1.30000    
      7856 MEOH     286      MEOH     DC1      DRUD     -2.45410      0.400000           0   0.00000       0.00000    
      7857 MEOH     286      MEOH     O1       OD31H     2.48830       15.5990           0  -1.02800       1.30000    
      7858 MEOH     286      MEOH     DO1      DRUD     -2.48830      0.400000           0   0.00000       0.00000    
      7859 MEOH     286      MEOH     HO1      HDP1A    0.360000       1.00800           0   0.00000       0.00000    
      7860 MEOH     286      MEOH     HO2      DUMH      0.00000       1.00800           0   0.00000       0.00000    
      7861 MEOH     286      MEOH     H1A      HDA3B    0.800000E-01   1.00800           0   0.00000       0.00000    
      7862 MEOH     286      MEOH     H1B      HDA3B    0.800000E-01   1.00800           0   0.00000       0.00000    
      7863 MEOH     286      MEOH     H1C      HDA3B    0.800000E-01   1.00800           0   0.00000       0.00000    
      7864 MEOH     286      MEOH     LP1A     LPD     -0.230000       0.00000          -1   0.00000       0.00000    
      7865 MEOH     286      MEOH     LP1B     LPD     -0.230000       0.00000          -1   0.00000       0.00000    
      7866 MEOH     287      MEOH     C1       CD33B     2.31410       11.6110           0  -1.00000       1.30000    
      7867 MEOH     287      MEOH     DC1      DRUD     -2.45410      0.400000           0   0.00000       0.00000    
      7868 MEOH     287      MEOH     O1       OD31H     2.48830       15.5990           0  -1.02800       1.30000    
      7869 MEOH     287      MEOH     DO1      DRUD     -2.48830      0.400000           0   0.00000       0.00000    
      7870 MEOH     287      MEOH     HO1      HDP1A    0.360000       1.00800           0   0.00000       0.00000    
      7871 MEOH     287      MEOH     HO2      DUMH      0.00000       1.00800           0   0.00000       0.00000    
      7872 MEOH     287      MEOH     H1A      HDA3B    0.800000E-01   1.00800           0   0.00000       0.00000    
      7873 MEOH     287      MEOH     H1B      HDA3B    0.800000E-01   1.00800           0   0.00000       0.00000    
      7874 MEOH     287      MEOH     H1C      HDA3B    0.800000E-01   1.00800           0   0.00000       0.00000    
      7875 MEOH     287      MEOH     LP1A     LPD     -0.230000       0.00000          -1   0.00000       0.00000    
      7876 MEOH     287      MEOH     LP1B     LPD     -0.230000       0.00000          -1   0.00000       0.00000    
      7877 MEOH     288      MEOH     C1       CD33B     2.31410       11.6110           0  -1.00000       1.30000    
      7878 MEOH     288      MEOH     DC1      DRUD     -2.45410      0.400000           0   0.00000       0.00000    
      7879 MEOH     288      MEOH     O1       OD31H     2.48830       15.5990           0  -1.02800       1.30000    
      7880 MEOH     288      MEOH     DO1      DRUD     -2.48830      0.400000           0   0.00000       0.00000    
      7881 MEOH     288      MEOH     HO1      HDP1A    0.360000       1.00800           0   0.00000       0.00000    
      7882 MEOH     288      MEOH     HO2      DUMH      0.00000       1.00800           0   0.00000       0.00000    
      7883 MEOH     288      MEOH     H1A      HDA3B    0.800000E-01   1.00800           0   0.00000       0.00000    
      7884 MEOH     288      MEOH     H1B      HDA3B    0.800000E-01   1.00800           0   0.00000       0.00000    
      7885 MEOH     288      MEOH     H1C      HDA3B    0.800000E-01   1.00800           0   0.00000       0.00000    
      7886 MEOH     288      MEOH     LP1A     LPD     -0.230000       0.00000          -1   0.00000       0.00000    
      7887 MEOH     288      MEOH     LP1B     LPD     -0.230000       0.00000          -1   0.00000       0.00000    
      7888 MEOH     289      MEOH     C1       CD33B     2.31410       11.6110           0  -1.00000       1.30000    
      7889 MEOH     289      MEOH     DC1      DRUD     -2.45410      0.400000           0   0.00000       0.00000    
      7890 MEOH     289      MEOH     O1       OD31H     2.48830       15.5990           0  -1.02800       1.30000    
      7891 MEOH     289      MEOH     DO1      DRUD     -2.48830      0.400000           0   0.00000       0.00000    
      7892 MEOH     289      MEOH     HO1      HDP1A    0.360000       1.00800           0   0.00000       0.00000    
      7893 MEOH     289      MEOH     HO2      DUMH      0.00000       1.00800           0   0.00000       0.00000    
      7894 MEOH     289      MEOH     H1A      HDA3B    0.800000E-01   1.00800           0   0.00000       0.00000    
      7895 MEOH     289      MEOH     H1B      HDA3B    0.800000E-01   1.00800           0   0.00000       0.00000    
      7896 MEOH     289      MEOH     H1C      HDA3B    0.800000E-01   1.00800           0   0.00000       0.00000    
      7897 MEOH     289      MEOH     LP1A     LPD     -0.230000       0.00000          -1   0.00000       0.00000    
      7898 MEOH     289      MEOH     LP1B     LPD     -0.230000       0.00000          -1   0.00000       0.00000    
      7899 MEOH     290      MEOH     C1       CD33B     2.31410       11.6110           0  -1.00000       1.30000    
      7900 MEOH     290      MEOH     DC1      DRUD     -2.45410      0.400000           0   0.00000       0.00000    
      7901 MEOH     290      MEOH     O1       OD31H     2.48830       15.5990           0  -1.02800       1.30000    
      7902 MEOH     290      MEOH     DO1      DRUD     -2.48830      0.400000           0   0.00000       0.00000    
      7903 MEOH     290      MEOH     HO1      HDP1A    0.360000       1.00800           0   0.00000       0.00000    
      7904 MEOH     290      MEOH     HO2      DUMH      0.00000       1.00800           0   0.00000       0.00000    
      7905 MEOH     290      MEOH     H1A      HDA3B    0.800000E-01   1.00800           0   0.00000       0.00000    
      7906 MEOH     290      MEOH     H1B      HDA3B    0.800000E-01   1.00800           0   0.00000       0.00000    
      7907 MEOH     290      MEOH     H1C      HDA3B    0.800000E-01   1.00800           0   0.00000       0.00000    
      7908 MEOH     290      MEOH     LP1A     LPD     -0.230000       0.00000          -1   0.00000       0.00000    
      7909 MEOH     290      MEOH     LP1B     LPD     -0.230000       0.00000          -1   0.00000       0.00000    
      7910 MEOH     291      MEOH     C1       CD33B     2.31410       11.6110           0  -1.00000       1.30000    
      7911 MEOH     291      MEOH     DC1      DRUD     -2.45410      0.400000           0   0.00000       0.00000    
      7912 MEOH     291      MEOH     O1       OD31H     2.48830       15.5990           0  -1.02800       1.30000    
      7913 MEOH     291      MEOH     DO1      DRUD     -2.48830      0.400000           0   0.00000       0.00000    
      7914 MEOH     291      MEOH     HO1      HDP1A    0.360000       1.00800           0   0.00000       0.00000    
      7915 MEOH     291      MEOH     HO2      DUMH      0.00000       1.00800           0   0.00000       0.00000    
      7916 MEOH     291      MEOH     H1A      HDA3B    0.800000E-01   1.00800           0   0.00000       0.00000    
      7917 MEOH     291      MEOH     H1B      HDA3B    0.800000E-01   1.00800           0   0.00000       0.00000    
      7918 MEOH     291      MEOH     H1C      HDA3B    0.800000E-01   1.00800           0   0.00000       0.00000    
      7919 MEOH     291      MEOH     LP1A     LPD     -0.230000       0.00000          -1   0.00000       0.00000    
      7920 MEOH     291      MEOH     LP1B     LPD     -0.230000       0.00000          -1   0.00000       0.00000    
      7921 MEOH     292      MEOH     C1       CD33B     2.31410       11.6110           0  -1.00000       1.30000    
      7922 MEOH     292      MEOH     DC1      DRUD     -2.45410      0.400000           0   0.00000       0.00000    
      7923 MEOH     292      MEOH     O1       OD31H     2.48830       15.5990           0  -1.02800       1.30000    
      7924 MEOH     292      MEOH     DO1      DRUD     -2.48830      0.400000           0   0.00000       0.00000    
      7925 MEOH     292      MEOH     HO1      HDP1A    0.360000       1.00800           0   0.00000       0.00000    
      7926 MEOH     292      MEOH     HO2      DUMH      0.00000       1.00800           0   0.00000       0.00000    
      7927 MEOH     292      MEOH     H1A      HDA3B    0.800000E-01   1.00800           0   0.00000       0.00000    
      7928 MEOH     292      MEOH     H1B      HDA3B    0.800000E-01   1.00800           0   0.00000       0.00000    
      7929 MEOH     292      MEOH     H1C      HDA3B    0.800000E-01   1.00800           0   0.00000       0.00000    
      7930 MEOH     292      MEOH     LP1A     LPD     -0.230000       0.00000          -1   0.00000       0.00000    
      7931 MEOH     292      MEOH     LP1B     LPD     -0.230000       0.00000          -1   0.00000       0.00000    
      7932 MEOH     293      MEOH     C1       CD33B     2.31410       11.6110           0  -1.00000       1.30000    
      7933 MEOH     293      MEOH     DC1      DRUD     -2.45410      0.400000           0   0.00000       0.00000    
      7934 MEOH     293      MEOH     O1       OD31H     2.48830       15.5990           0  -1.02800       1.30000    
      7935 MEOH     293      MEOH     DO1      DRUD     -2.48830      0.400000           0   0.00000       0.00000    
      7936 MEOH     293      MEOH     HO1      HDP1A    0.360000       1.00800           0   0.00000       0.00000    
      7937 MEOH     293      MEOH     HO2      DUMH      0.00000       1.00800           0   0.00000       0.00000    
      7938 MEOH     293      MEOH     H1A      HDA3B    0.800000E-01   1.00800           0   0.00000       0.00000    
      7939 MEOH     293      MEOH     H1B      HDA3B    0.800000E-01   1.00800           0   0.00000       0.00000    
      7940 MEOH     293      MEOH     H1C      HDA3B    0.800000E-01   1.00800           0   0.00000       0.00000    
      7941 MEOH     293      MEOH     LP1A     LPD     -0.230000       0.00000          -1   0.00000       0.00000    
      7942 MEOH     293      MEOH     LP1B     LPD     -0.230000       0.00000          -1   0.00000       0.00000    
      7943 MEOH     294      MEOH     C1       CD33B     2.31410       11.6110           0  -1.00000       1.30000    
      7944 MEOH     294      MEOH     DC1      DRUD     -2.45410      0.400000           0   0.00000       0.00000    
      7945 MEOH     294      MEOH     O1       OD31H     2.48830       15.5990           0  -1.02800       1.30000    
      7946 MEOH     294      MEOH     DO1      DRUD     -2.48830      0.400000           0   0.00000       0.00000    
      7947 MEOH     294      MEOH     HO1      HDP1A    0.360000       1.00800           0   0.00000       0.00000    
      7948 MEOH     294      MEOH     HO2      DUMH      0.00000       1.00800           0   0.00000       0.00000    
      7949 MEOH     294      MEOH     H1A      HDA3B    0.800000E-01   1.00800           0   0.00000       0.00000    
      7950 MEOH     294      MEOH     H1B      HDA3B    0.800000E-01   1.00800           0   0.00000       0.00000    
      7951 MEOH     294      MEOH     H1C      HDA3B    0.800000E-01   1.00800           0   0.00000       0.00000    
      7952 MEOH     294      MEOH     LP1A     LPD     -0.230000       0.00000          -1   0.00000       0.00000    
      7953 MEOH     294      MEOH     LP1B     LPD     -0.230000       0.00000          -1   0.00000       0.00000    
      7954 MEOH     295      MEOH     C1       CD33B     2.31410       11.6110           0  -1.00000       1.30000    
      7955 MEOH     295      MEOH     DC1      DRUD     -2.45410      0.400000           0   0.00000       0.00000    
      7956 MEOH     295      MEOH     O1       OD31H     2.48830       15.5990           0  -1.02800       1.30000    
      7957 MEOH     295      MEOH     DO1      DRUD     -2.48830      0.400000           0   0.00000       0.00000    
      7958 MEOH     295      MEOH     HO1      HDP1A    0.360000       1.00800           0   0.00000       0.00000    
      7959 MEOH     295      MEOH     HO2      DUMH      0.00000       1.00800           0   0.00000       0.00000    
      7960 MEOH     295      MEOH     H1A      HDA3B    0.800000E-01   1.00800           0   0.00000       0.00000    
      7961 MEOH     295      MEOH     H1B      HDA3B    0.800000E-01   1.00800           0   0.00000       0.00000    
      7962 MEOH     295      MEOH     H1C      HDA3B    0.800000E-01   1.00800           0   0.00000       0.00000    
      7963 MEOH     295      MEOH     LP1A     LPD     -0.230000       0.00000          -1   0.00000       0.00000    
      7964 MEOH     295      MEOH     LP1B     LPD     -0.230000       0.00000          -1   0.00000       0.00000    
      7965 MEOH     296      MEOH     C1       CD33B     2.31410       11.6110           0  -1.00000       1.30000    
      7966 MEOH     296      MEOH     DC1      DRUD     -2.45410      0.400000           0   0.00000       0.00000    
      7967 MEOH     296      MEOH     O1       OD31H     2.48830       15.5990           0  -1.02800       1.30000    
      7968 MEOH     296      MEOH     DO1      DRUD     -2.48830      0.400000           0   0.00000       0.00000    
      7969 MEOH     296      MEOH     HO1      HDP1A    0.360000       1.00800           0   0.00000       0.00000    
      7970 MEOH     296      MEOH     HO2      DUMH      0.00000       1.00800           0   0.00000       0.00000    
      7971 MEOH     296      MEOH     H1A      HDA3B    0.800000E-01   1.00800           0   0.00000       0.00000    
      7972 MEOH     296      MEOH     H1B      HDA3B    0.800000E-01   1.00800           0   0.00000       0.00000    
      7973 MEOH     296      MEOH     H1C      HDA3B    0.800000E-01   1.00800           0   0.00000       0.00000    
      7974 MEOH     296      MEOH     LP1A     LPD     -0.230000       0.00000          -1   0.00000       0.00000    
      7975 MEOH     296      MEOH     LP1B     LPD     -0.230000       0.00000          -1   0.00000       0.00000    
      7976 MEOH     297      MEOH     C1       CD33B     2.31410       11.6110           0  -1.00000       1.30000    
      7977 MEOH     297      MEOH     DC1      DRUD     -2.45410      0.400000           0   0.00000       0.00000    
      7978 MEOH     297      MEOH     O1       OD31H     2.48830       15.5990           0  -1.02800       1.30000    
      7979 MEOH     297      MEOH     DO1      DRUD     -2.48830      0.400000           0   0.00000       0.00000    
      7980 MEOH     297      MEOH     HO1      HDP1A    0.360000       1.00800           0   0.00000       0.00000    
      7981 MEOH     297      MEOH     HO2      DUMH      0.00000       1.00800           0   0.00000       0.00000    
      7982 MEOH     297      MEOH     H1A      HDA3B    0.800000E-01   1.00800           0   0.00000       0.00000    
      7983 MEOH     297      MEOH     H1B      HDA3B    0.800000E-01   1.00800           0   0.00000       0.00000    
      7984 MEOH     297      MEOH     H1C      HDA3B    0.800000E-01   1.00800           0   0.00000       0.00000    
      7985 MEOH     297      MEOH     LP1A     LPD     -0.230000       0.00000          -1   0.00000       0.00000    
      7986 MEOH     297      MEOH     LP1B     LPD     -0.230000       0.00000          -1   0.00000       0.00000    
      7987 MEOH     298      MEOH     C1       CD33B     2.31410       11.6110           0  -1.00000       1.30000    
      7988 MEOH     298      MEOH     DC1      DRUD     -2.45410      0.400000           0   0.00000       0.00000    
      7989 MEOH     298      MEOH     O1       OD31H     2.48830       15.5990           0  -1.02800       1.30000    
      7990 MEOH     298      MEOH     DO1      DRUD     -2.48830      0.400000           0   0.00000       0.00000    
      7991 MEOH     298      MEOH     HO1      HDP1A    0.360000       1.00800           0   0.00000       0.00000    
      7992 MEOH     298      MEOH     HO2      DUMH      0.00000       1.00800           0   0.00000       0.00000    
      7993 MEOH     298      MEOH     H1A      HDA3B    0.800000E-01   1.00800           0   0.00000       0.00000    
      7994 MEOH     298      MEOH     H1B      HDA3B    0.800000E-01   1.00800           0   0.00000       0.00000    
      7995 MEOH     298      MEOH     H1C      HDA3B    0.800000E-01   1.00800           0   0.00000       0.00000    
      7996 MEOH     298      MEOH     LP1A     LPD     -0.230000       0.00000          -1   0.00000       0.00000    
      7997 MEOH     298      MEOH     LP1B     LPD     -0.230000       0.00000          -1   0.00000       0.00000    
      7998 MEOH     299      MEOH     C1       CD33B     2.31410       11.6110           0  -1.00000       1.30000    
      7999 MEOH     299      MEOH     DC1      DRUD     -2.45410      0.400000           0   0.00000       0.00000    
      8000 MEOH     299      MEOH     O1       OD31H     2.48830       15.5990           0  -1.02800       1.30000    
      8001 MEOH     299      MEOH     DO1      DRUD     -2.48830      0.400000           0   0.00000       0.00000    
      8002 MEOH     299      MEOH     HO1      HDP1A    0.360000       1.00800           0   0.00000       0.00000    
      8003 MEOH     299      MEOH     HO2      DUMH      0.00000       1.00800           0   0.00000       0.00000    
      8004 MEOH     299      MEOH     H1A      HDA3B    0.800000E-01   1.00800           0   0.00000       0.00000    
      8005 MEOH     299      MEOH     H1B      HDA3B    0.800000E-01   1.00800           0   0.00000       0.00000    
      8006 MEOH     299      MEOH     H1C      HDA3B    0.800000E-01   1.00800           0   0.00000       0.00000    
      8007 MEOH     299      MEOH     LP1A     LPD     -0.230000       0.00000          -1   0.00000       0.00000    
      8008 MEOH     299      MEOH     LP1B     LPD     -0.230000       0.00000          -1   0.00000       0.00000    
      8009 MEOH     300      MEOH     C1       CD33B     2.31410       11.6110           0  -1.00000       1.30000    
      8010 MEOH     300      MEOH     DC1      DRUD     -2.45410      0.400000           0   0.00000       0.00000    
      8011 MEOH     300      MEOH     O1       OD31H     2.48830       15.5990           0  -1.02800       1.30000    
      8012 MEOH     300      MEOH     DO1      DRUD     -2.48830      0.400000           0   0.00000       0.00000    
      8013 MEOH     300      MEOH     HO1      HDP1A    0.360000       1.00800           0   0.00000       0.00000    
      8014 MEOH     300      MEOH     HO2      DUMH      0.00000       1.00800           0   0.00000       0.00000    
      8015 MEOH     300      MEOH     H1A      HDA3B    0.800000E-01   1.00800           0   0.00000       0.00000    
      8016 MEOH     300      MEOH     H1B      HDA3B    0.800000E-01   1.00800           0   0.00000       0.00000    
      8017 MEOH     300      MEOH     H1C      HDA3B    0.800000E-01   1.00800           0   0.00000       0.00000    
      8018 MEOH     300      MEOH     LP1A     LPD     -0.230000       0.00000          -1   0.00000       0.00000    
      8019 MEOH     300      MEOH     LP1B     LPD     -0.230000       0.00000          -1   0.00000       0.00000    
      8020 MEOH     301      MEOH     C1       CD33B     2.31410       11.6110           0  -1.00000       1.30000    
      8021 MEOH     301      MEOH     DC1      DRUD     -2.45410      0.400000           0   0.00000       0.00000    
      8022 MEOH     301      MEOH     O1       OD31H     2.48830       15.5990           0  -1.02800       1.30000    
      8023 MEOH     301      MEOH     DO1      DRUD     -2.48830      0.400000           0   0.00000       0.00000    
      8024 MEOH     301      MEOH     HO1      HDP1A    0.360000       1.00800           0   0.00000       0.00000    
      8025 MEOH     301      MEOH     HO2      DUMH      0.00000       1.00800           0   0.00000       0.00000    
      8026 MEOH     301      MEOH     H1A      HDA3B    0.800000E-01   1.00800           0   0.00000       0.00000    
      8027 MEOH     301      MEOH     H1B      HDA3B    0.800000E-01   1.00800           0   0.00000       0.00000    
      8028 MEOH     301      MEOH     H1C      HDA3B    0.800000E-01   1.00800           0   0.00000       0.00000    
      8029 MEOH     301      MEOH     LP1A     LPD     -0.230000       0.00000          -1   0.00000       0.00000    
      8030 MEOH     301      MEOH     LP1B     LPD     -0.230000       0.00000          -1   0.00000       0.00000    
      8031 MEOH     302      MEOH     C1       CD33B     2.31410       11.6110           0  -1.00000       1.30000    
      8032 MEOH     302      MEOH     DC1      DRUD     -2.45410      0.400000           0   0.00000       0.00000    
      8033 MEOH     302      MEOH     O1       OD31H     2.48830       15.5990           0  -1.02800       1.30000    
      8034 MEOH     302      MEOH     DO1      DRUD     -2.48830      0.400000           0   0.00000       0.00000    
      8035 MEOH     302      MEOH     HO1      HDP1A    0.360000       1.00800           0   0.00000       0.00000    
      8036 MEOH     302      MEOH     HO2      DUMH      0.00000       1.00800           0   0.00000       0.00000    
      8037 MEOH     302      MEOH     H1A      HDA3B    0.800000E-01   1.00800           0   0.00000       0.00000    
      8038 MEOH     302      MEOH     H1B      HDA3B    0.800000E-01   1.00800           0   0.00000       0.00000    
      8039 MEOH     302      MEOH     H1C      HDA3B    0.800000E-01   1.00800           0   0.00000       0.00000    
      8040 MEOH     302      MEOH     LP1A     LPD     -0.230000       0.00000          -1   0.00000       0.00000    
      8041 MEOH     302      MEOH     LP1B     LPD     -0.230000       0.00000          -1   0.00000       0.00000    
      8042 MEOH     303      MEOH     C1       CD33B     2.31410       11.6110           0  -1.00000       1.30000    
      8043 MEOH     303      MEOH     DC1      DRUD     -2.45410      0.400000           0   0.00000       0.00000    
      8044 MEOH     303      MEOH     O1       OD31H     2.48830       15.5990           0  -1.02800       1.30000    
      8045 MEOH     303      MEOH     DO1      DRUD     -2.48830      0.400000           0   0.00000       0.00000    
      8046 MEOH     303      MEOH     HO1      HDP1A    0.360000       1.00800           0   0.00000       0.00000    
      8047 MEOH     303      MEOH     HO2      DUMH      0.00000       1.00800           0   0.00000       0.00000    
      8048 MEOH     303      MEOH     H1A      HDA3B    0.800000E-01   1.00800           0   0.00000       0.00000    
      8049 MEOH     303      MEOH     H1B      HDA3B    0.800000E-01   1.00800           0   0.00000       0.00000    
      8050 MEOH     303      MEOH     H1C      HDA3B    0.800000E-01   1.00800           0   0.00000       0.00000    
      8051 MEOH     303      MEOH     LP1A     LPD     -0.230000       0.00000          -1   0.00000       0.00000    
      8052 MEOH     303      MEOH     LP1B     LPD     -0.230000       0.00000          -1   0.00000       0.00000    
      8053 MEOH     304      MEOH     C1       CD33B     2.31410       11.6110           0  -1.00000       1.30000    
      8054 MEOH     304      MEOH     DC1      DRUD     -2.45410      0.400000           0   0.00000       0.00000    
      8055 MEOH     304      MEOH     O1       OD31H     2.48830       15.5990           0  -1.02800       1.30000    
      8056 MEOH     304      MEOH     DO1      DRUD     -2.48830      0.400000           0   0.00000       0.00000    
      8057 MEOH     304      MEOH     HO1      HDP1A    0.360000       1.00800           0   0.00000       0.00000    
      8058 MEOH     304      MEOH     HO2      DUMH      0.00000       1.00800           0   0.00000       0.00000    
      8059 MEOH     304      MEOH     H1A      HDA3B    0.800000E-01   1.00800           0   0.00000       0.00000    
      8060 MEOH     304      MEOH     H1B      HDA3B    0.800000E-01   1.00800           0   0.00000       0.00000    
      8061 MEOH     304      MEOH     H1C      HDA3B    0.800000E-01   1.00800           0   0.00000       0.00000    
      8062 MEOH     304      MEOH     LP1A     LPD     -0.230000       0.00000          -1   0.00000       0.00000    
      8063 MEOH     304      MEOH     LP1B     LPD     -0.230000       0.00000          -1   0.00000       0.00000    
      8064 MEOH     305      MEOH     C1       CD33B     2.31410       11.6110           0  -1.00000       1.30000    
      8065 MEOH     305      MEOH     DC1      DRUD     -2.45410      0.400000           0   0.00000       0.00000    
      8066 MEOH     305      MEOH     O1       OD31H     2.48830       15.5990           0  -1.02800       1.30000    
      8067 MEOH     305      MEOH     DO1      DRUD     -2.48830      0.400000           0   0.00000       0.00000    
      8068 MEOH     305      MEOH     HO1      HDP1A    0.360000       1.00800           0   0.00000       0.00000    
      8069 MEOH     305      MEOH     HO2      DUMH      0.00000       1.00800           0   0.00000       0.00000    
      8070 MEOH     305      MEOH     H1A      HDA3B    0.800000E-01   1.00800           0   0.00000       0.00000    
      8071 MEOH     305      MEOH     H1B      HDA3B    0.800000E-01   1.00800           0   0.00000       0.00000    
      8072 MEOH     305      MEOH     H1C      HDA3B    0.800000E-01   1.00800           0   0.00000       0.00000    
      8073 MEOH     305      MEOH     LP1A     LPD     -0.230000       0.00000          -1   0.00000       0.00000    
      8074 MEOH     305      MEOH     LP1B     LPD     -0.230000       0.00000          -1   0.00000       0.00000    
      8075 MEOH     306      MEOH     C1       CD33B     2.31410       11.6110           0  -1.00000       1.30000    
      8076 MEOH     306      MEOH     DC1      DRUD     -2.45410      0.400000           0   0.00000       0.00000    
      8077 MEOH     306      MEOH     O1       OD31H     2.48830       15.5990           0  -1.02800       1.30000    
      8078 MEOH     306      MEOH     DO1      DRUD     -2.48830      0.400000           0   0.00000       0.00000    
      8079 MEOH     306      MEOH     HO1      HDP1A    0.360000       1.00800           0   0.00000       0.00000    
      8080 MEOH     306      MEOH     HO2      DUMH      0.00000       1.00800           0   0.00000       0.00000    
      8081 MEOH     306      MEOH     H1A      HDA3B    0.800000E-01   1.00800           0   0.00000       0.00000    
      8082 MEOH     306      MEOH     H1B      HDA3B    0.800000E-01   1.00800           0   0.00000       0.00000    
      8083 MEOH     306      MEOH     H1C      HDA3B    0.800000E-01   1.00800           0   0.00000       0.00000    
      8084 MEOH     306      MEOH     LP1A     LPD     -0.230000       0.00000          -1   0.00000       0.00000    
      8085 MEOH     306      MEOH     LP1B     LPD     -0.230000       0.00000          -1   0.00000       0.00000    
      8086 MEOH     307      MEOH     C1       CD33B     2.31410       11.6110           0  -1.00000       1.30000    
      8087 MEOH     307      MEOH     DC1      DRUD     -2.45410      0.400000           0   0.00000       0.00000    
      8088 MEOH     307      MEOH     O1       OD31H     2.48830       15.5990           0  -1.02800       1.30000    
      8089 MEOH     307      MEOH     DO1      DRUD     -2.48830      0.400000           0   0.00000       0.00000    
      8090 MEOH     307      MEOH     HO1      HDP1A    0.360000       1.00800           0   0.00000       0.00000    
      8091 MEOH     307      MEOH     HO2      DUMH      0.00000       1.00800           0   0.00000       0.00000    
      8092 MEOH     307      MEOH     H1A      HDA3B    0.800000E-01   1.00800           0   0.00000       0.00000    
      8093 MEOH     307      MEOH     H1B      HDA3B    0.800000E-01   1.00800           0   0.00000       0.00000    
      8094 MEOH     307      MEOH     H1C      HDA3B    0.800000E-01   1.00800           0   0.00000       0.00000    
      8095 MEOH     307      MEOH     LP1A     LPD     -0.230000       0.00000          -1   0.00000       0.00000    
      8096 MEOH     307      MEOH     LP1B     LPD     -0.230000       0.00000          -1   0.00000       0.00000    
      8097 MEOH     308      MEOH     C1       CD33B     2.31410       11.6110           0  -1.00000       1.30000    
      8098 MEOH     308      MEOH     DC1      DRUD     -2.45410      0.400000           0   0.00000       0.00000    
      8099 MEOH     308      MEOH     O1       OD31H     2.48830       15.5990           0  -1.02800       1.30000    
      8100 MEOH     308      MEOH     DO1      DRUD     -2.48830      0.400000           0   0.00000       0.00000    
      8101 MEOH     308      MEOH     HO1      HDP1A    0.360000       1.00800           0   0.00000       0.00000    
      8102 MEOH     308      MEOH     HO2      DUMH      0.00000       1.00800           0   0.00000       0.00000    
      8103 MEOH     308      MEOH     H1A      HDA3B    0.800000E-01   1.00800           0   0.00000       0.00000    
      8104 MEOH     308      MEOH     H1B      HDA3B    0.800000E-01   1.00800           0   0.00000       0.00000    
      8105 MEOH     308      MEOH     H1C      HDA3B    0.800000E-01   1.00800           0   0.00000       0.00000    
      8106 MEOH     308      MEOH     LP1A     LPD     -0.230000       0.00000          -1   0.00000       0.00000    
      8107 MEOH     308      MEOH     LP1B     LPD     -0.230000       0.00000          -1   0.00000       0.00000    
      8108 MEOH     309      MEOH     C1       CD33B     2.31410       11.6110           0  -1.00000       1.30000    
      8109 MEOH     309      MEOH     DC1      DRUD     -2.45410      0.400000           0   0.00000       0.00000    
      8110 MEOH     309      MEOH     O1       OD31H     2.48830       15.5990           0  -1.02800       1.30000    
      8111 MEOH     309      MEOH     DO1      DRUD     -2.48830      0.400000           0   0.00000       0.00000    
      8112 MEOH     309      MEOH     HO1      HDP1A    0.360000       1.00800           0   0.00000       0.00000    
      8113 MEOH     309      MEOH     HO2      DUMH      0.00000       1.00800           0   0.00000       0.00000    
      8114 MEOH     309      MEOH     H1A      HDA3B    0.800000E-01   1.00800           0   0.00000       0.00000    
      8115 MEOH     309      MEOH     H1B      HDA3B    0.800000E-01   1.00800           0   0.00000       0.00000    
      8116 MEOH     309      MEOH     H1C      HDA3B    0.800000E-01   1.00800           0   0.00000       0.00000    
      8117 MEOH     309      MEOH     LP1A     LPD     -0.230000       0.00000          -1   0.00000       0.00000    
      8118 MEOH     309      MEOH     LP1B     LPD     -0.230000       0.00000          -1   0.00000       0.00000    
      8119 MEOH     310      MEOH     C1       CD33B     2.31410       11.6110           0  -1.00000       1.30000    
      8120 MEOH     310      MEOH     DC1      DRUD     -2.45410      0.400000           0   0.00000       0.00000    
      8121 MEOH     310      MEOH     O1       OD31H     2.48830       15.5990           0  -1.02800       1.30000    
      8122 MEOH     310      MEOH     DO1      DRUD     -2.48830      0.400000           0   0.00000       0.00000    
      8123 MEOH     310      MEOH     HO1      HDP1A    0.360000       1.00800           0   0.00000       0.00000    
      8124 MEOH     310      MEOH     HO2      DUMH      0.00000       1.00800           0   0.00000       0.00000    
      8125 MEOH     310      MEOH     H1A      HDA3B    0.800000E-01   1.00800           0   0.00000       0.00000    
      8126 MEOH     310      MEOH     H1B      HDA3B    0.800000E-01   1.00800           0   0.00000       0.00000    
      8127 MEOH     310      MEOH     H1C      HDA3B    0.800000E-01   1.00800           0   0.00000       0.00000    
      8128 MEOH     310      MEOH     LP1A     LPD     -0.230000       0.00000          -1   0.00000       0.00000    
      8129 MEOH     310      MEOH     LP1B     LPD     -0.230000       0.00000          -1   0.00000       0.00000    
      8130 MEOH     311      MEOH     C1       CD33B     2.31410       11.6110           0  -1.00000       1.30000    
      8131 MEOH     311      MEOH     DC1      DRUD     -2.45410      0.400000           0   0.00000       0.00000    
      8132 MEOH     311      MEOH     O1       OD31H     2.48830       15.5990           0  -1.02800       1.30000    
      8133 MEOH     311      MEOH     DO1      DRUD     -2.48830      0.400000           0   0.00000       0.00000    
      8134 MEOH     311      MEOH     HO1      HDP1A    0.360000       1.00800           0   0.00000       0.00000    
      8135 MEOH     311      MEOH     HO2      DUMH      0.00000       1.00800           0   0.00000       0.00000    
      8136 MEOH     311      MEOH     H1A      HDA3B    0.800000E-01   1.00800           0   0.00000       0.00000    
      8137 MEOH     311      MEOH     H1B      HDA3B    0.800000E-01   1.00800           0   0.00000       0.00000    
      8138 MEOH     311      MEOH     H1C      HDA3B    0.800000E-01   1.00800           0   0.00000       0.00000    
      8139 MEOH     311      MEOH     LP1A     LPD     -0.230000       0.00000          -1   0.00000       0.00000    
      8140 MEOH     311      MEOH     LP1B     LPD     -0.230000       0.00000          -1   0.00000       0.00000    
      8141 MEOH     312      MEOH     C1       CD33B     2.31410       11.6110           0  -1.00000       1.30000    
      8142 MEOH     312      MEOH     DC1      DRUD     -2.45410      0.400000           0   0.00000       0.00000    
      8143 MEOH     312      MEOH     O1       OD31H     2.48830       15.5990           0  -1.02800       1.30000    
      8144 MEOH     312      MEOH     DO1      DRUD     -2.48830      0.400000           0   0.00000       0.00000    
      8145 MEOH     312      MEOH     HO1      HDP1A    0.360000       1.00800           0   0.00000       0.00000    
      8146 MEOH     312      MEOH     HO2      DUMH      0.00000       1.00800           0   0.00000       0.00000    
      8147 MEOH     312      MEOH     H1A      HDA3B    0.800000E-01   1.00800           0   0.00000       0.00000    
      8148 MEOH     312      MEOH     H1B      HDA3B    0.800000E-01   1.00800           0   0.00000       0.00000    
      8149 MEOH     312      MEOH     H1C      HDA3B    0.800000E-01   1.00800           0   0.00000       0.00000    
      8150 MEOH     312      MEOH     LP1A     LPD     -0.230000       0.00000          -1   0.00000       0.00000    
      8151 MEOH     312      MEOH     LP1B     LPD     -0.230000       0.00000          -1   0.00000       0.00000    
      8152 MEOH     313      MEOH     C1       CD33B     2.31410       11.6110           0  -1.00000       1.30000    
      8153 MEOH     313      MEOH     DC1      DRUD     -2.45410      0.400000           0   0.00000       0.00000    
      8154 MEOH     313      MEOH     O1       OD31H     2.48830       15.5990           0  -1.02800       1.30000    
      8155 MEOH     313      MEOH     DO1      DRUD     -2.48830      0.400000           0   0.00000       0.00000    
      8156 MEOH     313      MEOH     HO1      HDP1A    0.360000       1.00800           0   0.00000       0.00000    
      8157 MEOH     313      MEOH     HO2      DUMH      0.00000       1.00800           0   0.00000       0.00000    
      8158 MEOH     313      MEOH     H1A      HDA3B    0.800000E-01   1.00800           0   0.00000       0.00000    
      8159 MEOH     313      MEOH     H1B      HDA3B    0.800000E-01   1.00800           0   0.00000       0.00000    
      8160 MEOH     313      MEOH     H1C      HDA3B    0.800000E-01   1.00800           0   0.00000       0.00000    
      8161 MEOH     313      MEOH     LP1A     LPD     -0.230000       0.00000          -1   0.00000       0.00000    
      8162 MEOH     313      MEOH     LP1B     LPD     -0.230000       0.00000          -1   0.00000       0.00000    
      8163 MEOH     314      MEOH     C1       CD33B     2.31410       11.6110           0  -1.00000       1.30000    
      8164 MEOH     314      MEOH     DC1      DRUD     -2.45410      0.400000           0   0.00000       0.00000    
      8165 MEOH     314      MEOH     O1       OD31H     2.48830       15.5990           0  -1.02800       1.30000    
      8166 MEOH     314      MEOH     DO1      DRUD     -2.48830      0.400000           0   0.00000       0.00000    
      8167 MEOH     314      MEOH     HO1      HDP1A    0.360000       1.00800           0   0.00000       0.00000    
      8168 MEOH     314      MEOH     HO2      DUMH      0.00000       1.00800           0   0.00000       0.00000    
      8169 MEOH     314      MEOH     H1A      HDA3B    0.800000E-01   1.00800           0   0.00000       0.00000    
      8170 MEOH     314      MEOH     H1B      HDA3B    0.800000E-01   1.00800           0   0.00000       0.00000    
      8171 MEOH     314      MEOH     H1C      HDA3B    0.800000E-01   1.00800           0   0.00000       0.00000    
      8172 MEOH     314      MEOH     LP1A     LPD     -0.230000       0.00000          -1   0.00000       0.00000    
      8173 MEOH     314      MEOH     LP1B     LPD     -0.230000       0.00000          -1   0.00000       0.00000    
      8174 MEOH     315      MEOH     C1       CD33B     2.31410       11.6110           0  -1.00000       1.30000    
      8175 MEOH     315      MEOH     DC1      DRUD     -2.45410      0.400000           0   0.00000       0.00000    
      8176 MEOH     315      MEOH     O1       OD31H     2.48830       15.5990           0  -1.02800       1.30000    
      8177 MEOH     315      MEOH     DO1      DRUD     -2.48830      0.400000           0   0.00000       0.00000    
      8178 MEOH     315      MEOH     HO1      HDP1A    0.360000       1.00800           0   0.00000       0.00000    
      8179 MEOH     315      MEOH     HO2      DUMH      0.00000       1.00800           0   0.00000       0.00000    
      8180 MEOH     315      MEOH     H1A      HDA3B    0.800000E-01   1.00800           0   0.00000       0.00000    
      8181 MEOH     315      MEOH     H1B      HDA3B    0.800000E-01   1.00800           0   0.00000       0.00000    
      8182 MEOH     315      MEOH     H1C      HDA3B    0.800000E-01   1.00800           0   0.00000       0.00000    
      8183 MEOH     315      MEOH     LP1A     LPD     -0.230000       0.00000          -1   0.00000       0.00000    
      8184 MEOH     315      MEOH     LP1B     LPD     -0.230000       0.00000          -1   0.00000       0.00000    
      8185 MEOH     316      MEOH     C1       CD33B     2.31410       11.6110           0  -1.00000       1.30000    
      8186 MEOH     316      MEOH     DC1      DRUD     -2.45410      0.400000           0   0.00000       0.00000    
      8187 MEOH     316      MEOH     O1       OD31H     2.48830       15.5990           0  -1.02800       1.30000    
      8188 MEOH     316      MEOH     DO1      DRUD     -2.48830      0.400000           0   0.00000       0.00000    
      8189 MEOH     316      MEOH     HO1      HDP1A    0.360000       1.00800           0   0.00000       0.00000    
      8190 MEOH     316      MEOH     HO2      DUMH      0.00000       1.00800           0   0.00000       0.00000    
      8191 MEOH     316      MEOH     H1A      HDA3B    0.800000E-01   1.00800           0   0.00000       0.00000    
      8192 MEOH     316      MEOH     H1B      HDA3B    0.800000E-01   1.00800           0   0.00000       0.00000    
      8193 MEOH     316      MEOH     H1C      HDA3B    0.800000E-01   1.00800           0   0.00000       0.00000    
      8194 MEOH     316      MEOH     LP1A     LPD     -0.230000       0.00000          -1   0.00000       0.00000    
      8195 MEOH     316      MEOH     LP1B     LPD     -0.230000       0.00000          -1   0.00000       0.00000    
      8196 MEOH     317      MEOH     C1       CD33B     2.31410       11.6110           0  -1.00000       1.30000    
      8197 MEOH     317      MEOH     DC1      DRUD     -2.45410      0.400000           0   0.00000       0.00000    
      8198 MEOH     317      MEOH     O1       OD31H     2.48830       15.5990           0  -1.02800       1.30000    
      8199 MEOH     317      MEOH     DO1      DRUD     -2.48830      0.400000           0   0.00000       0.00000    
      8200 MEOH     317      MEOH     HO1      HDP1A    0.360000       1.00800           0   0.00000       0.00000    
      8201 MEOH     317      MEOH     HO2      DUMH      0.00000       1.00800           0   0.00000       0.00000    
      8202 MEOH     317      MEOH     H1A      HDA3B    0.800000E-01   1.00800           0   0.00000       0.00000    
      8203 MEOH     317      MEOH     H1B      HDA3B    0.800000E-01   1.00800           0   0.00000       0.00000    
      8204 MEOH     317      MEOH     H1C      HDA3B    0.800000E-01   1.00800           0   0.00000       0.00000    
      8205 MEOH     317      MEOH     LP1A     LPD     -0.230000       0.00000          -1   0.00000       0.00000    
      8206 MEOH     317      MEOH     LP1B     LPD     -0.230000       0.00000          -1   0.00000       0.00000    
      8207 MEOH     318      MEOH     C1       CD33B     2.31410       11.6110           0  -1.00000       1.30000    
      8208 MEOH     318      MEOH     DC1      DRUD     -2.45410      0.400000           0   0.00000       0.00000    
      8209 MEOH     318      MEOH     O1       OD31H     2.48830       15.5990           0  -1.02800       1.30000    
      8210 MEOH     318      MEOH     DO1      DRUD     -2.48830      0.400000           0   0.00000       0.00000    
      8211 MEOH     318      MEOH     HO1      HDP1A    0.360000       1.00800           0   0.00000       0.00000    
      8212 MEOH     318      MEOH     HO2      DUMH      0.00000       1.00800           0   0.00000       0.00000    
      8213 MEOH     318      MEOH     H1A      HDA3B    0.800000E-01   1.00800           0   0.00000       0.00000    
      8214 MEOH     318      MEOH     H1B      HDA3B    0.800000E-01   1.00800           0   0.00000       0.00000    
      8215 MEOH     318      MEOH     H1C      HDA3B    0.800000E-01   1.00800           0   0.00000       0.00000    
      8216 MEOH     318      MEOH     LP1A     LPD     -0.230000       0.00000          -1   0.00000       0.00000    
      8217 MEOH     318      MEOH     LP1B     LPD     -0.230000       0.00000          -1   0.00000       0.00000    
      8218 MEOH     319      MEOH     C1       CD33B     2.31410       11.6110           0  -1.00000       1.30000    
      8219 MEOH     319      MEOH     DC1      DRUD     -2.45410      0.400000           0   0.00000       0.00000    
      8220 MEOH     319      MEOH     O1       OD31H     2.48830       15.5990           0  -1.02800       1.30000    
      8221 MEOH     319      MEOH     DO1      DRUD     -2.48830      0.400000           0   0.00000       0.00000    
      8222 MEOH     319      MEOH     HO1      HDP1A    0.360000       1.00800           0   0.00000       0.00000    
      8223 MEOH     319      MEOH     HO2      DUMH      0.00000       1.00800           0   0.00000       0.00000    
      8224 MEOH     319      MEOH     H1A      HDA3B    0.800000E-01   1.00800           0   0.00000       0.00000    
      8225 MEOH     319      MEOH     H1B      HDA3B    0.800000E-01   1.00800           0   0.00000       0.00000    
      8226 MEOH     319      MEOH     H1C      HDA3B    0.800000E-01   1.00800           0   0.00000       0.00000    
      8227 MEOH     319      MEOH     LP1A     LPD     -0.230000       0.00000          -1   0.00000       0.00000    
      8228 MEOH     319      MEOH     LP1B     LPD     -0.230000       0.00000          -1   0.00000       0.00000    
      8229 MEOH     320      MEOH     C1       CD33B     2.31410       11.6110           0  -1.00000       1.30000    
      8230 MEOH     320      MEOH     DC1      DRUD     -2.45410      0.400000           0   0.00000       0.00000    
      8231 MEOH     320      MEOH     O1       OD31H     2.48830       15.5990           0  -1.02800       1.30000    
      8232 MEOH     320      MEOH     DO1      DRUD     -2.48830      0.400000           0   0.00000       0.00000    
      8233 MEOH     320      MEOH     HO1      HDP1A    0.360000       1.00800           0   0.00000       0.00000    
      8234 MEOH     320      MEOH     HO2      DUMH      0.00000       1.00800           0   0.00000       0.00000    
      8235 MEOH     320      MEOH     H1A      HDA3B    0.800000E-01   1.00800           0   0.00000       0.00000    
      8236 MEOH     320      MEOH     H1B      HDA3B    0.800000E-01   1.00800           0   0.00000       0.00000    
      8237 MEOH     320      MEOH     H1C      HDA3B    0.800000E-01   1.00800           0   0.00000       0.00000    
      8238 MEOH     320      MEOH     LP1A     LPD     -0.230000       0.00000          -1   0.00000       0.00000    
      8239 MEOH     320      MEOH     LP1B     LPD     -0.230000       0.00000          -1   0.00000       0.00000    
      8240 MEOH     321      MEOH     C1       CD33B     2.31410       11.6110           0  -1.00000       1.30000    
      8241 MEOH     321      MEOH     DC1      DRUD     -2.45410      0.400000           0   0.00000       0.00000    
      8242 MEOH     321      MEOH     O1       OD31H     2.48830       15.5990           0  -1.02800       1.30000    
      8243 MEOH     321      MEOH     DO1      DRUD     -2.48830      0.400000           0   0.00000       0.00000    
      8244 MEOH     321      MEOH     HO1      HDP1A    0.360000       1.00800           0   0.00000       0.00000    
      8245 MEOH     321      MEOH     HO2      DUMH      0.00000       1.00800           0   0.00000       0.00000    
      8246 MEOH     321      MEOH     H1A      HDA3B    0.800000E-01   1.00800           0   0.00000       0.00000    
      8247 MEOH     321      MEOH     H1B      HDA3B    0.800000E-01   1.00800           0   0.00000       0.00000    
      8248 MEOH     321      MEOH     H1C      HDA3B    0.800000E-01   1.00800           0   0.00000       0.00000    
      8249 MEOH     321      MEOH     LP1A     LPD     -0.230000       0.00000          -1   0.00000       0.00000    
      8250 MEOH     321      MEOH     LP1B     LPD     -0.230000       0.00000          -1   0.00000       0.00000    
      8251 MEOH     322      MEOH     C1       CD33B     2.31410       11.6110           0  -1.00000       1.30000    
      8252 MEOH     322      MEOH     DC1      DRUD     -2.45410      0.400000           0   0.00000       0.00000    
      8253 MEOH     322      MEOH     O1       OD31H     2.48830       15.5990           0  -1.02800       1.30000    
      8254 MEOH     322      MEOH     DO1      DRUD     -2.48830      0.400000           0   0.00000       0.00000    
      8255 MEOH     322      MEOH     HO1      HDP1A    0.360000       1.00800           0   0.00000       0.00000    
      8256 MEOH     322      MEOH     HO2      DUMH      0.00000       1.00800           0   0.00000       0.00000    
      8257 MEOH     322      MEOH     H1A      HDA3B    0.800000E-01   1.00800           0   0.00000       0.00000    
      8258 MEOH     322      MEOH     H1B      HDA3B    0.800000E-01   1.00800           0   0.00000       0.00000    
      8259 MEOH     322      MEOH     H1C      HDA3B    0.800000E-01   1.00800           0   0.00000       0.00000    
      8260 MEOH     322      MEOH     LP1A     LPD     -0.230000       0.00000          -1   0.00000       0.00000    
      8261 MEOH     322      MEOH     LP1B     LPD     -0.230000       0.00000          -1   0.00000       0.00000    
      8262 MEOH     323      MEOH     C1       CD33B     2.31410       11.6110           0  -1.00000       1.30000    
      8263 MEOH     323      MEOH     DC1      DRUD     -2.45410      0.400000           0   0.00000       0.00000    
      8264 MEOH     323      MEOH     O1       OD31H     2.48830       15.5990           0  -1.02800       1.30000    
      8265 MEOH     323      MEOH     DO1      DRUD     -2.48830      0.400000           0   0.00000       0.00000    
      8266 MEOH     323      MEOH     HO1      HDP1A    0.360000       1.00800           0   0.00000       0.00000    
      8267 MEOH     323      MEOH     HO2      DUMH      0.00000       1.00800           0   0.00000       0.00000    
      8268 MEOH     323      MEOH     H1A      HDA3B    0.800000E-01   1.00800           0   0.00000       0.00000    
      8269 MEOH     323      MEOH     H1B      HDA3B    0.800000E-01   1.00800           0   0.00000       0.00000    
      8270 MEOH     323      MEOH     H1C      HDA3B    0.800000E-01   1.00800           0   0.00000       0.00000    
      8271 MEOH     323      MEOH     LP1A     LPD     -0.230000       0.00000          -1   0.00000       0.00000    
      8272 MEOH     323      MEOH     LP1B     LPD     -0.230000       0.00000          -1   0.00000       0.00000    
      8273 MEOH     324      MEOH     C1       CD33B     2.31410       11.6110           0  -1.00000       1.30000    
      8274 MEOH     324      MEOH     DC1      DRUD     -2.45410      0.400000           0   0.00000       0.00000    
      8275 MEOH     324      MEOH     O1       OD31H     2.48830       15.5990           0  -1.02800       1.30000    
      8276 MEOH     324      MEOH     DO1      DRUD     -2.48830      0.400000           0   0.00000       0.00000    
      8277 MEOH     324      MEOH     HO1      HDP1A    0.360000       1.00800           0   0.00000       0.00000    
      8278 MEOH     324      MEOH     HO2      DUMH      0.00000       1.00800           0   0.00000       0.00000    
      8279 MEOH     324      MEOH     H1A      HDA3B    0.800000E-01   1.00800           0   0.00000       0.00000    
      8280 MEOH     324      MEOH     H1B      HDA3B    0.800000E-01   1.00800           0   0.00000       0.00000    
      8281 MEOH     324      MEOH     H1C      HDA3B    0.800000E-01   1.00800           0   0.00000       0.00000    
      8282 MEOH     324      MEOH     LP1A     LPD     -0.230000       0.00000          -1   0.00000       0.00000    
      8283 MEOH     324      MEOH     LP1B     LPD     -0.230000       0.00000          -1   0.00000       0.00000    
      8284 MEOH     325      MEOH     C1       CD33B     2.31410       11.6110           0  -1.00000       1.30000    
      8285 MEOH     325      MEOH     DC1      DRUD     -2.45410      0.400000           0   0.00000       0.00000    
      8286 MEOH     325      MEOH     O1       OD31H     2.48830       15.5990           0  -1.02800       1.30000    
      8287 MEOH     325      MEOH     DO1      DRUD     -2.48830      0.400000           0   0.00000       0.00000    
      8288 MEOH     325      MEOH     HO1      HDP1A    0.360000       1.00800           0   0.00000       0.00000    
      8289 MEOH     325      MEOH     HO2      DUMH      0.00000       1.00800           0   0.00000       0.00000    
      8290 MEOH     325      MEOH     H1A      HDA3B    0.800000E-01   1.00800           0   0.00000       0.00000    
      8291 MEOH     325      MEOH     H1B      HDA3B    0.800000E-01   1.00800           0   0.00000       0.00000    
      8292 MEOH     325      MEOH     H1C      HDA3B    0.800000E-01   1.00800           0   0.00000       0.00000    
      8293 MEOH     325      MEOH     LP1A     LPD     -0.230000       0.00000          -1   0.00000       0.00000    
      8294 MEOH     325      MEOH     LP1B     LPD     -0.230000       0.00000          -1   0.00000       0.00000    
      8295 MEOH     326      MEOH     C1       CD33B     2.31410       11.6110           0  -1.00000       1.30000    
      8296 MEOH     326      MEOH     DC1      DRUD     -2.45410      0.400000           0   0.00000       0.00000    
      8297 MEOH     326      MEOH     O1       OD31H     2.48830       15.5990           0  -1.02800       1.30000    
      8298 MEOH     326      MEOH     DO1      DRUD     -2.48830      0.400000           0   0.00000       0.00000    
      8299 MEOH     326      MEOH     HO1      HDP1A    0.360000       1.00800           0   0.00000       0.00000    
      8300 MEOH     326      MEOH     HO2      DUMH      0.00000       1.00800           0   0.00000       0.00000    
      8301 MEOH     326      MEOH     H1A      HDA3B    0.800000E-01   1.00800           0   0.00000       0.00000    
      8302 MEOH     326      MEOH     H1B      HDA3B    0.800000E-01   1.00800           0   0.00000       0.00000    
      8303 MEOH     326      MEOH     H1C      HDA3B    0.800000E-01   1.00800           0   0.00000       0.00000    
      8304 MEOH     326      MEOH     LP1A     LPD     -0.230000       0.00000          -1   0.00000       0.00000    
      8305 MEOH     326      MEOH     LP1B     LPD     -0.230000       0.00000          -1   0.00000       0.00000    
      8306 MEOH     327      MEOH     C1       CD33B     2.31410       11.6110           0  -1.00000       1.30000    
      8307 MEOH     327      MEOH     DC1      DRUD     -2.45410      0.400000           0   0.00000       0.00000    
      8308 MEOH     327      MEOH     O1       OD31H     2.48830       15.5990           0  -1.02800       1.30000    
      8309 MEOH     327      MEOH     DO1      DRUD     -2.48830      0.400000           0   0.00000       0.00000    
      8310 MEOH     327      MEOH     HO1      HDP1A    0.360000       1.00800           0   0.00000       0.00000    
      8311 MEOH     327      MEOH     HO2      DUMH      0.00000       1.00800           0   0.00000       0.00000    
      8312 MEOH     327      MEOH     H1A      HDA3B    0.800000E-01   1.00800           0   0.00000       0.00000    
      8313 MEOH     327      MEOH     H1B      HDA3B    0.800000E-01   1.00800           0   0.00000       0.00000    
      8314 MEOH     327      MEOH     H1C      HDA3B    0.800000E-01   1.00800           0   0.00000       0.00000    
      8315 MEOH     327      MEOH     LP1A     LPD     -0.230000       0.00000          -1   0.00000       0.00000    
      8316 MEOH     327      MEOH     LP1B     LPD     -0.230000       0.00000          -1   0.00000       0.00000    
      8317 MEOH     328      MEOH     C1       CD33B     2.31410       11.6110           0  -1.00000       1.30000    
      8318 MEOH     328      MEOH     DC1      DRUD     -2.45410      0.400000           0   0.00000       0.00000    
      8319 MEOH     328      MEOH     O1       OD31H     2.48830       15.5990           0  -1.02800       1.30000    
      8320 MEOH     328      MEOH     DO1      DRUD     -2.48830      0.400000           0   0.00000       0.00000    
      8321 MEOH     328      MEOH     HO1      HDP1A    0.360000       1.00800           0   0.00000       0.00000    
      8322 MEOH     328      MEOH     HO2      DUMH      0.00000       1.00800           0   0.00000       0.00000    
      8323 MEOH     328      MEOH     H1A      HDA3B    0.800000E-01   1.00800           0   0.00000       0.00000    
      8324 MEOH     328      MEOH     H1B      HDA3B    0.800000E-01   1.00800           0   0.00000       0.00000    
      8325 MEOH     328      MEOH     H1C      HDA3B    0.800000E-01   1.00800           0   0.00000       0.00000    
      8326 MEOH     328      MEOH     LP1A     LPD     -0.230000       0.00000          -1   0.00000       0.00000    
      8327 MEOH     328      MEOH     LP1B     LPD     -0.230000       0.00000          -1   0.00000       0.00000    
      8328 MEOH     329      MEOH     C1       CD33B     2.31410       11.6110           0  -1.00000       1.30000    
      8329 MEOH     329      MEOH     DC1      DRUD     -2.45410      0.400000           0   0.00000       0.00000    
      8330 MEOH     329      MEOH     O1       OD31H     2.48830       15.5990           0  -1.02800       1.30000    
      8331 MEOH     329      MEOH     DO1      DRUD     -2.48830      0.400000           0   0.00000       0.00000    
      8332 MEOH     329      MEOH     HO1      HDP1A    0.360000       1.00800           0   0.00000       0.00000    
      8333 MEOH     329      MEOH     HO2      DUMH      0.00000       1.00800           0   0.00000       0.00000    
      8334 MEOH     329      MEOH     H1A      HDA3B    0.800000E-01   1.00800           0   0.00000       0.00000    
      8335 MEOH     329      MEOH     H1B      HDA3B    0.800000E-01   1.00800           0   0.00000       0.00000    
      8336 MEOH     329      MEOH     H1C      HDA3B    0.800000E-01   1.00800           0   0.00000       0.00000    
      8337 MEOH     329      MEOH     LP1A     LPD     -0.230000       0.00000          -1   0.00000       0.00000    
      8338 MEOH     329      MEOH     LP1B     LPD     -0.230000       0.00000          -1   0.00000       0.00000    
      8339 MEOH     330      MEOH     C1       CD33B     2.31410       11.6110           0  -1.00000       1.30000    
      8340 MEOH     330      MEOH     DC1      DRUD     -2.45410      0.400000           0   0.00000       0.00000    
      8341 MEOH     330      MEOH     O1       OD31H     2.48830       15.5990           0  -1.02800       1.30000    
      8342 MEOH     330      MEOH     DO1      DRUD     -2.48830      0.400000           0   0.00000       0.00000    
      8343 MEOH     330      MEOH     HO1      HDP1A    0.360000       1.00800           0   0.00000       0.00000    
      8344 MEOH     330      MEOH     HO2      DUMH      0.00000       1.00800           0   0.00000       0.00000    
      8345 MEOH     330      MEOH     H1A      HDA3B    0.800000E-01   1.00800           0   0.00000       0.00000    
      8346 MEOH     330      MEOH     H1B      HDA3B    0.800000E-01   1.00800           0   0.00000       0.00000    
      8347 MEOH     330      MEOH     H1C      HDA3B    0.800000E-01   1.00800           0   0.00000       0.00000    
      8348 MEOH     330      MEOH     LP1A     LPD     -0.230000       0.00000          -1   0.00000       0.00000    
      8349 MEOH     330      MEOH     LP1B     LPD     -0.230000       0.00000          -1   0.00000       0.00000    
      8350 MEOH     331      MEOH     C1       CD33B     2.31410       11.6110           0  -1.00000       1.30000    
      8351 MEOH     331      MEOH     DC1      DRUD     -2.45410      0.400000           0   0.00000       0.00000    
      8352 MEOH     331      MEOH     O1       OD31H     2.48830       15.5990           0  -1.02800       1.30000    
      8353 MEOH     331      MEOH     DO1      DRUD     -2.48830      0.400000           0   0.00000       0.00000    
      8354 MEOH     331      MEOH     HO1      HDP1A    0.360000       1.00800           0   0.00000       0.00000    
      8355 MEOH     331      MEOH     HO2      DUMH      0.00000       1.00800           0   0.00000       0.00000    
      8356 MEOH     331      MEOH     H1A      HDA3B    0.800000E-01   1.00800           0   0.00000       0.00000    
      8357 MEOH     331      MEOH     H1B      HDA3B    0.800000E-01   1.00800           0   0.00000       0.00000    
      8358 MEOH     331      MEOH     H1C      HDA3B    0.800000E-01   1.00800           0   0.00000       0.00000    
      8359 MEOH     331      MEOH     LP1A     LPD     -0.230000       0.00000          -1   0.00000       0.00000    
      8360 MEOH     331      MEOH     LP1B     LPD     -0.230000       0.00000          -1   0.00000       0.00000    
      8361 MEOH     332      MEOH     C1       CD33B     2.31410       11.6110           0  -1.00000       1.30000    
      8362 MEOH     332      MEOH     DC1      DRUD     -2.45410      0.400000           0   0.00000       0.00000    
      8363 MEOH     332      MEOH     O1       OD31H     2.48830       15.5990           0  -1.02800       1.30000    
      8364 MEOH     332      MEOH     DO1      DRUD     -2.48830      0.400000           0   0.00000       0.00000    
      8365 MEOH     332      MEOH     HO1      HDP1A    0.360000       1.00800           0   0.00000       0.00000    
      8366 MEOH     332      MEOH     HO2      DUMH      0.00000       1.00800           0   0.00000       0.00000    
      8367 MEOH     332      MEOH     H1A      HDA3B    0.800000E-01   1.00800           0   0.00000       0.00000    
      8368 MEOH     332      MEOH     H1B      HDA3B    0.800000E-01   1.00800           0   0.00000       0.00000    
      8369 MEOH     332      MEOH     H1C      HDA3B    0.800000E-01   1.00800           0   0.00000       0.00000    
      8370 MEOH     332      MEOH     LP1A     LPD     -0.230000       0.00000          -1   0.00000       0.00000    
      8371 MEOH     332      MEOH     LP1B     LPD     -0.230000       0.00000          -1   0.00000       0.00000    
      8372 MEOH     333      MEOH     C1       CD33B     2.31410       11.6110           0  -1.00000       1.30000    
      8373 MEOH     333      MEOH     DC1      DRUD     -2.45410      0.400000           0   0.00000       0.00000    
      8374 MEOH     333      MEOH     O1       OD31H     2.48830       15.5990           0  -1.02800       1.30000    
      8375 MEOH     333      MEOH     DO1      DRUD     -2.48830      0.400000           0   0.00000       0.00000    
      8376 MEOH     333      MEOH     HO1      HDP1A    0.360000       1.00800           0   0.00000       0.00000    
      8377 MEOH     333      MEOH     HO2      DUMH      0.00000       1.00800           0   0.00000       0.00000    
      8378 MEOH     333      MEOH     H1A      HDA3B    0.800000E-01   1.00800           0   0.00000       0.00000    
      8379 MEOH     333      MEOH     H1B      HDA3B    0.800000E-01   1.00800           0   0.00000       0.00000    
      8380 MEOH     333      MEOH     H1C      HDA3B    0.800000E-01   1.00800           0   0.00000       0.00000    
      8381 MEOH     333      MEOH     LP1A     LPD     -0.230000       0.00000          -1   0.00000       0.00000    
      8382 MEOH     333      MEOH     LP1B     LPD     -0.230000       0.00000          -1   0.00000       0.00000    
      8383 MEOH     334      MEOH     C1       CD33B     2.31410       11.6110           0  -1.00000       1.30000    
      8384 MEOH     334      MEOH     DC1      DRUD     -2.45410      0.400000           0   0.00000       0.00000    
      8385 MEOH     334      MEOH     O1       OD31H     2.48830       15.5990           0  -1.02800       1.30000    
      8386 MEOH     334      MEOH     DO1      DRUD     -2.48830      0.400000           0   0.00000       0.00000    
      8387 MEOH     334      MEOH     HO1      HDP1A    0.360000       1.00800           0   0.00000       0.00000    
      8388 MEOH     334      MEOH     HO2      DUMH      0.00000       1.00800           0   0.00000       0.00000    
      8389 MEOH     334      MEOH     H1A      HDA3B    0.800000E-01   1.00800           0   0.00000       0.00000    
      8390 MEOH     334      MEOH     H1B      HDA3B    0.800000E-01   1.00800           0   0.00000       0.00000    
      8391 MEOH     334      MEOH     H1C      HDA3B    0.800000E-01   1.00800           0   0.00000       0.00000    
      8392 MEOH     334      MEOH     LP1A     LPD     -0.230000       0.00000          -1   0.00000       0.00000    
      8393 MEOH     334      MEOH     LP1B     LPD     -0.230000       0.00000          -1   0.00000       0.00000    
      8394 MEOH     335      MEOH     C1       CD33B     2.31410       11.6110           0  -1.00000       1.30000    
      8395 MEOH     335      MEOH     DC1      DRUD     -2.45410      0.400000           0   0.00000       0.00000    
      8396 MEOH     335      MEOH     O1       OD31H     2.48830       15.5990           0  -1.02800       1.30000    
      8397 MEOH     335      MEOH     DO1      DRUD     -2.48830      0.400000           0   0.00000       0.00000    
      8398 MEOH     335      MEOH     HO1      HDP1A    0.360000       1.00800           0   0.00000       0.00000    
      8399 MEOH     335      MEOH     HO2      DUMH      0.00000       1.00800           0   0.00000       0.00000    
      8400 MEOH     335      MEOH     H1A      HDA3B    0.800000E-01   1.00800           0   0.00000       0.00000    
      8401 MEOH     335      MEOH     H1B      HDA3B    0.800000E-01   1.00800           0   0.00000       0.00000    
      8402 MEOH     335      MEOH     H1C      HDA3B    0.800000E-01   1.00800           0   0.00000       0.00000    
      8403 MEOH     335      MEOH     LP1A     LPD     -0.230000       0.00000          -1   0.00000       0.00000    
      8404 MEOH     335      MEOH     LP1B     LPD     -0.230000       0.00000          -1   0.00000       0.00000    
      8405 MEOH     336      MEOH     C1       CD33B     2.31410       11.6110           0  -1.00000       1.30000    
      8406 MEOH     336      MEOH     DC1      DRUD     -2.45410      0.400000           0   0.00000       0.00000    
      8407 MEOH     336      MEOH     O1       OD31H     2.48830       15.5990           0  -1.02800       1.30000    
      8408 MEOH     336      MEOH     DO1      DRUD     -2.48830      0.400000           0   0.00000       0.00000    
      8409 MEOH     336      MEOH     HO1      HDP1A    0.360000       1.00800           0   0.00000       0.00000    
      8410 MEOH     336      MEOH     HO2      DUMH      0.00000       1.00800           0   0.00000       0.00000    
      8411 MEOH     336      MEOH     H1A      HDA3B    0.800000E-01   1.00800           0   0.00000       0.00000    
      8412 MEOH     336      MEOH     H1B      HDA3B    0.800000E-01   1.00800           0   0.00000       0.00000    
      8413 MEOH     336      MEOH     H1C      HDA3B    0.800000E-01   1.00800           0   0.00000       0.00000    
      8414 MEOH     336      MEOH     LP1A     LPD     -0.230000       0.00000          -1   0.00000       0.00000    
      8415 MEOH     336      MEOH     LP1B     LPD     -0.230000       0.00000          -1   0.00000       0.00000    
      8416 MEOH     337      MEOH     C1       CD33B     2.31410       11.6110           0  -1.00000       1.30000    
      8417 MEOH     337      MEOH     DC1      DRUD     -2.45410      0.400000           0   0.00000       0.00000    
      8418 MEOH     337      MEOH     O1       OD31H     2.48830       15.5990           0  -1.02800       1.30000    
      8419 MEOH     337      MEOH     DO1      DRUD     -2.48830      0.400000           0   0.00000       0.00000    
      8420 MEOH     337      MEOH     HO1      HDP1A    0.360000       1.00800           0   0.00000       0.00000    
      8421 MEOH     337      MEOH     HO2      DUMH      0.00000       1.00800           0   0.00000       0.00000    
      8422 MEOH     337      MEOH     H1A      HDA3B    0.800000E-01   1.00800           0   0.00000       0.00000    
      8423 MEOH     337      MEOH     H1B      HDA3B    0.800000E-01   1.00800           0   0.00000       0.00000    
      8424 MEOH     337      MEOH     H1C      HDA3B    0.800000E-01   1.00800           0   0.00000       0.00000    
      8425 MEOH     337      MEOH     LP1A     LPD     -0.230000       0.00000          -1   0.00000       0.00000    
      8426 MEOH     337      MEOH     LP1B     LPD     -0.230000       0.00000          -1   0.00000       0.00000    
      8427 MEOH     338      MEOH     C1       CD33B     2.31410       11.6110           0  -1.00000       1.30000    
      8428 MEOH     338      MEOH     DC1      DRUD     -2.45410      0.400000           0   0.00000       0.00000    
      8429 MEOH     338      MEOH     O1       OD31H     2.48830       15.5990           0  -1.02800       1.30000    
      8430 MEOH     338      MEOH     DO1      DRUD     -2.48830      0.400000           0   0.00000       0.00000    
      8431 MEOH     338      MEOH     HO1      HDP1A    0.360000       1.00800           0   0.00000       0.00000    
      8432 MEOH     338      MEOH     HO2      DUMH      0.00000       1.00800           0   0.00000       0.00000    
      8433 MEOH     338      MEOH     H1A      HDA3B    0.800000E-01   1.00800           0   0.00000       0.00000    
      8434 MEOH     338      MEOH     H1B      HDA3B    0.800000E-01   1.00800           0   0.00000       0.00000    
      8435 MEOH     338      MEOH     H1C      HDA3B    0.800000E-01   1.00800           0   0.00000       0.00000    
      8436 MEOH     338      MEOH     LP1A     LPD     -0.230000       0.00000          -1   0.00000       0.00000    
      8437 MEOH     338      MEOH     LP1B     LPD     -0.230000       0.00000          -1   0.00000       0.00000    
      8438 MEOH     339      MEOH     C1       CD33B     2.31410       11.6110           0  -1.00000       1.30000    
      8439 MEOH     339      MEOH     DC1      DRUD     -2.45410      0.400000           0   0.00000       0.00000    
      8440 MEOH     339      MEOH     O1       OD31H     2.48830       15.5990           0  -1.02800       1.30000    
      8441 MEOH     339      MEOH     DO1      DRUD     -2.48830      0.400000           0   0.00000       0.00000    
      8442 MEOH     339      MEOH     HO1      HDP1A    0.360000       1.00800           0   0.00000       0.00000    
      8443 MEOH     339      MEOH     HO2      DUMH      0.00000       1.00800           0   0.00000       0.00000    
      8444 MEOH     339      MEOH     H1A      HDA3B    0.800000E-01   1.00800           0   0.00000       0.00000    
      8445 MEOH     339      MEOH     H1B      HDA3B    0.800000E-01   1.00800           0   0.00000       0.00000    
      8446 MEOH     339      MEOH     H1C      HDA3B    0.800000E-01   1.00800           0   0.00000       0.00000    
      8447 MEOH     339      MEOH     LP1A     LPD     -0.230000       0.00000          -1   0.00000       0.00000    
      8448 MEOH     339      MEOH     LP1B     LPD     -0.230000       0.00000          -1   0.00000       0.00000    
      8449 MEOH     340      MEOH     C1       CD33B     2.31410       11.6110           0  -1.00000       1.30000    
      8450 MEOH     340      MEOH     DC1      DRUD     -2.45410      0.400000           0   0.00000       0.00000    
      8451 MEOH     340      MEOH     O1       OD31H     2.48830       15.5990           0  -1.02800       1.30000    
      8452 MEOH     340      MEOH     DO1      DRUD     -2.48830      0.400000           0   0.00000       0.00000    
      8453 MEOH     340      MEOH     HO1      HDP1A    0.360000       1.00800           0   0.00000       0.00000    
      8454 MEOH     340      MEOH     HO2      DUMH      0.00000       1.00800           0   0.00000       0.00000    
      8455 MEOH     340      MEOH     H1A      HDA3B    0.800000E-01   1.00800           0   0.00000       0.00000    
      8456 MEOH     340      MEOH     H1B      HDA3B    0.800000E-01   1.00800           0   0.00000       0.00000    
      8457 MEOH     340      MEOH     H1C      HDA3B    0.800000E-01   1.00800           0   0.00000       0.00000    
      8458 MEOH     340      MEOH     LP1A     LPD     -0.230000       0.00000          -1   0.00000       0.00000    
      8459 MEOH     340      MEOH     LP1B     LPD     -0.230000       0.00000          -1   0.00000       0.00000    
      8460 MEOH     341      MEOH     C1       CD33B     2.31410       11.6110           0  -1.00000       1.30000    
      8461 MEOH     341      MEOH     DC1      DRUD     -2.45410      0.400000           0   0.00000       0.00000    
      8462 MEOH     341      MEOH     O1       OD31H     2.48830       15.5990           0  -1.02800       1.30000    
      8463 MEOH     341      MEOH     DO1      DRUD     -2.48830      0.400000           0   0.00000       0.00000    
      8464 MEOH     341      MEOH     HO1      HDP1A    0.360000       1.00800           0   0.00000       0.00000    
      8465 MEOH     341      MEOH     HO2      DUMH      0.00000       1.00800           0   0.00000       0.00000    
      8466 MEOH     341      MEOH     H1A      HDA3B    0.800000E-01   1.00800           0   0.00000       0.00000    
      8467 MEOH     341      MEOH     H1B      HDA3B    0.800000E-01   1.00800           0   0.00000       0.00000    
      8468 MEOH     341      MEOH     H1C      HDA3B    0.800000E-01   1.00800           0   0.00000       0.00000    
      8469 MEOH     341      MEOH     LP1A     LPD     -0.230000       0.00000          -1   0.00000       0.00000    
      8470 MEOH     341      MEOH     LP1B     LPD     -0.230000       0.00000          -1   0.00000       0.00000    
      8471 MEOH     342      MEOH     C1       CD33B     2.31410       11.6110           0  -1.00000       1.30000    
      8472 MEOH     342      MEOH     DC1      DRUD     -2.45410      0.400000           0   0.00000       0.00000    
      8473 MEOH     342      MEOH     O1       OD31H     2.48830       15.5990           0  -1.02800       1.30000    
      8474 MEOH     342      MEOH     DO1      DRUD     -2.48830      0.400000           0   0.00000       0.00000    
      8475 MEOH     342      MEOH     HO1      HDP1A    0.360000       1.00800           0   0.00000       0.00000    
      8476 MEOH     342      MEOH     HO2      DUMH      0.00000       1.00800           0   0.00000       0.00000    
      8477 MEOH     342      MEOH     H1A      HDA3B    0.800000E-01   1.00800           0   0.00000       0.00000    
      8478 MEOH     342      MEOH     H1B      HDA3B    0.800000E-01   1.00800           0   0.00000       0.00000    
      8479 MEOH     342      MEOH     H1C      HDA3B    0.800000E-01   1.00800           0   0.00000       0.00000    
      8480 MEOH     342      MEOH     LP1A     LPD     -0.230000       0.00000          -1   0.00000       0.00000    
      8481 MEOH     342      MEOH     LP1B     LPD     -0.230000       0.00000          -1   0.00000       0.00000    
      8482 MEOH     343      MEOH     C1       CD33B     2.31410       11.6110           0  -1.00000       1.30000    
      8483 MEOH     343      MEOH     DC1      DRUD     -2.45410      0.400000           0   0.00000       0.00000    
      8484 MEOH     343      MEOH     O1       OD31H     2.48830       15.5990           0  -1.02800       1.30000    
      8485 MEOH     343      MEOH     DO1      DRUD     -2.48830      0.400000           0   0.00000       0.00000    
      8486 MEOH     343      MEOH     HO1      HDP1A    0.360000       1.00800           0   0.00000       0.00000    
      8487 MEOH     343      MEOH     HO2      DUMH      0.00000       1.00800           0   0.00000       0.00000    
      8488 MEOH     343      MEOH     H1A      HDA3B    0.800000E-01   1.00800           0   0.00000       0.00000    
      8489 MEOH     343      MEOH     H1B      HDA3B    0.800000E-01   1.00800           0   0.00000       0.00000    
      8490 MEOH     343      MEOH     H1C      HDA3B    0.800000E-01   1.00800           0   0.00000       0.00000    
      8491 MEOH     343      MEOH     LP1A     LPD     -0.230000       0.00000          -1   0.00000       0.00000    
      8492 MEOH     343      MEOH     LP1B     LPD     -0.230000       0.00000          -1   0.00000       0.00000    
      8493 MEOH     344      MEOH     C1       CD33B     2.31410       11.6110           0  -1.00000       1.30000    
      8494 MEOH     344      MEOH     DC1      DRUD     -2.45410      0.400000           0   0.00000       0.00000    
      8495 MEOH     344      MEOH     O1       OD31H     2.48830       15.5990           0  -1.02800       1.30000    
      8496 MEOH     344      MEOH     DO1      DRUD     -2.48830      0.400000           0   0.00000       0.00000    
      8497 MEOH     344      MEOH     HO1      HDP1A    0.360000       1.00800           0   0.00000       0.00000    
      8498 MEOH     344      MEOH     HO2      DUMH      0.00000       1.00800           0   0.00000       0.00000    
      8499 MEOH     344      MEOH     H1A      HDA3B    0.800000E-01   1.00800           0   0.00000       0.00000    
      8500 MEOH     344      MEOH     H1B      HDA3B    0.800000E-01   1.00800           0   0.00000       0.00000    
      8501 MEOH     344      MEOH     H1C      HDA3B    0.800000E-01   1.00800           0   0.00000       0.00000    
      8502 MEOH     344      MEOH     LP1A     LPD     -0.230000       0.00000          -1   0.00000       0.00000    
      8503 MEOH     344      MEOH     LP1B     LPD     -0.230000       0.00000          -1   0.00000       0.00000    
      8504 MEOH     345      MEOH     C1       CD33B     2.31410       11.6110           0  -1.00000       1.30000    
      8505 MEOH     345      MEOH     DC1      DRUD     -2.45410      0.400000           0   0.00000       0.00000    
      8506 MEOH     345      MEOH     O1       OD31H     2.48830       15.5990           0  -1.02800       1.30000    
      8507 MEOH     345      MEOH     DO1      DRUD     -2.48830      0.400000           0   0.00000       0.00000    
      8508 MEOH     345      MEOH     HO1      HDP1A    0.360000       1.00800           0   0.00000       0.00000    
      8509 MEOH     345      MEOH     HO2      DUMH      0.00000       1.00800           0   0.00000       0.00000    
      8510 MEOH     345      MEOH     H1A      HDA3B    0.800000E-01   1.00800           0   0.00000       0.00000    
      8511 MEOH     345      MEOH     H1B      HDA3B    0.800000E-01   1.00800           0   0.00000       0.00000    
      8512 MEOH     345      MEOH     H1C      HDA3B    0.800000E-01   1.00800           0   0.00000       0.00000    
      8513 MEOH     345      MEOH     LP1A     LPD     -0.230000       0.00000          -1   0.00000       0.00000    
      8514 MEOH     345      MEOH     LP1B     LPD     -0.230000       0.00000          -1   0.00000       0.00000    
      8515 MEOH     346      MEOH     C1       CD33B     2.31410       11.6110           0  -1.00000       1.30000    
      8516 MEOH     346      MEOH     DC1      DRUD     -2.45410      0.400000           0   0.00000       0.00000    
      8517 MEOH     346      MEOH     O1       OD31H     2.48830       15.5990           0  -1.02800       1.30000    
      8518 MEOH     346      MEOH     DO1      DRUD     -2.48830      0.400000           0   0.00000       0.00000    
      8519 MEOH     346      MEOH     HO1      HDP1A    0.360000       1.00800           0   0.00000       0.00000    
      8520 MEOH     346      MEOH     HO2      DUMH      0.00000       1.00800           0   0.00000       0.00000    
      8521 MEOH     346      MEOH     H1A      HDA3B    0.800000E-01   1.00800           0   0.00000       0.00000    
      8522 MEOH     346      MEOH     H1B      HDA3B    0.800000E-01   1.00800           0   0.00000       0.00000    
      8523 MEOH     346      MEOH     H1C      HDA3B    0.800000E-01   1.00800           0   0.00000       0.00000    
      8524 MEOH     346      MEOH     LP1A     LPD     -0.230000       0.00000          -1   0.00000       0.00000    
      8525 MEOH     346      MEOH     LP1B     LPD     -0.230000       0.00000          -1   0.00000       0.00000    
      8526 MEOH     347      MEOH     C1       CD33B     2.31410       11.6110           0  -1.00000       1.30000    
      8527 MEOH     347      MEOH     DC1      DRUD     -2.45410      0.400000           0   0.00000       0.00000    
      8528 MEOH     347      MEOH     O1       OD31H     2.48830       15.5990           0  -1.02800       1.30000    
      8529 MEOH     347      MEOH     DO1      DRUD     -2.48830      0.400000           0   0.00000       0.00000    
      8530 MEOH     347      MEOH     HO1      HDP1A    0.360000       1.00800           0   0.00000       0.00000    
      8531 MEOH     347      MEOH     HO2      DUMH      0.00000       1.00800           0   0.00000       0.00000    
      8532 MEOH     347      MEOH     H1A      HDA3B    0.800000E-01   1.00800           0   0.00000       0.00000    
      8533 MEOH     347      MEOH     H1B      HDA3B    0.800000E-01   1.00800           0   0.00000       0.00000    
      8534 MEOH     347      MEOH     H1C      HDA3B    0.800000E-01   1.00800           0   0.00000       0.00000    
      8535 MEOH     347      MEOH     LP1A     LPD     -0.230000       0.00000          -1   0.00000       0.00000    
      8536 MEOH     347      MEOH     LP1B     LPD     -0.230000       0.00000          -1   0.00000       0.00000    
      8537 MEOH     348      MEOH     C1       CD33B     2.31410       11.6110           0  -1.00000       1.30000    
      8538 MEOH     348      MEOH     DC1      DRUD     -2.45410      0.400000           0   0.00000       0.00000    
      8539 MEOH     348      MEOH     O1       OD31H     2.48830       15.5990           0  -1.02800       1.30000    
      8540 MEOH     348      MEOH     DO1      DRUD     -2.48830      0.400000           0   0.00000       0.00000    
      8541 MEOH     348      MEOH     HO1      HDP1A    0.360000       1.00800           0   0.00000       0.00000    
      8542 MEOH     348      MEOH     HO2      DUMH      0.00000       1.00800           0   0.00000       0.00000    
      8543 MEOH     348      MEOH     H1A      HDA3B    0.800000E-01   1.00800           0   0.00000       0.00000    
      8544 MEOH     348      MEOH     H1B      HDA3B    0.800000E-01   1.00800           0   0.00000       0.00000    
      8545 MEOH     348      MEOH     H1C      HDA3B    0.800000E-01   1.00800           0   0.00000       0.00000    
      8546 MEOH     348      MEOH     LP1A     LPD     -0.230000       0.00000          -1   0.00000       0.00000    
      8547 MEOH     348      MEOH     LP1B     LPD     -0.230000       0.00000          -1   0.00000       0.00000    
      8548 MEOH     349      MEOH     C1       CD33B     2.31410       11.6110           0  -1.00000       1.30000    
      8549 MEOH     349      MEOH     DC1      DRUD     -2.45410      0.400000           0   0.00000       0.00000    
      8550 MEOH     349      MEOH     O1       OD31H     2.48830       15.5990           0  -1.02800       1.30000    
      8551 MEOH     349      MEOH     DO1      DRUD     -2.48830      0.400000           0   0.00000       0.00000    
      8552 MEOH     349      MEOH     HO1      HDP1A    0.360000       1.00800           0   0.00000       0.00000    
      8553 MEOH     349      MEOH     HO2      DUMH      0.00000       1.00800           0   0.00000       0.00000    
      8554 MEOH     349      MEOH     H1A      HDA3B    0.800000E-01   1.00800           0   0.00000       0.00000    
      8555 MEOH     349      MEOH     H1B      HDA3B    0.800000E-01   1.00800           0   0.00000       0.00000    
      8556 MEOH     349      MEOH     H1C      HDA3B    0.800000E-01   1.00800           0   0.00000       0.00000    
      8557 MEOH     349      MEOH     LP1A     LPD     -0.230000       0.00000          -1   0.00000       0.00000    
      8558 MEOH     349      MEOH     LP1B     LPD     -0.230000       0.00000          -1   0.00000       0.00000    
      8559 MEOH     350      MEOH     C1       CD33B     2.31410       11.6110           0  -1.00000       1.30000    
      8560 MEOH     350      MEOH     DC1      DRUD     -2.45410      0.400000           0   0.00000       0.00000    
      8561 MEOH     350      MEOH     O1       OD31H     2.48830       15.5990           0  -1.02800       1.30000    
      8562 MEOH     350      MEOH     DO1      DRUD     -2.48830      0.400000           0   0.00000       0.00000    
      8563 MEOH     350      MEOH     HO1      HDP1A    0.360000       1.00800           0   0.00000       0.00000    
      8564 MEOH     350      MEOH     HO2      DUMH      0.00000       1.00800           0   0.00000       0.00000    
      8565 MEOH     350      MEOH     H1A      HDA3B    0.800000E-01   1.00800           0   0.00000       0.00000    
      8566 MEOH     350      MEOH     H1B      HDA3B    0.800000E-01   1.00800           0   0.00000       0.00000    
      8567 MEOH     350      MEOH     H1C      HDA3B    0.800000E-01   1.00800           0   0.00000       0.00000    
      8568 MEOH     350      MEOH     LP1A     LPD     -0.230000       0.00000          -1   0.00000       0.00000    
      8569 MEOH     350      MEOH     LP1B     LPD     -0.230000       0.00000          -1   0.00000       0.00000    
      8570 MEOH     351      MEOH     C1       CD33B     2.31410       11.6110           0  -1.00000       1.30000    
      8571 MEOH     351      MEOH     DC1      DRUD     -2.45410      0.400000           0   0.00000       0.00000    
      8572 MEOH     351      MEOH     O1       OD31H     2.48830       15.5990           0  -1.02800       1.30000    
      8573 MEOH     351      MEOH     DO1      DRUD     -2.48830      0.400000           0   0.00000       0.00000    
      8574 MEOH     351      MEOH     HO1      HDP1A    0.360000       1.00800           0   0.00000       0.00000    
      8575 MEOH     351      MEOH     HO2      DUMH      0.00000       1.00800           0   0.00000       0.00000    
      8576 MEOH     351      MEOH     H1A      HDA3B    0.800000E-01   1.00800           0   0.00000       0.00000    
      8577 MEOH     351      MEOH     H1B      HDA3B    0.800000E-01   1.00800           0   0.00000       0.00000    
      8578 MEOH     351      MEOH     H1C      HDA3B    0.800000E-01   1.00800           0   0.00000       0.00000    
      8579 MEOH     351      MEOH     LP1A     LPD     -0.230000       0.00000          -1   0.00000       0.00000    
      8580 MEOH     351      MEOH     LP1B     LPD     -0.230000       0.00000          -1   0.00000       0.00000    
      8581 MEOH     352      MEOH     C1       CD33B     2.31410       11.6110           0  -1.00000       1.30000    
      8582 MEOH     352      MEOH     DC1      DRUD     -2.45410      0.400000           0   0.00000       0.00000    
      8583 MEOH     352      MEOH     O1       OD31H     2.48830       15.5990           0  -1.02800       1.30000    
      8584 MEOH     352      MEOH     DO1      DRUD     -2.48830      0.400000           0   0.00000       0.00000    
      8585 MEOH     352      MEOH     HO1      HDP1A    0.360000       1.00800           0   0.00000       0.00000    
      8586 MEOH     352      MEOH     HO2      DUMH      0.00000       1.00800           0   0.00000       0.00000    
      8587 MEOH     352      MEOH     H1A      HDA3B    0.800000E-01   1.00800           0   0.00000       0.00000    
      8588 MEOH     352      MEOH     H1B      HDA3B    0.800000E-01   1.00800           0   0.00000       0.00000    
      8589 MEOH     352      MEOH     H1C      HDA3B    0.800000E-01   1.00800           0   0.00000       0.00000    
      8590 MEOH     352      MEOH     LP1A     LPD     -0.230000       0.00000          -1   0.00000       0.00000    
      8591 MEOH     352      MEOH     LP1B     LPD     -0.230000       0.00000          -1   0.00000       0.00000    
      8592 MEOH     353      MEOH     C1       CD33B     2.31410       11.6110           0  -1.00000       1.30000    
      8593 MEOH     353      MEOH     DC1      DRUD     -2.45410      0.400000           0   0.00000       0.00000    
      8594 MEOH     353      MEOH     O1       OD31H     2.48830       15.5990           0  -1.02800       1.30000    
      8595 MEOH     353      MEOH     DO1      DRUD     -2.48830      0.400000           0   0.00000       0.00000    
      8596 MEOH     353      MEOH     HO1      HDP1A    0.360000       1.00800           0   0.00000       0.00000    
      8597 MEOH     353      MEOH     HO2      DUMH      0.00000       1.00800           0   0.00000       0.00000    
      8598 MEOH     353      MEOH     H1A      HDA3B    0.800000E-01   1.00800           0   0.00000       0.00000    
      8599 MEOH     353      MEOH     H1B      HDA3B    0.800000E-01   1.00800           0   0.00000       0.00000    
      8600 MEOH     353      MEOH     H1C      HDA3B    0.800000E-01   1.00800           0   0.00000       0.00000    
      8601 MEOH     353      MEOH     LP1A     LPD     -0.230000       0.00000          -1   0.00000       0.00000    
      8602 MEOH     353      MEOH     LP1B     LPD     -0.230000       0.00000          -1   0.00000       0.00000    
      8603 MEOH     354      MEOH     C1       CD33B     2.31410       11.6110           0  -1.00000       1.30000    
      8604 MEOH     354      MEOH     DC1      DRUD     -2.45410      0.400000           0   0.00000       0.00000    
      8605 MEOH     354      MEOH     O1       OD31H     2.48830       15.5990           0  -1.02800       1.30000    
      8606 MEOH     354      MEOH     DO1      DRUD     -2.48830      0.400000           0   0.00000       0.00000    
      8607 MEOH     354      MEOH     HO1      HDP1A    0.360000       1.00800           0   0.00000       0.00000    
      8608 MEOH     354      MEOH     HO2      DUMH      0.00000       1.00800           0   0.00000       0.00000    
      8609 MEOH     354      MEOH     H1A      HDA3B    0.800000E-01   1.00800           0   0.00000       0.00000    
      8610 MEOH     354      MEOH     H1B      HDA3B    0.800000E-01   1.00800           0   0.00000       0.00000    
      8611 MEOH     354      MEOH     H1C      HDA3B    0.800000E-01   1.00800           0   0.00000       0.00000    
      8612 MEOH     354      MEOH     LP1A     LPD     -0.230000       0.00000          -1   0.00000       0.00000    
      8613 MEOH     354      MEOH     LP1B     LPD     -0.230000       0.00000          -1   0.00000       0.00000    
      8614 MEOH     355      MEOH     C1       CD33B     2.31410       11.6110           0  -1.00000       1.30000    
      8615 MEOH     355      MEOH     DC1      DRUD     -2.45410      0.400000           0   0.00000       0.00000    
      8616 MEOH     355      MEOH     O1       OD31H     2.48830       15.5990           0  -1.02800       1.30000    
      8617 MEOH     355      MEOH     DO1      DRUD     -2.48830      0.400000           0   0.00000       0.00000    
      8618 MEOH     355      MEOH     HO1      HDP1A    0.360000       1.00800           0   0.00000       0.00000    
      8619 MEOH     355      MEOH     HO2      DUMH      0.00000       1.00800           0   0.00000       0.00000    
      8620 MEOH     355      MEOH     H1A      HDA3B    0.800000E-01   1.00800           0   0.00000       0.00000    
      8621 MEOH     355      MEOH     H1B      HDA3B    0.800000E-01   1.00800           0   0.00000       0.00000    
      8622 MEOH     355      MEOH     H1C      HDA3B    0.800000E-01   1.00800           0   0.00000       0.00000    
      8623 MEOH     355      MEOH     LP1A     LPD     -0.230000       0.00000          -1   0.00000       0.00000    
      8624 MEOH     355      MEOH     LP1B     LPD     -0.230000       0.00000          -1   0.00000       0.00000    
      8625 MEOH     356      MEOH     C1       CD33B     2.31410       11.6110           0  -1.00000       1.30000    
      8626 MEOH     356      MEOH     DC1      DRUD     -2.45410      0.400000           0   0.00000       0.00000    
      8627 MEOH     356      MEOH     O1       OD31H     2.48830       15.5990           0  -1.02800       1.30000    
      8628 MEOH     356      MEOH     DO1      DRUD     -2.48830      0.400000           0   0.00000       0.00000    
      8629 MEOH     356      MEOH     HO1      HDP1A    0.360000       1.00800           0   0.00000       0.00000    
      8630 MEOH     356      MEOH     HO2      DUMH      0.00000       1.00800           0   0.00000       0.00000    
      8631 MEOH     356      MEOH     H1A      HDA3B    0.800000E-01   1.00800           0   0.00000       0.00000    
      8632 MEOH     356      MEOH     H1B      HDA3B    0.800000E-01   1.00800           0   0.00000       0.00000    
      8633 MEOH     356      MEOH     H1C      HDA3B    0.800000E-01   1.00800           0   0.00000       0.00000    
      8634 MEOH     356      MEOH     LP1A     LPD     -0.230000       0.00000          -1   0.00000       0.00000    
      8635 MEOH     356      MEOH     LP1B     LPD     -0.230000       0.00000          -1   0.00000       0.00000    
      8636 MEOH     357      MEOH     C1       CD33B     2.31410       11.6110           0  -1.00000       1.30000    
      8637 MEOH     357      MEOH     DC1      DRUD     -2.45410      0.400000           0   0.00000       0.00000    
      8638 MEOH     357      MEOH     O1       OD31H     2.48830       15.5990           0  -1.02800       1.30000    
      8639 MEOH     357      MEOH     DO1      DRUD     -2.48830      0.400000           0   0.00000       0.00000    
      8640 MEOH     357      MEOH     HO1      HDP1A    0.360000       1.00800           0   0.00000       0.00000    
      8641 MEOH     357      MEOH     HO2      DUMH      0.00000       1.00800           0   0.00000       0.00000    
      8642 MEOH     357      MEOH     H1A      HDA3B    0.800000E-01   1.00800           0   0.00000       0.00000    
      8643 MEOH     357      MEOH     H1B      HDA3B    0.800000E-01   1.00800           0   0.00000       0.00000    
      8644 MEOH     357      MEOH     H1C      HDA3B    0.800000E-01   1.00800           0   0.00000       0.00000    
      8645 MEOH     357      MEOH     LP1A     LPD     -0.230000       0.00000          -1   0.00000       0.00000    
      8646 MEOH     357      MEOH     LP1B     LPD     -0.230000       0.00000          -1   0.00000       0.00000    
      8647 MEOH     358      MEOH     C1       CD33B     2.31410       11.6110           0  -1.00000       1.30000    
      8648 MEOH     358      MEOH     DC1      DRUD     -2.45410      0.400000           0   0.00000       0.00000    
      8649 MEOH     358      MEOH     O1       OD31H     2.48830       15.5990           0  -1.02800       1.30000    
      8650 MEOH     358      MEOH     DO1      DRUD     -2.48830      0.400000           0   0.00000       0.00000    
      8651 MEOH     358      MEOH     HO1      HDP1A    0.360000       1.00800           0   0.00000       0.00000    
      8652 MEOH     358      MEOH     HO2      DUMH      0.00000       1.00800           0   0.00000       0.00000    
      8653 MEOH     358      MEOH     H1A      HDA3B    0.800000E-01   1.00800           0   0.00000       0.00000    
      8654 MEOH     358      MEOH     H1B      HDA3B    0.800000E-01   1.00800           0   0.00000       0.00000    
      8655 MEOH     358      MEOH     H1C      HDA3B    0.800000E-01   1.00800           0   0.00000       0.00000    
      8656 MEOH     358      MEOH     LP1A     LPD     -0.230000       0.00000          -1   0.00000       0.00000    
      8657 MEOH     358      MEOH     LP1B     LPD     -0.230000       0.00000          -1   0.00000       0.00000    
      8658 MEOH     359      MEOH     C1       CD33B     2.31410       11.6110           0  -1.00000       1.30000    
      8659 MEOH     359      MEOH     DC1      DRUD     -2.45410      0.400000           0   0.00000       0.00000    
      8660 MEOH     359      MEOH     O1       OD31H     2.48830       15.5990           0  -1.02800       1.30000    
      8661 MEOH     359      MEOH     DO1      DRUD     -2.48830      0.400000           0   0.00000       0.00000    
      8662 MEOH     359      MEOH     HO1      HDP1A    0.360000       1.00800           0   0.00000       0.00000    
      8663 MEOH     359      MEOH     HO2      DUMH      0.00000       1.00800           0   0.00000       0.00000    
      8664 MEOH     359      MEOH     H1A      HDA3B    0.800000E-01   1.00800           0   0.00000       0.00000    
      8665 MEOH     359      MEOH     H1B      HDA3B    0.800000E-01   1.00800           0   0.00000       0.00000    
      8666 MEOH     359      MEOH     H1C      HDA3B    0.800000E-01   1.00800           0   0.00000       0.00000    
      8667 MEOH     359      MEOH     LP1A     LPD     -0.230000       0.00000          -1   0.00000       0.00000    
      8668 MEOH     359      MEOH     LP1B     LPD     -0.230000       0.00000          -1   0.00000       0.00000    
      8669 MEOH     360      MEOH     C1       CD33B     2.31410       11.6110           0  -1.00000       1.30000    
      8670 MEOH     360      MEOH     DC1      DRUD     -2.45410      0.400000           0   0.00000       0.00000    
      8671 MEOH     360      MEOH     O1       OD31H     2.48830       15.5990           0  -1.02800       1.30000    
      8672 MEOH     360      MEOH     DO1      DRUD     -2.48830      0.400000           0   0.00000       0.00000    
      8673 MEOH     360      MEOH     HO1      HDP1A    0.360000       1.00800           0   0.00000       0.00000    
      8674 MEOH     360      MEOH     HO2      DUMH      0.00000       1.00800           0   0.00000       0.00000    
      8675 MEOH     360      MEOH     H1A      HDA3B    0.800000E-01   1.00800           0   0.00000       0.00000    
      8676 MEOH     360      MEOH     H1B      HDA3B    0.800000E-01   1.00800           0   0.00000       0.00000    
      8677 MEOH     360      MEOH     H1C      HDA3B    0.800000E-01   1.00800           0   0.00000       0.00000    
      8678 MEOH     360      MEOH     LP1A     LPD     -0.230000       0.00000          -1   0.00000       0.00000    
      8679 MEOH     360      MEOH     LP1B     LPD     -0.230000       0.00000          -1   0.00000       0.00000    
      8680 MEOH     361      MEOH     C1       CD33B     2.31410       11.6110           0  -1.00000       1.30000    
      8681 MEOH     361      MEOH     DC1      DRUD     -2.45410      0.400000           0   0.00000       0.00000    
      8682 MEOH     361      MEOH     O1       OD31H     2.48830       15.5990           0  -1.02800       1.30000    
      8683 MEOH     361      MEOH     DO1      DRUD     -2.48830      0.400000           0   0.00000       0.00000    
      8684 MEOH     361      MEOH     HO1      HDP1A    0.360000       1.00800           0   0.00000       0.00000    
      8685 MEOH     361      MEOH     HO2      DUMH      0.00000       1.00800           0   0.00000       0.00000    
      8686 MEOH     361      MEOH     H1A      HDA3B    0.800000E-01   1.00800           0   0.00000       0.00000    
      8687 MEOH     361      MEOH     H1B      HDA3B    0.800000E-01   1.00800           0   0.00000       0.00000    
      8688 MEOH     361      MEOH     H1C      HDA3B    0.800000E-01   1.00800           0   0.00000       0.00000    
      8689 MEOH     361      MEOH     LP1A     LPD     -0.230000       0.00000          -1   0.00000       0.00000    
      8690 MEOH     361      MEOH     LP1B     LPD     -0.230000       0.00000          -1   0.00000       0.00000    
      8691 MEOH     362      MEOH     C1       CD33B     2.31410       11.6110           0  -1.00000       1.30000    
      8692 MEOH     362      MEOH     DC1      DRUD     -2.45410      0.400000           0   0.00000       0.00000    
      8693 MEOH     362      MEOH     O1       OD31H     2.48830       15.5990           0  -1.02800       1.30000    
      8694 MEOH     362      MEOH     DO1      DRUD     -2.48830      0.400000           0   0.00000       0.00000    
      8695 MEOH     362      MEOH     HO1      HDP1A    0.360000       1.00800           0   0.00000       0.00000    
      8696 MEOH     362      MEOH     HO2      DUMH      0.00000       1.00800           0   0.00000       0.00000    
      8697 MEOH     362      MEOH     H1A      HDA3B    0.800000E-01   1.00800           0   0.00000       0.00000    
      8698 MEOH     362      MEOH     H1B      HDA3B    0.800000E-01   1.00800           0   0.00000       0.00000    
      8699 MEOH     362      MEOH     H1C      HDA3B    0.800000E-01   1.00800           0   0.00000       0.00000    
      8700 MEOH     362      MEOH     LP1A     LPD     -0.230000       0.00000          -1   0.00000       0.00000    
      8701 MEOH     362      MEOH     LP1B     LPD     -0.230000       0.00000          -1   0.00000       0.00000    
      8702 MEOH     363      MEOH     C1       CD33B     2.31410       11.6110           0  -1.00000       1.30000    
      8703 MEOH     363      MEOH     DC1      DRUD     -2.45410      0.400000           0   0.00000       0.00000    
      8704 MEOH     363      MEOH     O1       OD31H     2.48830       15.5990           0  -1.02800       1.30000    
      8705 MEOH     363      MEOH     DO1      DRUD     -2.48830      0.400000           0   0.00000       0.00000    
      8706 MEOH     363      MEOH     HO1      HDP1A    0.360000       1.00800           0   0.00000       0.00000    
      8707 MEOH     363      MEOH     HO2      DUMH      0.00000       1.00800           0   0.00000       0.00000    
      8708 MEOH     363      MEOH     H1A      HDA3B    0.800000E-01   1.00800           0   0.00000       0.00000    
      8709 MEOH     363      MEOH     H1B      HDA3B    0.800000E-01   1.00800           0   0.00000       0.00000    
      8710 MEOH     363      MEOH     H1C      HDA3B    0.800000E-01   1.00800           0   0.00000       0.00000    
      8711 MEOH     363      MEOH     LP1A     LPD     -0.230000       0.00000          -1   0.00000       0.00000    
      8712 MEOH     363      MEOH     LP1B     LPD     -0.230000       0.00000          -1   0.00000       0.00000    
      8713 MEOH     364      MEOH     C1       CD33B     2.31410       11.6110           0  -1.00000       1.30000    
      8714 MEOH     364      MEOH     DC1      DRUD     -2.45410      0.400000           0   0.00000       0.00000    
      8715 MEOH     364      MEOH     O1       OD31H     2.48830       15.5990           0  -1.02800       1.30000    
      8716 MEOH     364      MEOH     DO1      DRUD     -2.48830      0.400000           0   0.00000       0.00000    
      8717 MEOH     364      MEOH     HO1      HDP1A    0.360000       1.00800           0   0.00000       0.00000    
      8718 MEOH     364      MEOH     HO2      DUMH      0.00000       1.00800           0   0.00000       0.00000    
      8719 MEOH     364      MEOH     H1A      HDA3B    0.800000E-01   1.00800           0   0.00000       0.00000    
      8720 MEOH     364      MEOH     H1B      HDA3B    0.800000E-01   1.00800           0   0.00000       0.00000    
      8721 MEOH     364      MEOH     H1C      HDA3B    0.800000E-01   1.00800           0   0.00000       0.00000    
      8722 MEOH     364      MEOH     LP1A     LPD     -0.230000       0.00000          -1   0.00000       0.00000    
      8723 MEOH     364      MEOH     LP1B     LPD     -0.230000       0.00000          -1   0.00000       0.00000    
      8724 MEOH     365      MEOH     C1       CD33B     2.31410       11.6110           0  -1.00000       1.30000    
      8725 MEOH     365      MEOH     DC1      DRUD     -2.45410      0.400000           0   0.00000       0.00000    
      8726 MEOH     365      MEOH     O1       OD31H     2.48830       15.5990           0  -1.02800       1.30000    
      8727 MEOH     365      MEOH     DO1      DRUD     -2.48830      0.400000           0   0.00000       0.00000    
      8728 MEOH     365      MEOH     HO1      HDP1A    0.360000       1.00800           0   0.00000       0.00000    
      8729 MEOH     365      MEOH     HO2      DUMH      0.00000       1.00800           0   0.00000       0.00000    
      8730 MEOH     365      MEOH     H1A      HDA3B    0.800000E-01   1.00800           0   0.00000       0.00000    
      8731 MEOH     365      MEOH     H1B      HDA3B    0.800000E-01   1.00800           0   0.00000       0.00000    
      8732 MEOH     365      MEOH     H1C      HDA3B    0.800000E-01   1.00800           0   0.00000       0.00000    
      8733 MEOH     365      MEOH     LP1A     LPD     -0.230000       0.00000          -1   0.00000       0.00000    
      8734 MEOH     365      MEOH     LP1B     LPD     -0.230000       0.00000          -1   0.00000       0.00000    
      8735 MEOH     366      MEOH     C1       CD33B     2.31410       11.6110           0  -1.00000       1.30000    
      8736 MEOH     366      MEOH     DC1      DRUD     -2.45410      0.400000           0   0.00000       0.00000    
      8737 MEOH     366      MEOH     O1       OD31H     2.48830       15.5990           0  -1.02800       1.30000    
      8738 MEOH     366      MEOH     DO1      DRUD     -2.48830      0.400000           0   0.00000       0.00000    
      8739 MEOH     366      MEOH     HO1      HDP1A    0.360000       1.00800           0   0.00000       0.00000    
      8740 MEOH     366      MEOH     HO2      DUMH      0.00000       1.00800           0   0.00000       0.00000    
      8741 MEOH     366      MEOH     H1A      HDA3B    0.800000E-01   1.00800           0   0.00000       0.00000    
      8742 MEOH     366      MEOH     H1B      HDA3B    0.800000E-01   1.00800           0   0.00000       0.00000    
      8743 MEOH     366      MEOH     H1C      HDA3B    0.800000E-01   1.00800           0   0.00000       0.00000    
      8744 MEOH     366      MEOH     LP1A     LPD     -0.230000       0.00000          -1   0.00000       0.00000    
      8745 MEOH     366      MEOH     LP1B     LPD     -0.230000       0.00000          -1   0.00000       0.00000    
      8746 MEOH     367      MEOH     C1       CD33B     2.31410       11.6110           0  -1.00000       1.30000    
      8747 MEOH     367      MEOH     DC1      DRUD     -2.45410      0.400000           0   0.00000       0.00000    
      8748 MEOH     367      MEOH     O1       OD31H     2.48830       15.5990           0  -1.02800       1.30000    
      8749 MEOH     367      MEOH     DO1      DRUD     -2.48830      0.400000           0   0.00000       0.00000    
      8750 MEOH     367      MEOH     HO1      HDP1A    0.360000       1.00800           0   0.00000       0.00000    
      8751 MEOH     367      MEOH     HO2      DUMH      0.00000       1.00800           0   0.00000       0.00000    
      8752 MEOH     367      MEOH     H1A      HDA3B    0.800000E-01   1.00800           0   0.00000       0.00000    
      8753 MEOH     367      MEOH     H1B      HDA3B    0.800000E-01   1.00800           0   0.00000       0.00000    
      8754 MEOH     367      MEOH     H1C      HDA3B    0.800000E-01   1.00800           0   0.00000       0.00000    
      8755 MEOH     367      MEOH     LP1A     LPD     -0.230000       0.00000          -1   0.00000       0.00000    
      8756 MEOH     367      MEOH     LP1B     LPD     -0.230000       0.00000          -1   0.00000       0.00000    
      8757 MEOH     368      MEOH     C1       CD33B     2.31410       11.6110           0  -1.00000       1.30000    
      8758 MEOH     368      MEOH     DC1      DRUD     -2.45410      0.400000           0   0.00000       0.00000    
      8759 MEOH     368      MEOH     O1       OD31H     2.48830       15.5990           0  -1.02800       1.30000    
      8760 MEOH     368      MEOH     DO1      DRUD     -2.48830      0.400000           0   0.00000       0.00000    
      8761 MEOH     368      MEOH     HO1      HDP1A    0.360000       1.00800           0   0.00000       0.00000    
      8762 MEOH     368      MEOH     HO2      DUMH      0.00000       1.00800           0   0.00000       0.00000    
      8763 MEOH     368      MEOH     H1A      HDA3B    0.800000E-01   1.00800           0   0.00000       0.00000    
      8764 MEOH     368      MEOH     H1B      HDA3B    0.800000E-01   1.00800           0   0.00000       0.00000    
      8765 MEOH     368      MEOH     H1C      HDA3B    0.800000E-01   1.00800           0   0.00000       0.00000    
      8766 MEOH     368      MEOH     LP1A     LPD     -0.230000       0.00000          -1   0.00000       0.00000    
      8767 MEOH     368      MEOH     LP1B     LPD     -0.230000       0.00000          -1   0.00000       0.00000    
      8768 MEOH     369      MEOH     C1       CD33B     2.31410       11.6110           0  -1.00000       1.30000    
      8769 MEOH     369      MEOH     DC1      DRUD     -2.45410      0.400000           0   0.00000       0.00000    
      8770 MEOH     369      MEOH     O1       OD31H     2.48830       15.5990           0  -1.02800       1.30000    
      8771 MEOH     369      MEOH     DO1      DRUD     -2.48830      0.400000           0   0.00000       0.00000    
      8772 MEOH     369      MEOH     HO1      HDP1A    0.360000       1.00800           0   0.00000       0.00000    
      8773 MEOH     369      MEOH     HO2      DUMH      0.00000       1.00800           0   0.00000       0.00000    
      8774 MEOH     369      MEOH     H1A      HDA3B    0.800000E-01   1.00800           0   0.00000       0.00000    
      8775 MEOH     369      MEOH     H1B      HDA3B    0.800000E-01   1.00800           0   0.00000       0.00000    
      8776 MEOH     369      MEOH     H1C      HDA3B    0.800000E-01   1.00800           0   0.00000       0.00000    
      8777 MEOH     369      MEOH     LP1A     LPD     -0.230000       0.00000          -1   0.00000       0.00000    
      8778 MEOH     369      MEOH     LP1B     LPD     -0.230000       0.00000          -1   0.00000       0.00000    
      8779 MEOH     370      MEOH     C1       CD33B     2.31410       11.6110           0  -1.00000       1.30000    
      8780 MEOH     370      MEOH     DC1      DRUD     -2.45410      0.400000           0   0.00000       0.00000    
      8781 MEOH     370      MEOH     O1       OD31H     2.48830       15.5990           0  -1.02800       1.30000    
      8782 MEOH     370      MEOH     DO1      DRUD     -2.48830      0.400000           0   0.00000       0.00000    
      8783 MEOH     370      MEOH     HO1      HDP1A    0.360000       1.00800           0   0.00000       0.00000    
      8784 MEOH     370      MEOH     HO2      DUMH      0.00000       1.00800           0   0.00000       0.00000    
      8785 MEOH     370      MEOH     H1A      HDA3B    0.800000E-01   1.00800           0   0.00000       0.00000    
      8786 MEOH     370      MEOH     H1B      HDA3B    0.800000E-01   1.00800           0   0.00000       0.00000    
      8787 MEOH     370      MEOH     H1C      HDA3B    0.800000E-01   1.00800           0   0.00000       0.00000    
      8788 MEOH     370      MEOH     LP1A     LPD     -0.230000       0.00000          -1   0.00000       0.00000    
      8789 MEOH     370      MEOH     LP1B     LPD     -0.230000       0.00000          -1   0.00000       0.00000    
      8790 MEOH     371      MEOH     C1       CD33B     2.31410       11.6110           0  -1.00000       1.30000    
      8791 MEOH     371      MEOH     DC1      DRUD     -2.45410      0.400000           0   0.00000       0.00000    
      8792 MEOH     371      MEOH     O1       OD31H     2.48830       15.5990           0  -1.02800       1.30000    
      8793 MEOH     371      MEOH     DO1      DRUD     -2.48830      0.400000           0   0.00000       0.00000    
      8794 MEOH     371      MEOH     HO1      HDP1A    0.360000       1.00800           0   0.00000       0.00000    
      8795 MEOH     371      MEOH     HO2      DUMH      0.00000       1.00800           0   0.00000       0.00000    
      8796 MEOH     371      MEOH     H1A      HDA3B    0.800000E-01   1.00800           0   0.00000       0.00000    
      8797 MEOH     371      MEOH     H1B      HDA3B    0.800000E-01   1.00800           0   0.00000       0.00000    
      8798 MEOH     371      MEOH     H1C      HDA3B    0.800000E-01   1.00800           0   0.00000       0.00000    
      8799 MEOH     371      MEOH     LP1A     LPD     -0.230000       0.00000          -1   0.00000       0.00000    
      8800 MEOH     371      MEOH     LP1B     LPD     -0.230000       0.00000          -1   0.00000       0.00000    
      8801 MEOH     372      MEOH     C1       CD33B     2.31410       11.6110           0  -1.00000       1.30000    
      8802 MEOH     372      MEOH     DC1      DRUD     -2.45410      0.400000           0   0.00000       0.00000    
      8803 MEOH     372      MEOH     O1       OD31H     2.48830       15.5990           0  -1.02800       1.30000    
      8804 MEOH     372      MEOH     DO1      DRUD     -2.48830      0.400000           0   0.00000       0.00000    
      8805 MEOH     372      MEOH     HO1      HDP1A    0.360000       1.00800           0   0.00000       0.00000    
      8806 MEOH     372      MEOH     HO2      DUMH      0.00000       1.00800           0   0.00000       0.00000    
      8807 MEOH     372      MEOH     H1A      HDA3B    0.800000E-01   1.00800           0   0.00000       0.00000    
      8808 MEOH     372      MEOH     H1B      HDA3B    0.800000E-01   1.00800           0   0.00000       0.00000    
      8809 MEOH     372      MEOH     H1C      HDA3B    0.800000E-01   1.00800           0   0.00000       0.00000    
      8810 MEOH     372      MEOH     LP1A     LPD     -0.230000       0.00000          -1   0.00000       0.00000    
      8811 MEOH     372      MEOH     LP1B     LPD     -0.230000       0.00000          -1   0.00000       0.00000    
      8812 MEOH     373      MEOH     C1       CD33B     2.31410       11.6110           0  -1.00000       1.30000    
      8813 MEOH     373      MEOH     DC1      DRUD     -2.45410      0.400000           0   0.00000       0.00000    
      8814 MEOH     373      MEOH     O1       OD31H     2.48830       15.5990           0  -1.02800       1.30000    
      8815 MEOH     373      MEOH     DO1      DRUD     -2.48830      0.400000           0   0.00000       0.00000    
      8816 MEOH     373      MEOH     HO1      HDP1A    0.360000       1.00800           0   0.00000       0.00000    
      8817 MEOH     373      MEOH     HO2      DUMH      0.00000       1.00800           0   0.00000       0.00000    
      8818 MEOH     373      MEOH     H1A      HDA3B    0.800000E-01   1.00800           0   0.00000       0.00000    
      8819 MEOH     373      MEOH     H1B      HDA3B    0.800000E-01   1.00800           0   0.00000       0.00000    
      8820 MEOH     373      MEOH     H1C      HDA3B    0.800000E-01   1.00800           0   0.00000       0.00000    
      8821 MEOH     373      MEOH     LP1A     LPD     -0.230000       0.00000          -1   0.00000       0.00000    
      8822 MEOH     373      MEOH     LP1B     LPD     -0.230000       0.00000          -1   0.00000       0.00000    
      8823 MEOH     374      MEOH     C1       CD33B     2.31410       11.6110           0  -1.00000       1.30000    
      8824 MEOH     374      MEOH     DC1      DRUD     -2.45410      0.400000           0   0.00000       0.00000    
      8825 MEOH     374      MEOH     O1       OD31H     2.48830       15.5990           0  -1.02800       1.30000    
      8826 MEOH     374      MEOH     DO1      DRUD     -2.48830      0.400000           0   0.00000       0.00000    
      8827 MEOH     374      MEOH     HO1      HDP1A    0.360000       1.00800           0   0.00000       0.00000    
      8828 MEOH     374      MEOH     HO2      DUMH      0.00000       1.00800           0   0.00000       0.00000    
      8829 MEOH     374      MEOH     H1A      HDA3B    0.800000E-01   1.00800           0   0.00000       0.00000    
      8830 MEOH     374      MEOH     H1B      HDA3B    0.800000E-01   1.00800           0   0.00000       0.00000    
      8831 MEOH     374      MEOH     H1C      HDA3B    0.800000E-01   1.00800           0   0.00000       0.00000    
      8832 MEOH     374      MEOH     LP1A     LPD     -0.230000       0.00000          -1   0.00000       0.00000    
      8833 MEOH     374      MEOH     LP1B     LPD     -0.230000       0.00000          -1   0.00000       0.00000    
      8834 MEOH     375      MEOH     C1       CD33B     2.31410       11.6110           0  -1.00000       1.30000    
      8835 MEOH     375      MEOH     DC1      DRUD     -2.45410      0.400000           0   0.00000       0.00000    
      8836 MEOH     375      MEOH     O1       OD31H     2.48830       15.5990           0  -1.02800       1.30000    
      8837 MEOH     375      MEOH     DO1      DRUD     -2.48830      0.400000           0   0.00000       0.00000    
      8838 MEOH     375      MEOH     HO1      HDP1A    0.360000       1.00800           0   0.00000       0.00000    
      8839 MEOH     375      MEOH     HO2      DUMH      0.00000       1.00800           0   0.00000       0.00000    
      8840 MEOH     375      MEOH     H1A      HDA3B    0.800000E-01   1.00800           0   0.00000       0.00000    
      8841 MEOH     375      MEOH     H1B      HDA3B    0.800000E-01   1.00800           0   0.00000       0.00000    
      8842 MEOH     375      MEOH     H1C      HDA3B    0.800000E-01   1.00800           0   0.00000       0.00000    
      8843 MEOH     375      MEOH     LP1A     LPD     -0.230000       0.00000          -1   0.00000       0.00000    
      8844 MEOH     375      MEOH     LP1B     LPD     -0.230000       0.00000          -1   0.00000       0.00000    
      8845 MEOH     376      MEOH     C1       CD33B     2.31410       11.6110           0  -1.00000       1.30000    
      8846 MEOH     376      MEOH     DC1      DRUD     -2.45410      0.400000           0   0.00000       0.00000    
      8847 MEOH     376      MEOH     O1       OD31H     2.48830       15.5990           0  -1.02800       1.30000    
      8848 MEOH     376      MEOH     DO1      DRUD     -2.48830      0.400000           0   0.00000       0.00000    
      8849 MEOH     376      MEOH     HO1      HDP1A    0.360000       1.00800           0   0.00000       0.00000    
      8850 MEOH     376      MEOH     HO2      DUMH      0.00000       1.00800           0   0.00000       0.00000    
      8851 MEOH     376      MEOH     H1A      HDA3B    0.800000E-01   1.00800           0   0.00000       0.00000    
      8852 MEOH     376      MEOH     H1B      HDA3B    0.800000E-01   1.00800           0   0.00000       0.00000    
      8853 MEOH     376      MEOH     H1C      HDA3B    0.800000E-01   1.00800           0   0.00000       0.00000    
      8854 MEOH     376      MEOH     LP1A     LPD     -0.230000       0.00000          -1   0.00000       0.00000    
      8855 MEOH     376      MEOH     LP1B     LPD     -0.230000       0.00000          -1   0.00000       0.00000    
      8856 MEOH     377      MEOH     C1       CD33B     2.31410       11.6110           0  -1.00000       1.30000    
      8857 MEOH     377      MEOH     DC1      DRUD     -2.45410      0.400000           0   0.00000       0.00000    
      8858 MEOH     377      MEOH     O1       OD31H     2.48830       15.5990           0  -1.02800       1.30000    
      8859 MEOH     377      MEOH     DO1      DRUD     -2.48830      0.400000           0   0.00000       0.00000    
      8860 MEOH     377      MEOH     HO1      HDP1A    0.360000       1.00800           0   0.00000       0.00000    
      8861 MEOH     377      MEOH     HO2      DUMH      0.00000       1.00800           0   0.00000       0.00000    
      8862 MEOH     377      MEOH     H1A      HDA3B    0.800000E-01   1.00800           0   0.00000       0.00000    
      8863 MEOH     377      MEOH     H1B      HDA3B    0.800000E-01   1.00800           0   0.00000       0.00000    
      8864 MEOH     377      MEOH     H1C      HDA3B    0.800000E-01   1.00800           0   0.00000       0.00000    
      8865 MEOH     377      MEOH     LP1A     LPD     -0.230000       0.00000          -1   0.00000       0.00000    
      8866 MEOH     377      MEOH     LP1B     LPD     -0.230000       0.00000          -1   0.00000       0.00000    
      8867 MEOH     378      MEOH     C1       CD33B     2.31410       11.6110           0  -1.00000       1.30000    
      8868 MEOH     378      MEOH     DC1      DRUD     -2.45410      0.400000           0   0.00000       0.00000    
      8869 MEOH     378      MEOH     O1       OD31H     2.48830       15.5990           0  -1.02800       1.30000    
      8870 MEOH     378      MEOH     DO1      DRUD     -2.48830      0.400000           0   0.00000       0.00000    
      8871 MEOH     378      MEOH     HO1      HDP1A    0.360000       1.00800           0   0.00000       0.00000    
      8872 MEOH     378      MEOH     HO2      DUMH      0.00000       1.00800           0   0.00000       0.00000    
      8873 MEOH     378      MEOH     H1A      HDA3B    0.800000E-01   1.00800           0   0.00000       0.00000    
      8874 MEOH     378      MEOH     H1B      HDA3B    0.800000E-01   1.00800           0   0.00000       0.00000    
      8875 MEOH     378      MEOH     H1C      HDA3B    0.800000E-01   1.00800           0   0.00000       0.00000    
      8876 MEOH     378      MEOH     LP1A     LPD     -0.230000       0.00000          -1   0.00000       0.00000    
      8877 MEOH     378      MEOH     LP1B     LPD     -0.230000       0.00000          -1   0.00000       0.00000    
      8878 MEOH     379      MEOH     C1       CD33B     2.31410       11.6110           0  -1.00000       1.30000    
      8879 MEOH     379      MEOH     DC1      DRUD     -2.45410      0.400000           0   0.00000       0.00000    
      8880 MEOH     379      MEOH     O1       OD31H     2.48830       15.5990           0  -1.02800       1.30000    
      8881 MEOH     379      MEOH     DO1      DRUD     -2.48830      0.400000           0   0.00000       0.00000    
      8882 MEOH     379      MEOH     HO1      HDP1A    0.360000       1.00800           0   0.00000       0.00000    
      8883 MEOH     379      MEOH     HO2      DUMH      0.00000       1.00800           0   0.00000       0.00000    
      8884 MEOH     379      MEOH     H1A      HDA3B    0.800000E-01   1.00800           0   0.00000       0.00000    
      8885 MEOH     379      MEOH     H1B      HDA3B    0.800000E-01   1.00800           0   0.00000       0.00000    
      8886 MEOH     379      MEOH     H1C      HDA3B    0.800000E-01   1.00800           0   0.00000       0.00000    
      8887 MEOH     379      MEOH     LP1A     LPD     -0.230000       0.00000          -1   0.00000       0.00000    
      8888 MEOH     379      MEOH     LP1B     LPD     -0.230000       0.00000          -1   0.00000       0.00000    
      8889 MEOH     380      MEOH     C1       CD33B     2.31410       11.6110           0  -1.00000       1.30000    
      8890 MEOH     380      MEOH     DC1      DRUD     -2.45410      0.400000           0   0.00000       0.00000    
      8891 MEOH     380      MEOH     O1       OD31H     2.48830       15.5990           0  -1.02800       1.30000    
      8892 MEOH     380      MEOH     DO1      DRUD     -2.48830      0.400000           0   0.00000       0.00000    
      8893 MEOH     380      MEOH     HO1      HDP1A    0.360000       1.00800           0   0.00000       0.00000    
      8894 MEOH     380      MEOH     HO2      DUMH      0.00000       1.00800           0   0.00000       0.00000    
      8895 MEOH     380      MEOH     H1A      HDA3B    0.800000E-01   1.00800           0   0.00000       0.00000    
      8896 MEOH     380      MEOH     H1B      HDA3B    0.800000E-01   1.00800           0   0.00000       0.00000    
      8897 MEOH     380      MEOH     H1C      HDA3B    0.800000E-01   1.00800           0   0.00000       0.00000    
      8898 MEOH     380      MEOH     LP1A     LPD     -0.230000       0.00000          -1   0.00000       0.00000    
      8899 MEOH     380      MEOH     LP1B     LPD     -0.230000       0.00000          -1   0.00000       0.00000    
      8900 MEOH     381      MEOH     C1       CD33B     2.31410       11.6110           0  -1.00000       1.30000    
      8901 MEOH     381      MEOH     DC1      DRUD     -2.45410      0.400000           0   0.00000       0.00000    
      8902 MEOH     381      MEOH     O1       OD31H     2.48830       15.5990           0  -1.02800       1.30000    
      8903 MEOH     381      MEOH     DO1      DRUD     -2.48830      0.400000           0   0.00000       0.00000    
      8904 MEOH     381      MEOH     HO1      HDP1A    0.360000       1.00800           0   0.00000       0.00000    
      8905 MEOH     381      MEOH     HO2      DUMH      0.00000       1.00800           0   0.00000       0.00000    
      8906 MEOH     381      MEOH     H1A      HDA3B    0.800000E-01   1.00800           0   0.00000       0.00000    
      8907 MEOH     381      MEOH     H1B      HDA3B    0.800000E-01   1.00800           0   0.00000       0.00000    
      8908 MEOH     381      MEOH     H1C      HDA3B    0.800000E-01   1.00800           0   0.00000       0.00000    
      8909 MEOH     381      MEOH     LP1A     LPD     -0.230000       0.00000          -1   0.00000       0.00000    
      8910 MEOH     381      MEOH     LP1B     LPD     -0.230000       0.00000          -1   0.00000       0.00000    
      8911 MEOH     382      MEOH     C1       CD33B     2.31410       11.6110           0  -1.00000       1.30000    
      8912 MEOH     382      MEOH     DC1      DRUD     -2.45410      0.400000           0   0.00000       0.00000    
      8913 MEOH     382      MEOH     O1       OD31H     2.48830       15.5990           0  -1.02800       1.30000    
      8914 MEOH     382      MEOH     DO1      DRUD     -2.48830      0.400000           0   0.00000       0.00000    
      8915 MEOH     382      MEOH     HO1      HDP1A    0.360000       1.00800           0   0.00000       0.00000    
      8916 MEOH     382      MEOH     HO2      DUMH      0.00000       1.00800           0   0.00000       0.00000    
      8917 MEOH     382      MEOH     H1A      HDA3B    0.800000E-01   1.00800           0   0.00000       0.00000    
      8918 MEOH     382      MEOH     H1B      HDA3B    0.800000E-01   1.00800           0   0.00000       0.00000    
      8919 MEOH     382      MEOH     H1C      HDA3B    0.800000E-01   1.00800           0   0.00000       0.00000    
      8920 MEOH     382      MEOH     LP1A     LPD     -0.230000       0.00000          -1   0.00000       0.00000    
      8921 MEOH     382      MEOH     LP1B     LPD     -0.230000       0.00000          -1   0.00000       0.00000    
      8922 MEOH     383      MEOH     C1       CD33B     2.31410       11.6110           0  -1.00000       1.30000    
      8923 MEOH     383      MEOH     DC1      DRUD     -2.45410      0.400000           0   0.00000       0.00000    
      8924 MEOH     383      MEOH     O1       OD31H     2.48830       15.5990           0  -1.02800       1.30000    
      8925 MEOH     383      MEOH     DO1      DRUD     -2.48830      0.400000           0   0.00000       0.00000    
      8926 MEOH     383      MEOH     HO1      HDP1A    0.360000       1.00800           0   0.00000       0.00000    
      8927 MEOH     383      MEOH     HO2      DUMH      0.00000       1.00800           0   0.00000       0.00000    
      8928 MEOH     383      MEOH     H1A      HDA3B    0.800000E-01   1.00800           0   0.00000       0.00000    
      8929 MEOH     383      MEOH     H1B      HDA3B    0.800000E-01   1.00800           0   0.00000       0.00000    
      8930 MEOH     383      MEOH     H1C      HDA3B    0.800000E-01   1.00800           0   0.00000       0.00000    
      8931 MEOH     383      MEOH     LP1A     LPD     -0.230000       0.00000          -1   0.00000       0.00000    
      8932 MEOH     383      MEOH     LP1B     LPD     -0.230000       0.00000          -1   0.00000       0.00000    
      8933 MEOH     384      MEOH     C1       CD33B     2.31410       11.6110           0  -1.00000       1.30000    
      8934 MEOH     384      MEOH     DC1      DRUD     -2.45410      0.400000           0   0.00000       0.00000    
      8935 MEOH     384      MEOH     O1       OD31H     2.48830       15.5990           0  -1.02800       1.30000    
      8936 MEOH     384      MEOH     DO1      DRUD     -2.48830      0.400000           0   0.00000       0.00000    
      8937 MEOH     384      MEOH     HO1      HDP1A    0.360000       1.00800           0   0.00000       0.00000    
      8938 MEOH     384      MEOH     HO2      DUMH      0.00000       1.00800           0   0.00000       0.00000    
      8939 MEOH     384      MEOH     H1A      HDA3B    0.800000E-01   1.00800           0   0.00000       0.00000    
      8940 MEOH     384      MEOH     H1B      HDA3B    0.800000E-01   1.00800           0   0.00000       0.00000    
      8941 MEOH     384      MEOH     H1C      HDA3B    0.800000E-01   1.00800           0   0.00000       0.00000    
      8942 MEOH     384      MEOH     LP1A     LPD     -0.230000       0.00000          -1   0.00000       0.00000    
      8943 MEOH     384      MEOH     LP1B     LPD     -0.230000       0.00000          -1   0.00000       0.00000    
      8944 MEOH     385      MEOH     C1       CD33B     2.31410       11.6110           0  -1.00000       1.30000    
      8945 MEOH     385      MEOH     DC1      DRUD     -2.45410      0.400000           0   0.00000       0.00000    
      8946 MEOH     385      MEOH     O1       OD31H     2.48830       15.5990           0  -1.02800       1.30000    
      8947 MEOH     385      MEOH     DO1      DRUD     -2.48830      0.400000           0   0.00000       0.00000    
      8948 MEOH     385      MEOH     HO1      HDP1A    0.360000       1.00800           0   0.00000       0.00000    
      8949 MEOH     385      MEOH     HO2      DUMH      0.00000       1.00800           0   0.00000       0.00000    
      8950 MEOH     385      MEOH     H1A      HDA3B    0.800000E-01   1.00800           0   0.00000       0.00000    
      8951 MEOH     385      MEOH     H1B      HDA3B    0.800000E-01   1.00800           0   0.00000       0.00000    
      8952 MEOH     385      MEOH     H1C      HDA3B    0.800000E-01   1.00800           0   0.00000       0.00000    
      8953 MEOH     385      MEOH     LP1A     LPD     -0.230000       0.00000          -1   0.00000       0.00000    
      8954 MEOH     385      MEOH     LP1B     LPD     -0.230000       0.00000          -1   0.00000       0.00000    
      8955 MEOH     386      MEOH     C1       CD33B     2.31410       11.6110           0  -1.00000       1.30000    
      8956 MEOH     386      MEOH     DC1      DRUD     -2.45410      0.400000           0   0.00000       0.00000    
      8957 MEOH     386      MEOH     O1       OD31H     2.48830       15.5990           0  -1.02800       1.30000    
      8958 MEOH     386      MEOH     DO1      DRUD     -2.48830      0.400000           0   0.00000       0.00000    
      8959 MEOH     386      MEOH     HO1      HDP1A    0.360000       1.00800           0   0.00000       0.00000    
      8960 MEOH     386      MEOH     HO2      DUMH      0.00000       1.00800           0   0.00000       0.00000    
      8961 MEOH     386      MEOH     H1A      HDA3B    0.800000E-01   1.00800           0   0.00000       0.00000    
      8962 MEOH     386      MEOH     H1B      HDA3B    0.800000E-01   1.00800           0   0.00000       0.00000    
      8963 MEOH     386      MEOH     H1C      HDA3B    0.800000E-01   1.00800           0   0.00000       0.00000    
      8964 MEOH     386      MEOH     LP1A     LPD     -0.230000       0.00000          -1   0.00000       0.00000    
      8965 MEOH     386      MEOH     LP1B     LPD     -0.230000       0.00000          -1   0.00000       0.00000    
      8966 MEOH     387      MEOH     C1       CD33B     2.31410       11.6110           0  -1.00000       1.30000    
      8967 MEOH     387      MEOH     DC1      DRUD     -2.45410      0.400000           0   0.00000       0.00000    
      8968 MEOH     387      MEOH     O1       OD31H     2.48830       15.5990           0  -1.02800       1.30000    
      8969 MEOH     387      MEOH     DO1      DRUD     -2.48830      0.400000           0   0.00000       0.00000    
      8970 MEOH     387      MEOH     HO1      HDP1A    0.360000       1.00800           0   0.00000       0.00000    
      8971 MEOH     387      MEOH     HO2      DUMH      0.00000       1.00800           0   0.00000       0.00000    
      8972 MEOH     387      MEOH     H1A      HDA3B    0.800000E-01   1.00800           0   0.00000       0.00000    
      8973 MEOH     387      MEOH     H1B      HDA3B    0.800000E-01   1.00800           0   0.00000       0.00000    
      8974 MEOH     387      MEOH     H1C      HDA3B    0.800000E-01   1.00800           0   0.00000       0.00000    
      8975 MEOH     387      MEOH     LP1A     LPD     -0.230000       0.00000          -1   0.00000       0.00000    
      8976 MEOH     387      MEOH     LP1B     LPD     -0.230000       0.00000          -1   0.00000       0.00000    
      8977 MEOH     388      MEOH     C1       CD33B     2.31410       11.6110           0  -1.00000       1.30000    
      8978 MEOH     388      MEOH     DC1      DRUD     -2.45410      0.400000           0   0.00000       0.00000    
      8979 MEOH     388      MEOH     O1       OD31H     2.48830       15.5990           0  -1.02800       1.30000    
      8980 MEOH     388      MEOH     DO1      DRUD     -2.48830      0.400000           0   0.00000       0.00000    
      8981 MEOH     388      MEOH     HO1      HDP1A    0.360000       1.00800           0   0.00000       0.00000    
      8982 MEOH     388      MEOH     HO2      DUMH      0.00000       1.00800           0   0.00000       0.00000    
      8983 MEOH     388      MEOH     H1A      HDA3B    0.800000E-01   1.00800           0   0.00000       0.00000    
      8984 MEOH     388      MEOH     H1B      HDA3B    0.800000E-01   1.00800           0   0.00000       0.00000    
      8985 MEOH     388      MEOH     H1C      HDA3B    0.800000E-01   1.00800           0   0.00000       0.00000    
      8986 MEOH     388      MEOH     LP1A     LPD     -0.230000       0.00000          -1   0.00000       0.00000    
      8987 MEOH     388      MEOH     LP1B     LPD     -0.230000       0.00000          -1   0.00000       0.00000    
      8988 MEOH     389      MEOH     C1       CD33B     2.31410       11.6110           0  -1.00000       1.30000    
      8989 MEOH     389      MEOH     DC1      DRUD     -2.45410      0.400000           0   0.00000       0.00000    
      8990 MEOH     389      MEOH     O1       OD31H     2.48830       15.5990           0  -1.02800       1.30000    
      8991 MEOH     389      MEOH     DO1      DRUD     -2.48830      0.400000           0   0.00000       0.00000    
      8992 MEOH     389      MEOH     HO1      HDP1A    0.360000       1.00800           0   0.00000       0.00000    
      8993 MEOH     389      MEOH     HO2      DUMH      0.00000       1.00800           0   0.00000       0.00000    
      8994 MEOH     389      MEOH     H1A      HDA3B    0.800000E-01   1.00800           0   0.00000       0.00000    
      8995 MEOH     389      MEOH     H1B      HDA3B    0.800000E-01   1.00800           0   0.00000       0.00000    
      8996 MEOH     389      MEOH     H1C      HDA3B    0.800000E-01   1.00800           0   0.00000       0.00000    
      8997 MEOH     389      MEOH     LP1A     LPD     -0.230000       0.00000          -1   0.00000       0.00000    
      8998 MEOH     389      MEOH     LP1B     LPD     -0.230000       0.00000          -1   0.00000       0.00000    
      8999 MEOH     390      MEOH     C1       CD33B     2.31410       11.6110           0  -1.00000       1.30000    
      9000 MEOH     390      MEOH     DC1      DRUD     -2.45410      0.400000           0   0.00000       0.00000    
      9001 MEOH     390      MEOH     O1       OD31H     2.48830       15.5990           0  -1.02800       1.30000    
      9002 MEOH     390      MEOH     DO1      DRUD     -2.48830      0.400000           0   0.00000       0.00000    
      9003 MEOH     390      MEOH     HO1      HDP1A    0.360000       1.00800           0   0.00000       0.00000    
      9004 MEOH     390      MEOH     HO2      DUMH      0.00000       1.00800           0   0.00000       0.00000    
      9005 MEOH     390      MEOH     H1A      HDA3B    0.800000E-01   1.00800           0   0.00000       0.00000    
      9006 MEOH     390      MEOH     H1B      HDA3B    0.800000E-01   1.00800           0   0.00000       0.00000    
      9007 MEOH     390      MEOH     H1C      HDA3B    0.800000E-01   1.00800           0   0.00000       0.00000    
      9008 MEOH     390      MEOH     LP1A     LPD     -0.230000       0.00000          -1   0.00000       0.00000    
      9009 MEOH     390      MEOH     LP1B     LPD     -0.230000       0.00000          -1   0.00000       0.00000    
      9010 MEOH     391      MEOH     C1       CD33B     2.31410       11.6110           0  -1.00000       1.30000    
      9011 MEOH     391      MEOH     DC1      DRUD     -2.45410      0.400000           0   0.00000       0.00000    
      9012 MEOH     391      MEOH     O1       OD31H     2.48830       15.5990           0  -1.02800       1.30000    
      9013 MEOH     391      MEOH     DO1      DRUD     -2.48830      0.400000           0   0.00000       0.00000    
      9014 MEOH     391      MEOH     HO1      HDP1A    0.360000       1.00800           0   0.00000       0.00000    
      9015 MEOH     391      MEOH     HO2      DUMH      0.00000       1.00800           0   0.00000       0.00000    
      9016 MEOH     391      MEOH     H1A      HDA3B    0.800000E-01   1.00800           0   0.00000       0.00000    
      9017 MEOH     391      MEOH     H1B      HDA3B    0.800000E-01   1.00800           0   0.00000       0.00000    
      9018 MEOH     391      MEOH     H1C      HDA3B    0.800000E-01   1.00800           0   0.00000       0.00000    
      9019 MEOH     391      MEOH     LP1A     LPD     -0.230000       0.00000          -1   0.00000       0.00000    
      9020 MEOH     391      MEOH     LP1B     LPD     -0.230000       0.00000          -1   0.00000       0.00000    
      9021 MEOH     392      MEOH     C1       CD33B     2.31410       11.6110           0  -1.00000       1.30000    
      9022 MEOH     392      MEOH     DC1      DRUD     -2.45410      0.400000           0   0.00000       0.00000    
      9023 MEOH     392      MEOH     O1       OD31H     2.48830       15.5990           0  -1.02800       1.30000    
      9024 MEOH     392      MEOH     DO1      DRUD     -2.48830      0.400000           0   0.00000       0.00000    
      9025 MEOH     392      MEOH     HO1      HDP1A    0.360000       1.00800           0   0.00000       0.00000    
      9026 MEOH     392      MEOH     HO2      DUMH      0.00000       1.00800           0   0.00000       0.00000    
      9027 MEOH     392      MEOH     H1A      HDA3B    0.800000E-01   1.00800           0   0.00000       0.00000    
      9028 MEOH     392      MEOH     H1B      HDA3B    0.800000E-01   1.00800           0   0.00000       0.00000    
      9029 MEOH     392      MEOH     H1C      HDA3B    0.800000E-01   1.00800           0   0.00000       0.00000    
      9030 MEOH     392      MEOH     LP1A     LPD     -0.230000       0.00000          -1   0.00000       0.00000    
      9031 MEOH     392      MEOH     LP1B     LPD     -0.230000       0.00000          -1   0.00000       0.00000    
      9032 MEOH     393      MEOH     C1       CD33B     2.31410       11.6110           0  -1.00000       1.30000    
      9033 MEOH     393      MEOH     DC1      DRUD     -2.45410      0.400000           0   0.00000       0.00000    
      9034 MEOH     393      MEOH     O1       OD31H     2.48830       15.5990           0  -1.02800       1.30000    
      9035 MEOH     393      MEOH     DO1      DRUD     -2.48830      0.400000           0   0.00000       0.00000    
      9036 MEOH     393      MEOH     HO1      HDP1A    0.360000       1.00800           0   0.00000       0.00000    
      9037 MEOH     393      MEOH     HO2      DUMH      0.00000       1.00800           0   0.00000       0.00000    
      9038 MEOH     393      MEOH     H1A      HDA3B    0.800000E-01   1.00800           0   0.00000       0.00000    
      9039 MEOH     393      MEOH     H1B      HDA3B    0.800000E-01   1.00800           0   0.00000       0.00000    
      9040 MEOH     393      MEOH     H1C      HDA3B    0.800000E-01   1.00800           0   0.00000       0.00000    
      9041 MEOH     393      MEOH     LP1A     LPD     -0.230000       0.00000          -1   0.00000       0.00000    
      9042 MEOH     393      MEOH     LP1B     LPD     -0.230000       0.00000          -1   0.00000       0.00000    
      9043 MEOH     394      MEOH     C1       CD33B     2.31410       11.6110           0  -1.00000       1.30000    
      9044 MEOH     394      MEOH     DC1      DRUD     -2.45410      0.400000           0   0.00000       0.00000    
      9045 MEOH     394      MEOH     O1       OD31H     2.48830       15.5990           0  -1.02800       1.30000    
      9046 MEOH     394      MEOH     DO1      DRUD     -2.48830      0.400000           0   0.00000       0.00000    
      9047 MEOH     394      MEOH     HO1      HDP1A    0.360000       1.00800           0   0.00000       0.00000    
      9048 MEOH     394      MEOH     HO2      DUMH      0.00000       1.00800           0   0.00000       0.00000    
      9049 MEOH     394      MEOH     H1A      HDA3B    0.800000E-01   1.00800           0   0.00000       0.00000    
      9050 MEOH     394      MEOH     H1B      HDA3B    0.800000E-01   1.00800           0   0.00000       0.00000    
      9051 MEOH     394      MEOH     H1C      HDA3B    0.800000E-01   1.00800           0   0.00000       0.00000    
      9052 MEOH     394      MEOH     LP1A     LPD     -0.230000       0.00000          -1   0.00000       0.00000    
      9053 MEOH     394      MEOH     LP1B     LPD     -0.230000       0.00000          -1   0.00000       0.00000    
      9054 MEOH     395      MEOH     C1       CD33B     2.31410       11.6110           0  -1.00000       1.30000    
      9055 MEOH     395      MEOH     DC1      DRUD     -2.45410      0.400000           0   0.00000       0.00000    
      9056 MEOH     395      MEOH     O1       OD31H     2.48830       15.5990           0  -1.02800       1.30000    
      9057 MEOH     395      MEOH     DO1      DRUD     -2.48830      0.400000           0   0.00000       0.00000    
      9058 MEOH     395      MEOH     HO1      HDP1A    0.360000       1.00800           0   0.00000       0.00000    
      9059 MEOH     395      MEOH     HO2      DUMH      0.00000       1.00800           0   0.00000       0.00000    
      9060 MEOH     395      MEOH     H1A      HDA3B    0.800000E-01   1.00800           0   0.00000       0.00000    
      9061 MEOH     395      MEOH     H1B      HDA3B    0.800000E-01   1.00800           0   0.00000       0.00000    
      9062 MEOH     395      MEOH     H1C      HDA3B    0.800000E-01   1.00800           0   0.00000       0.00000    
      9063 MEOH     395      MEOH     LP1A     LPD     -0.230000       0.00000          -1   0.00000       0.00000    
      9064 MEOH     395      MEOH     LP1B     LPD     -0.230000       0.00000          -1   0.00000       0.00000    
      9065 MEOH     396      MEOH     C1       CD33B     2.31410       11.6110           0  -1.00000       1.30000    
      9066 MEOH     396      MEOH     DC1      DRUD     -2.45410      0.400000           0   0.00000       0.00000    
      9067 MEOH     396      MEOH     O1       OD31H     2.48830       15.5990           0  -1.02800       1.30000    
      9068 MEOH     396      MEOH     DO1      DRUD     -2.48830      0.400000           0   0.00000       0.00000    
      9069 MEOH     396      MEOH     HO1      HDP1A    0.360000       1.00800           0   0.00000       0.00000    
      9070 MEOH     396      MEOH     HO2      DUMH      0.00000       1.00800           0   0.00000       0.00000    
      9071 MEOH     396      MEOH     H1A      HDA3B    0.800000E-01   1.00800           0   0.00000       0.00000    
      9072 MEOH     396      MEOH     H1B      HDA3B    0.800000E-01   1.00800           0   0.00000       0.00000    
      9073 MEOH     396      MEOH     H1C      HDA3B    0.800000E-01   1.00800           0   0.00000       0.00000    
      9074 MEOH     396      MEOH     LP1A     LPD     -0.230000       0.00000          -1   0.00000       0.00000    
      9075 MEOH     396      MEOH     LP1B     LPD     -0.230000       0.00000          -1   0.00000       0.00000    
      9076 MEOH     397      MEOH     C1       CD33B     2.31410       11.6110           0  -1.00000       1.30000    
      9077 MEOH     397      MEOH     DC1      DRUD     -2.45410      0.400000           0   0.00000       0.00000    
      9078 MEOH     397      MEOH     O1       OD31H     2.48830       15.5990           0  -1.02800       1.30000    
      9079 MEOH     397      MEOH     DO1      DRUD     -2.48830      0.400000           0   0.00000       0.00000    
      9080 MEOH     397      MEOH     HO1      HDP1A    0.360000       1.00800           0   0.00000       0.00000    
      9081 MEOH     397      MEOH     HO2      DUMH      0.00000       1.00800           0   0.00000       0.00000    
      9082 MEOH     397      MEOH     H1A      HDA3B    0.800000E-01   1.00800           0   0.00000       0.00000    
      9083 MEOH     397      MEOH     H1B      HDA3B    0.800000E-01   1.00800           0   0.00000       0.00000    
      9084 MEOH     397      MEOH     H1C      HDA3B    0.800000E-01   1.00800           0   0.00000       0.00000    
      9085 MEOH     397      MEOH     LP1A     LPD     -0.230000       0.00000          -1   0.00000       0.00000    
      9086 MEOH     397      MEOH     LP1B     LPD     -0.230000       0.00000          -1   0.00000       0.00000    
      9087 MEOH     398      MEOH     C1       CD33B     2.31410       11.6110           0  -1.00000       1.30000    
      9088 MEOH     398      MEOH     DC1      DRUD     -2.45410      0.400000           0   0.00000       0.00000    
      9089 MEOH     398      MEOH     O1       OD31H     2.48830       15.5990           0  -1.02800       1.30000    
      9090 MEOH     398      MEOH     DO1      DRUD     -2.48830      0.400000           0   0.00000       0.00000    
      9091 MEOH     398      MEOH     HO1      HDP1A    0.360000       1.00800           0   0.00000       0.00000    
      9092 MEOH     398      MEOH     HO2      DUMH      0.00000       1.00800           0   0.00000       0.00000    
      9093 MEOH     398      MEOH     H1A      HDA3B    0.800000E-01   1.00800           0   0.00000       0.00000    
      9094 MEOH     398      MEOH     H1B      HDA3B    0.800000E-01   1.00800           0   0.00000       0.00000    
      9095 MEOH     398      MEOH     H1C      HDA3B    0.800000E-01   1.00800           0   0.00000       0.00000    
      9096 MEOH     398      MEOH     LP1A     LPD     -0.230000       0.00000          -1   0.00000       0.00000    
      9097 MEOH     398      MEOH     LP1B     LPD     -0.230000       0.00000          -1   0.00000       0.00000    
      9098 MEOH     399      MEOH     C1       CD33B     2.31410       11.6110           0  -1.00000       1.30000    
      9099 MEOH     399      MEOH     DC1      DRUD     -2.45410      0.400000           0   0.00000       0.00000    
      9100 MEOH     399      MEOH     O1       OD31H     2.48830       15.5990           0  -1.02800       1.30000    
      9101 MEOH     399      MEOH     DO1      DRUD     -2.48830      0.400000           0   0.00000       0.00000    
      9102 MEOH     399      MEOH     HO1      HDP1A    0.360000       1.00800           0   0.00000       0.00000    
      9103 MEOH     399      MEOH     HO2      DUMH      0.00000       1.00800           0   0.00000       0.00000    
      9104 MEOH     399      MEOH     H1A      HDA3B    0.800000E-01   1.00800           0   0.00000       0.00000    
      9105 MEOH     399      MEOH     H1B      HDA3B    0.800000E-01   1.00800           0   0.00000       0.00000    
      9106 MEOH     399      MEOH     H1C      HDA3B    0.800000E-01   1.00800           0   0.00000       0.00000    
      9107 MEOH     399      MEOH     LP1A     LPD     -0.230000       0.00000          -1   0.00000       0.00000    
      9108 MEOH     399      MEOH     LP1B     LPD     -0.230000       0.00000          -1   0.00000       0.00000    
      9109 MEOH     400      MEOH     C1       CD33B     2.31410       11.6110           0  -1.00000       1.30000    
      9110 MEOH     400      MEOH     DC1      DRUD     -2.45410      0.400000           0   0.00000       0.00000    
      9111 MEOH     400      MEOH     O1       OD31H     2.48830       15.5990           0  -1.02800       1.30000    
      9112 MEOH     400      MEOH     DO1      DRUD     -2.48830      0.400000           0   0.00000       0.00000    
      9113 MEOH     400      MEOH     HO1      HDP1A    0.360000       1.00800           0   0.00000       0.00000    
      9114 MEOH     400      MEOH     HO2      DUMH      0.00000       1.00800           0   0.00000       0.00000    
      9115 MEOH     400      MEOH     H1A      HDA3B    0.800000E-01   1.00800           0   0.00000       0.00000    
      9116 MEOH     400      MEOH     H1B      HDA3B    0.800000E-01   1.00800           0   0.00000       0.00000    
      9117 MEOH     400      MEOH     H1C      HDA3B    0.800000E-01   1.00800           0   0.00000       0.00000    
      9118 MEOH     400      MEOH     LP1A     LPD     -0.230000       0.00000          -1   0.00000       0.00000    
      9119 MEOH     400      MEOH     LP1B     LPD     -0.230000       0.00000          -1   0.00000       0.00000    
      9120 MEOH     401      MEOH     C1       CD33B     2.31410       11.6110           0  -1.00000       1.30000    
      9121 MEOH     401      MEOH     DC1      DRUD     -2.45410      0.400000           0   0.00000       0.00000    
      9122 MEOH     401      MEOH     O1       OD31H     2.48830       15.5990           0  -1.02800       1.30000    
      9123 MEOH     401      MEOH     DO1      DRUD     -2.48830      0.400000           0   0.00000       0.00000    
      9124 MEOH     401      MEOH     HO1      HDP1A    0.360000       1.00800           0   0.00000       0.00000    
      9125 MEOH     401      MEOH     HO2      DUMH      0.00000       1.00800           0   0.00000       0.00000    
      9126 MEOH     401      MEOH     H1A      HDA3B    0.800000E-01   1.00800           0   0.00000       0.00000    
      9127 MEOH     401      MEOH     H1B      HDA3B    0.800000E-01   1.00800           0   0.00000       0.00000    
      9128 MEOH     401      MEOH     H1C      HDA3B    0.800000E-01   1.00800           0   0.00000       0.00000    
      9129 MEOH     401      MEOH     LP1A     LPD     -0.230000       0.00000          -1   0.00000       0.00000    
      9130 MEOH     401      MEOH     LP1B     LPD     -0.230000       0.00000          -1   0.00000       0.00000    
      9131 MEOH     402      MEOH     C1       CD33B     2.31410       11.6110           0  -1.00000       1.30000    
      9132 MEOH     402      MEOH     DC1      DRUD     -2.45410      0.400000           0   0.00000       0.00000    
      9133 MEOH     402      MEOH     O1       OD31H     2.48830       15.5990           0  -1.02800       1.30000    
      9134 MEOH     402      MEOH     DO1      DRUD     -2.48830      0.400000           0   0.00000       0.00000    
      9135 MEOH     402      MEOH     HO1      HDP1A    0.360000       1.00800           0   0.00000       0.00000    
      9136 MEOH     402      MEOH     HO2      DUMH      0.00000       1.00800           0   0.00000       0.00000    
      9137 MEOH     402      MEOH     H1A      HDA3B    0.800000E-01   1.00800           0   0.00000       0.00000    
      9138 MEOH     402      MEOH     H1B      HDA3B    0.800000E-01   1.00800           0   0.00000       0.00000    
      9139 MEOH     402      MEOH     H1C      HDA3B    0.800000E-01   1.00800           0   0.00000       0.00000    
      9140 MEOH     402      MEOH     LP1A     LPD     -0.230000       0.00000          -1   0.00000       0.00000    
      9141 MEOH     402      MEOH     LP1B     LPD     -0.230000       0.00000          -1   0.00000       0.00000    
      9142 MEOH     403      MEOH     C1       CD33B     2.31410       11.6110           0  -1.00000       1.30000    
      9143 MEOH     403      MEOH     DC1      DRUD     -2.45410      0.400000           0   0.00000       0.00000    
      9144 MEOH     403      MEOH     O1       OD31H     2.48830       15.5990           0  -1.02800       1.30000    
      9145 MEOH     403      MEOH     DO1      DRUD     -2.48830      0.400000           0   0.00000       0.00000    
      9146 MEOH     403      MEOH     HO1      HDP1A    0.360000       1.00800           0   0.00000       0.00000    
      9147 MEOH     403      MEOH     HO2      DUMH      0.00000       1.00800           0   0.00000       0.00000    
      9148 MEOH     403      MEOH     H1A      HDA3B    0.800000E-01   1.00800           0   0.00000       0.00000    
      9149 MEOH     403      MEOH     H1B      HDA3B    0.800000E-01   1.00800           0   0.00000       0.00000    
      9150 MEOH     403      MEOH     H1C      HDA3B    0.800000E-01   1.00800           0   0.00000       0.00000    
      9151 MEOH     403      MEOH     LP1A     LPD     -0.230000       0.00000          -1   0.00000       0.00000    
      9152 MEOH     403      MEOH     LP1B     LPD     -0.230000       0.00000          -1   0.00000       0.00000    
      9153 MEOH     404      MEOH     C1       CD33B     2.31410       11.6110           0  -1.00000       1.30000    
      9154 MEOH     404      MEOH     DC1      DRUD     -2.45410      0.400000           0   0.00000       0.00000    
      9155 MEOH     404      MEOH     O1       OD31H     2.48830       15.5990           0  -1.02800       1.30000    
      9156 MEOH     404      MEOH     DO1      DRUD     -2.48830      0.400000           0   0.00000       0.00000    
      9157 MEOH     404      MEOH     HO1      HDP1A    0.360000       1.00800           0   0.00000       0.00000    
      9158 MEOH     404      MEOH     HO2      DUMH      0.00000       1.00800           0   0.00000       0.00000    
      9159 MEOH     404      MEOH     H1A      HDA3B    0.800000E-01   1.00800           0   0.00000       0.00000    
      9160 MEOH     404      MEOH     H1B      HDA3B    0.800000E-01   1.00800           0   0.00000       0.00000    
      9161 MEOH     404      MEOH     H1C      HDA3B    0.800000E-01   1.00800           0   0.00000       0.00000    
      9162 MEOH     404      MEOH     LP1A     LPD     -0.230000       0.00000          -1   0.00000       0.00000    
      9163 MEOH     404      MEOH     LP1B     LPD     -0.230000       0.00000          -1   0.00000       0.00000    
      9164 MEOH     405      MEOH     C1       CD33B     2.31410       11.6110           0  -1.00000       1.30000    
      9165 MEOH     405      MEOH     DC1      DRUD     -2.45410      0.400000           0   0.00000       0.00000    
      9166 MEOH     405      MEOH     O1       OD31H     2.48830       15.5990           0  -1.02800       1.30000    
      9167 MEOH     405      MEOH     DO1      DRUD     -2.48830      0.400000           0   0.00000       0.00000    
      9168 MEOH     405      MEOH     HO1      HDP1A    0.360000       1.00800           0   0.00000       0.00000    
      9169 MEOH     405      MEOH     HO2      DUMH      0.00000       1.00800           0   0.00000       0.00000    
      9170 MEOH     405      MEOH     H1A      HDA3B    0.800000E-01   1.00800           0   0.00000       0.00000    
      9171 MEOH     405      MEOH     H1B      HDA3B    0.800000E-01   1.00800           0   0.00000       0.00000    
      9172 MEOH     405      MEOH     H1C      HDA3B    0.800000E-01   1.00800           0   0.00000       0.00000    
      9173 MEOH     405      MEOH     LP1A     LPD     -0.230000       0.00000          -1   0.00000       0.00000    
      9174 MEOH     405      MEOH     LP1B     LPD     -0.230000       0.00000          -1   0.00000       0.00000    
      9175 MEOH     406      MEOH     C1       CD33B     2.31410       11.6110           0  -1.00000       1.30000    
      9176 MEOH     406      MEOH     DC1      DRUD     -2.45410      0.400000           0   0.00000       0.00000    
      9177 MEOH     406      MEOH     O1       OD31H     2.48830       15.5990           0  -1.02800       1.30000    
      9178 MEOH     406      MEOH     DO1      DRUD     -2.48830      0.400000           0   0.00000       0.00000    
      9179 MEOH     406      MEOH     HO1      HDP1A    0.360000       1.00800           0   0.00000       0.00000    
      9180 MEOH     406      MEOH     HO2      DUMH      0.00000       1.00800           0   0.00000       0.00000    
      9181 MEOH     406      MEOH     H1A      HDA3B    0.800000E-01   1.00800           0   0.00000       0.00000    
      9182 MEOH     406      MEOH     H1B      HDA3B    0.800000E-01   1.00800           0   0.00000       0.00000    
      9183 MEOH     406      MEOH     H1C      HDA3B    0.800000E-01   1.00800           0   0.00000       0.00000    
      9184 MEOH     406      MEOH     LP1A     LPD     -0.230000       0.00000          -1   0.00000       0.00000    
      9185 MEOH     406      MEOH     LP1B     LPD     -0.230000       0.00000          -1   0.00000       0.00000    
      9186 MEOH     407      MEOH     C1       CD33B     2.31410       11.6110           0  -1.00000       1.30000    
      9187 MEOH     407      MEOH     DC1      DRUD     -2.45410      0.400000           0   0.00000       0.00000    
      9188 MEOH     407      MEOH     O1       OD31H     2.48830       15.5990           0  -1.02800       1.30000    
      9189 MEOH     407      MEOH     DO1      DRUD     -2.48830      0.400000           0   0.00000       0.00000    
      9190 MEOH     407      MEOH     HO1      HDP1A    0.360000       1.00800           0   0.00000       0.00000    
      9191 MEOH     407      MEOH     HO2      DUMH      0.00000       1.00800           0   0.00000       0.00000    
      9192 MEOH     407      MEOH     H1A      HDA3B    0.800000E-01   1.00800           0   0.00000       0.00000    
      9193 MEOH     407      MEOH     H1B      HDA3B    0.800000E-01   1.00800           0   0.00000       0.00000    
      9194 MEOH     407      MEOH     H1C      HDA3B    0.800000E-01   1.00800           0   0.00000       0.00000    
      9195 MEOH     407      MEOH     LP1A     LPD     -0.230000       0.00000          -1   0.00000       0.00000    
      9196 MEOH     407      MEOH     LP1B     LPD     -0.230000       0.00000          -1   0.00000       0.00000    
      9197 MEOH     408      MEOH     C1       CD33B     2.31410       11.6110           0  -1.00000       1.30000    
      9198 MEOH     408      MEOH     DC1      DRUD     -2.45410      0.400000           0   0.00000       0.00000    
      9199 MEOH     408      MEOH     O1       OD31H     2.48830       15.5990           0  -1.02800       1.30000    
      9200 MEOH     408      MEOH     DO1      DRUD     -2.48830      0.400000           0   0.00000       0.00000    
      9201 MEOH     408      MEOH     HO1      HDP1A    0.360000       1.00800           0   0.00000       0.00000    
      9202 MEOH     408      MEOH     HO2      DUMH      0.00000       1.00800           0   0.00000       0.00000    
      9203 MEOH     408      MEOH     H1A      HDA3B    0.800000E-01   1.00800           0   0.00000       0.00000    
      9204 MEOH     408      MEOH     H1B      HDA3B    0.800000E-01   1.00800           0   0.00000       0.00000    
      9205 MEOH     408      MEOH     H1C      HDA3B    0.800000E-01   1.00800           0   0.00000       0.00000    
      9206 MEOH     408      MEOH     LP1A     LPD     -0.230000       0.00000          -1   0.00000       0.00000    
      9207 MEOH     408      MEOH     LP1B     LPD     -0.230000       0.00000          -1   0.00000       0.00000    
      9208 MEOH     409      MEOH     C1       CD33B     2.31410       11.6110           0  -1.00000       1.30000    
      9209 MEOH     409      MEOH     DC1      DRUD     -2.45410      0.400000           0   0.00000       0.00000    
      9210 MEOH     409      MEOH     O1       OD31H     2.48830       15.5990           0  -1.02800       1.30000    
      9211 MEOH     409      MEOH     DO1      DRUD     -2.48830      0.400000           0   0.00000       0.00000    
      9212 MEOH     409      MEOH     HO1      HDP1A    0.360000       1.00800           0   0.00000       0.00000    
      9213 MEOH     409      MEOH     HO2      DUMH      0.00000       1.00800           0   0.00000       0.00000    
      9214 MEOH     409      MEOH     H1A      HDA3B    0.800000E-01   1.00800           0   0.00000       0.00000    
      9215 MEOH     409      MEOH     H1B      HDA3B    0.800000E-01   1.00800           0   0.00000       0.00000    
      9216 MEOH     409      MEOH     H1C      HDA3B    0.800000E-01   1.00800           0   0.00000       0.00000    
      9217 MEOH     409      MEOH     LP1A     LPD     -0.230000       0.00000          -1   0.00000       0.00000    
      9218 MEOH     409      MEOH     LP1B     LPD     -0.230000       0.00000          -1   0.00000       0.00000    
      9219 MEOH     410      MEOH     C1       CD33B     2.31410       11.6110           0  -1.00000       1.30000    
      9220 MEOH     410      MEOH     DC1      DRUD     -2.45410      0.400000           0   0.00000       0.00000    
      9221 MEOH     410      MEOH     O1       OD31H     2.48830       15.5990           0  -1.02800       1.30000    
      9222 MEOH     410      MEOH     DO1      DRUD     -2.48830      0.400000           0   0.00000       0.00000    
      9223 MEOH     410      MEOH     HO1      HDP1A    0.360000       1.00800           0   0.00000       0.00000    
      9224 MEOH     410      MEOH     HO2      DUMH      0.00000       1.00800           0   0.00000       0.00000    
      9225 MEOH     410      MEOH     H1A      HDA3B    0.800000E-01   1.00800           0   0.00000       0.00000    
      9226 MEOH     410      MEOH     H1B      HDA3B    0.800000E-01   1.00800           0   0.00000       0.00000    
      9227 MEOH     410      MEOH     H1C      HDA3B    0.800000E-01   1.00800           0   0.00000       0.00000    
      9228 MEOH     410      MEOH     LP1A     LPD     -0.230000       0.00000          -1   0.00000       0.00000    
      9229 MEOH     410      MEOH     LP1B     LPD     -0.230000       0.00000          -1   0.00000       0.00000    
      9230 MEOH     411      MEOH     C1       CD33B     2.31410       11.6110           0  -1.00000       1.30000    
      9231 MEOH     411      MEOH     DC1      DRUD     -2.45410      0.400000           0   0.00000       0.00000    
      9232 MEOH     411      MEOH     O1       OD31H     2.48830       15.5990           0  -1.02800       1.30000    
      9233 MEOH     411      MEOH     DO1      DRUD     -2.48830      0.400000           0   0.00000       0.00000    
      9234 MEOH     411      MEOH     HO1      HDP1A    0.360000       1.00800           0   0.00000       0.00000    
      9235 MEOH     411      MEOH     HO2      DUMH      0.00000       1.00800           0   0.00000       0.00000    
      9236 MEOH     411      MEOH     H1A      HDA3B    0.800000E-01   1.00800           0   0.00000       0.00000    
      9237 MEOH     411      MEOH     H1B      HDA3B    0.800000E-01   1.00800           0   0.00000       0.00000    
      9238 MEOH     411      MEOH     H1C      HDA3B    0.800000E-01   1.00800           0   0.00000       0.00000    
      9239 MEOH     411      MEOH     LP1A     LPD     -0.230000       0.00000          -1   0.00000       0.00000    
      9240 MEOH     411      MEOH     LP1B     LPD     -0.230000       0.00000          -1   0.00000       0.00000    
      9241 MEOH     412      MEOH     C1       CD33B     2.31410       11.6110           0  -1.00000       1.30000    
      9242 MEOH     412      MEOH     DC1      DRUD     -2.45410      0.400000           0   0.00000       0.00000    
      9243 MEOH     412      MEOH     O1       OD31H     2.48830       15.5990           0  -1.02800       1.30000    
      9244 MEOH     412      MEOH     DO1      DRUD     -2.48830      0.400000           0   0.00000       0.00000    
      9245 MEOH     412      MEOH     HO1      HDP1A    0.360000       1.00800           0   0.00000       0.00000    
      9246 MEOH     412      MEOH     HO2      DUMH      0.00000       1.00800           0   0.00000       0.00000    
      9247 MEOH     412      MEOH     H1A      HDA3B    0.800000E-01   1.00800           0   0.00000       0.00000    
      9248 MEOH     412      MEOH     H1B      HDA3B    0.800000E-01   1.00800           0   0.00000       0.00000    
      9249 MEOH     412      MEOH     H1C      HDA3B    0.800000E-01   1.00800           0   0.00000       0.00000    
      9250 MEOH     412      MEOH     LP1A     LPD     -0.230000       0.00000          -1   0.00000       0.00000    
      9251 MEOH     412      MEOH     LP1B     LPD     -0.230000       0.00000          -1   0.00000       0.00000    
      9252 MEOH     413      MEOH     C1       CD33B     2.31410       11.6110           0  -1.00000       1.30000    
      9253 MEOH     413      MEOH     DC1      DRUD     -2.45410      0.400000           0   0.00000       0.00000    
      9254 MEOH     413      MEOH     O1       OD31H     2.48830       15.5990           0  -1.02800       1.30000    
      9255 MEOH     413      MEOH     DO1      DRUD     -2.48830      0.400000           0   0.00000       0.00000    
      9256 MEOH     413      MEOH     HO1      HDP1A    0.360000       1.00800           0   0.00000       0.00000    
      9257 MEOH     413      MEOH     HO2      DUMH      0.00000       1.00800           0   0.00000       0.00000    
      9258 MEOH     413      MEOH     H1A      HDA3B    0.800000E-01   1.00800           0   0.00000       0.00000    
      9259 MEOH     413      MEOH     H1B      HDA3B    0.800000E-01   1.00800           0   0.00000       0.00000    
      9260 MEOH     413      MEOH     H1C      HDA3B    0.800000E-01   1.00800           0   0.00000       0.00000    
      9261 MEOH     413      MEOH     LP1A     LPD     -0.230000       0.00000          -1   0.00000       0.00000    
      9262 MEOH     413      MEOH     LP1B     LPD     -0.230000       0.00000          -1   0.00000       0.00000    
      9263 MEOH     414      MEOH     C1       CD33B     2.31410       11.6110           0  -1.00000       1.30000    
      9264 MEOH     414      MEOH     DC1      DRUD     -2.45410      0.400000           0   0.00000       0.00000    
      9265 MEOH     414      MEOH     O1       OD31H     2.48830       15.5990           0  -1.02800       1.30000    
      9266 MEOH     414      MEOH     DO1      DRUD     -2.48830      0.400000           0   0.00000       0.00000    
      9267 MEOH     414      MEOH     HO1      HDP1A    0.360000       1.00800           0   0.00000       0.00000    
      9268 MEOH     414      MEOH     HO2      DUMH      0.00000       1.00800           0   0.00000       0.00000    
      9269 MEOH     414      MEOH     H1A      HDA3B    0.800000E-01   1.00800           0   0.00000       0.00000    
      9270 MEOH     414      MEOH     H1B      HDA3B    0.800000E-01   1.00800           0   0.00000       0.00000    
      9271 MEOH     414      MEOH     H1C      HDA3B    0.800000E-01   1.00800           0   0.00000       0.00000    
      9272 MEOH     414      MEOH     LP1A     LPD     -0.230000       0.00000          -1   0.00000       0.00000    
      9273 MEOH     414      MEOH     LP1B     LPD     -0.230000       0.00000          -1   0.00000       0.00000    
      9274 MEOH     415      MEOH     C1       CD33B     2.31410       11.6110           0  -1.00000       1.30000    
      9275 MEOH     415      MEOH     DC1      DRUD     -2.45410      0.400000           0   0.00000       0.00000    
      9276 MEOH     415      MEOH     O1       OD31H     2.48830       15.5990           0  -1.02800       1.30000    
      9277 MEOH     415      MEOH     DO1      DRUD     -2.48830      0.400000           0   0.00000       0.00000    
      9278 MEOH     415      MEOH     HO1      HDP1A    0.360000       1.00800           0   0.00000       0.00000    
      9279 MEOH     415      MEOH     HO2      DUMH      0.00000       1.00800           0   0.00000       0.00000    
      9280 MEOH     415      MEOH     H1A      HDA3B    0.800000E-01   1.00800           0   0.00000       0.00000    
      9281 MEOH     415      MEOH     H1B      HDA3B    0.800000E-01   1.00800           0   0.00000       0.00000    
      9282 MEOH     415      MEOH     H1C      HDA3B    0.800000E-01   1.00800           0   0.00000       0.00000    
      9283 MEOH     415      MEOH     LP1A     LPD     -0.230000       0.00000          -1   0.00000       0.00000    
      9284 MEOH     415      MEOH     LP1B     LPD     -0.230000       0.00000          -1   0.00000       0.00000    
      9285 MEOH     416      MEOH     C1       CD33B     2.31410       11.6110           0  -1.00000       1.30000    
      9286 MEOH     416      MEOH     DC1      DRUD     -2.45410      0.400000           0   0.00000       0.00000    
      9287 MEOH     416      MEOH     O1       OD31H     2.48830       15.5990           0  -1.02800       1.30000    
      9288 MEOH     416      MEOH     DO1      DRUD     -2.48830      0.400000           0   0.00000       0.00000    
      9289 MEOH     416      MEOH     HO1      HDP1A    0.360000       1.00800           0   0.00000       0.00000    
      9290 MEOH     416      MEOH     HO2      DUMH      0.00000       1.00800           0   0.00000       0.00000    
      9291 MEOH     416      MEOH     H1A      HDA3B    0.800000E-01   1.00800           0   0.00000       0.00000    
      9292 MEOH     416      MEOH     H1B      HDA3B    0.800000E-01   1.00800           0   0.00000       0.00000    
      9293 MEOH     416      MEOH     H1C      HDA3B    0.800000E-01   1.00800           0   0.00000       0.00000    
      9294 MEOH     416      MEOH     LP1A     LPD     -0.230000       0.00000          -1   0.00000       0.00000    
      9295 MEOH     416      MEOH     LP1B     LPD     -0.230000       0.00000          -1   0.00000       0.00000    
      9296 MEOH     417      MEOH     C1       CD33B     2.31410       11.6110           0  -1.00000       1.30000    
      9297 MEOH     417      MEOH     DC1      DRUD     -2.45410      0.400000           0   0.00000       0.00000    
      9298 MEOH     417      MEOH     O1       OD31H     2.48830       15.5990           0  -1.02800       1.30000    
      9299 MEOH     417      MEOH     DO1      DRUD     -2.48830      0.400000           0   0.00000       0.00000    
      9300 MEOH     417      MEOH     HO1      HDP1A    0.360000       1.00800           0   0.00000       0.00000    
      9301 MEOH     417      MEOH     HO2      DUMH      0.00000       1.00800           0   0.00000       0.00000    
      9302 MEOH     417      MEOH     H1A      HDA3B    0.800000E-01   1.00800           0   0.00000       0.00000    
      9303 MEOH     417      MEOH     H1B      HDA3B    0.800000E-01   1.00800           0   0.00000       0.00000    
      9304 MEOH     417      MEOH     H1C      HDA3B    0.800000E-01   1.00800           0   0.00000       0.00000    
      9305 MEOH     417      MEOH     LP1A     LPD     -0.230000       0.00000          -1   0.00000       0.00000    
      9306 MEOH     417      MEOH     LP1B     LPD     -0.230000       0.00000          -1   0.00000       0.00000    
      9307 MEOH     418      MEOH     C1       CD33B     2.31410       11.6110           0  -1.00000       1.30000    
      9308 MEOH     418      MEOH     DC1      DRUD     -2.45410      0.400000           0   0.00000       0.00000    
      9309 MEOH     418      MEOH     O1       OD31H     2.48830       15.5990           0  -1.02800       1.30000    
      9310 MEOH     418      MEOH     DO1      DRUD     -2.48830      0.400000           0   0.00000       0.00000    
      9311 MEOH     418      MEOH     HO1      HDP1A    0.360000       1.00800           0   0.00000       0.00000    
      9312 MEOH     418      MEOH     HO2      DUMH      0.00000       1.00800           0   0.00000       0.00000    
      9313 MEOH     418      MEOH     H1A      HDA3B    0.800000E-01   1.00800           0   0.00000       0.00000    
      9314 MEOH     418      MEOH     H1B      HDA3B    0.800000E-01   1.00800           0   0.00000       0.00000    
      9315 MEOH     418      MEOH     H1C      HDA3B    0.800000E-01   1.00800           0   0.00000       0.00000    
      9316 MEOH     418      MEOH     LP1A     LPD     -0.230000       0.00000          -1   0.00000       0.00000    
      9317 MEOH     418      MEOH     LP1B     LPD     -0.230000       0.00000          -1   0.00000       0.00000    
      9318 MEOH     419      MEOH     C1       CD33B     2.31410       11.6110           0  -1.00000       1.30000    
      9319 MEOH     419      MEOH     DC1      DRUD     -2.45410      0.400000           0   0.00000       0.00000    
      9320 MEOH     419      MEOH     O1       OD31H     2.48830       15.5990           0  -1.02800       1.30000    
      9321 MEOH     419      MEOH     DO1      DRUD     -2.48830      0.400000           0   0.00000       0.00000    
      9322 MEOH     419      MEOH     HO1      HDP1A    0.360000       1.00800           0   0.00000       0.00000    
      9323 MEOH     419      MEOH     HO2      DUMH      0.00000       1.00800           0   0.00000       0.00000    
      9324 MEOH     419      MEOH     H1A      HDA3B    0.800000E-01   1.00800           0   0.00000       0.00000    
      9325 MEOH     419      MEOH     H1B      HDA3B    0.800000E-01   1.00800           0   0.00000       0.00000    
      9326 MEOH     419      MEOH     H1C      HDA3B    0.800000E-01   1.00800           0   0.00000       0.00000    
      9327 MEOH     419      MEOH     LP1A     LPD     -0.230000       0.00000          -1   0.00000       0.00000    
      9328 MEOH     419      MEOH     LP1B     LPD     -0.230000       0.00000          -1   0.00000       0.00000    
      9329 MEOH     420      MEOH     C1       CD33B     2.31410       11.6110           0  -1.00000       1.30000    
      9330 MEOH     420      MEOH     DC1      DRUD     -2.45410      0.400000           0   0.00000       0.00000    
      9331 MEOH     420      MEOH     O1       OD31H     2.48830       15.5990           0  -1.02800       1.30000    
      9332 MEOH     420      MEOH     DO1      DRUD     -2.48830      0.400000           0   0.00000       0.00000    
      9333 MEOH     420      MEOH     HO1      HDP1A    0.360000       1.00800           0   0.00000       0.00000    
      9334 MEOH     420      MEOH     HO2      DUMH      0.00000       1.00800           0   0.00000       0.00000    
      9335 MEOH     420      MEOH     H1A      HDA3B    0.800000E-01   1.00800           0   0.00000       0.00000    
      9336 MEOH     420      MEOH     H1B      HDA3B    0.800000E-01   1.00800           0   0.00000       0.00000    
      9337 MEOH     420      MEOH     H1C      HDA3B    0.800000E-01   1.00800           0   0.00000       0.00000    
      9338 MEOH     420      MEOH     LP1A     LPD     -0.230000       0.00000          -1   0.00000       0.00000    
      9339 MEOH     420      MEOH     LP1B     LPD     -0.230000       0.00000          -1   0.00000       0.00000    
      9340 MEOH     421      MEOH     C1       CD33B     2.31410       11.6110           0  -1.00000       1.30000    
      9341 MEOH     421      MEOH     DC1      DRUD     -2.45410      0.400000           0   0.00000       0.00000    
      9342 MEOH     421      MEOH     O1       OD31H     2.48830       15.5990           0  -1.02800       1.30000    
      9343 MEOH     421      MEOH     DO1      DRUD     -2.48830      0.400000           0   0.00000       0.00000    
      9344 MEOH     421      MEOH     HO1      HDP1A    0.360000       1.00800           0   0.00000       0.00000    
      9345 MEOH     421      MEOH     HO2      DUMH      0.00000       1.00800           0   0.00000       0.00000    
      9346 MEOH     421      MEOH     H1A      HDA3B    0.800000E-01   1.00800           0   0.00000       0.00000    
      9347 MEOH     421      MEOH     H1B      HDA3B    0.800000E-01   1.00800           0   0.00000       0.00000    
      9348 MEOH     421      MEOH     H1C      HDA3B    0.800000E-01   1.00800           0   0.00000       0.00000    
      9349 MEOH     421      MEOH     LP1A     LPD     -0.230000       0.00000          -1   0.00000       0.00000    
      9350 MEOH     421      MEOH     LP1B     LPD     -0.230000       0.00000          -1   0.00000       0.00000    
      9351 MEOH     422      MEOH     C1       CD33B     2.31410       11.6110           0  -1.00000       1.30000    
      9352 MEOH     422      MEOH     DC1      DRUD     -2.45410      0.400000           0   0.00000       0.00000    
      9353 MEOH     422      MEOH     O1       OD31H     2.48830       15.5990           0  -1.02800       1.30000    
      9354 MEOH     422      MEOH     DO1      DRUD     -2.48830      0.400000           0   0.00000       0.00000    
      9355 MEOH     422      MEOH     HO1      HDP1A    0.360000       1.00800           0   0.00000       0.00000    
      9356 MEOH     422      MEOH     HO2      DUMH      0.00000       1.00800           0   0.00000       0.00000    
      9357 MEOH     422      MEOH     H1A      HDA3B    0.800000E-01   1.00800           0   0.00000       0.00000    
      9358 MEOH     422      MEOH     H1B      HDA3B    0.800000E-01   1.00800           0   0.00000       0.00000    
      9359 MEOH     422      MEOH     H1C      HDA3B    0.800000E-01   1.00800           0   0.00000       0.00000    
      9360 MEOH     422      MEOH     LP1A     LPD     -0.230000       0.00000          -1   0.00000       0.00000    
      9361 MEOH     422      MEOH     LP1B     LPD     -0.230000       0.00000          -1   0.00000       0.00000    
      9362 MEOH     423      MEOH     C1       CD33B     2.31410       11.6110           0  -1.00000       1.30000    
      9363 MEOH     423      MEOH     DC1      DRUD     -2.45410      0.400000           0   0.00000       0.00000    
      9364 MEOH     423      MEOH     O1       OD31H     2.48830       15.5990           0  -1.02800       1.30000    
      9365 MEOH     423      MEOH     DO1      DRUD     -2.48830      0.400000           0   0.00000       0.00000    
      9366 MEOH     423      MEOH     HO1      HDP1A    0.360000       1.00800           0   0.00000       0.00000    
      9367 MEOH     423      MEOH     HO2      DUMH      0.00000       1.00800           0   0.00000       0.00000    
      9368 MEOH     423      MEOH     H1A      HDA3B    0.800000E-01   1.00800           0   0.00000       0.00000    
      9369 MEOH     423      MEOH     H1B      HDA3B    0.800000E-01   1.00800           0   0.00000       0.00000    
      9370 MEOH     423      MEOH     H1C      HDA3B    0.800000E-01   1.00800           0   0.00000       0.00000    
      9371 MEOH     423      MEOH     LP1A     LPD     -0.230000       0.00000          -1   0.00000       0.00000    
      9372 MEOH     423      MEOH     LP1B     LPD     -0.230000       0.00000          -1   0.00000       0.00000    
      9373 MEOH     424      MEOH     C1       CD33B     2.31410       11.6110           0  -1.00000       1.30000    
      9374 MEOH     424      MEOH     DC1      DRUD     -2.45410      0.400000           0   0.00000       0.00000    
      9375 MEOH     424      MEOH     O1       OD31H     2.48830       15.5990           0  -1.02800       1.30000    
      9376 MEOH     424      MEOH     DO1      DRUD     -2.48830      0.400000           0   0.00000       0.00000    
      9377 MEOH     424      MEOH     HO1      HDP1A    0.360000       1.00800           0   0.00000       0.00000    
      9378 MEOH     424      MEOH     HO2      DUMH      0.00000       1.00800           0   0.00000       0.00000    
      9379 MEOH     424      MEOH     H1A      HDA3B    0.800000E-01   1.00800           0   0.00000       0.00000    
      9380 MEOH     424      MEOH     H1B      HDA3B    0.800000E-01   1.00800           0   0.00000       0.00000    
      9381 MEOH     424      MEOH     H1C      HDA3B    0.800000E-01   1.00800           0   0.00000       0.00000    
      9382 MEOH     424      MEOH     LP1A     LPD     -0.230000       0.00000          -1   0.00000       0.00000    
      9383 MEOH     424      MEOH     LP1B     LPD     -0.230000       0.00000          -1   0.00000       0.00000    
      9384 MEOH     425      MEOH     C1       CD33B     2.31410       11.6110           0  -1.00000       1.30000    
      9385 MEOH     425      MEOH     DC1      DRUD     -2.45410      0.400000           0   0.00000       0.00000    
      9386 MEOH     425      MEOH     O1       OD31H     2.48830       15.5990           0  -1.02800       1.30000    
      9387 MEOH     425      MEOH     DO1      DRUD     -2.48830      0.400000           0   0.00000       0.00000    
      9388 MEOH     425      MEOH     HO1      HDP1A    0.360000       1.00800           0   0.00000       0.00000    
      9389 MEOH     425      MEOH     HO2      DUMH      0.00000       1.00800           0   0.00000       0.00000    
      9390 MEOH     425      MEOH     H1A      HDA3B    0.800000E-01   1.00800           0   0.00000       0.00000    
      9391 MEOH     425      MEOH     H1B      HDA3B    0.800000E-01   1.00800           0   0.00000       0.00000    
      9392 MEOH     425      MEOH     H1C      HDA3B    0.800000E-01   1.00800           0   0.00000       0.00000    
      9393 MEOH     425      MEOH     LP1A     LPD     -0.230000       0.00000          -1   0.00000       0.00000    
      9394 MEOH     425      MEOH     LP1B     LPD     -0.230000       0.00000          -1   0.00000       0.00000    
      9395 MEOH     426      MEOH     C1       CD33B     2.31410       11.6110           0  -1.00000       1.30000    
      9396 MEOH     426      MEOH     DC1      DRUD     -2.45410      0.400000           0   0.00000       0.00000    
      9397 MEOH     426      MEOH     O1       OD31H     2.48830       15.5990           0  -1.02800       1.30000    
      9398 MEOH     426      MEOH     DO1      DRUD     -2.48830      0.400000           0   0.00000       0.00000    
      9399 MEOH     426      MEOH     HO1      HDP1A    0.360000       1.00800           0   0.00000       0.00000    
      9400 MEOH     426      MEOH     HO2      DUMH      0.00000       1.00800           0   0.00000       0.00000    
      9401 MEOH     426      MEOH     H1A      HDA3B    0.800000E-01   1.00800           0   0.00000       0.00000    
      9402 MEOH     426      MEOH     H1B      HDA3B    0.800000E-01   1.00800           0   0.00000       0.00000    
      9403 MEOH     426      MEOH     H1C      HDA3B    0.800000E-01   1.00800           0   0.00000       0.00000    
      9404 MEOH     426      MEOH     LP1A     LPD     -0.230000       0.00000          -1   0.00000       0.00000    
      9405 MEOH     426      MEOH     LP1B     LPD     -0.230000       0.00000          -1   0.00000       0.00000    
      9406 MEOH     427      MEOH     C1       CD33B     2.31410       11.6110           0  -1.00000       1.30000    
      9407 MEOH     427      MEOH     DC1      DRUD     -2.45410      0.400000           0   0.00000       0.00000    
      9408 MEOH     427      MEOH     O1       OD31H     2.48830       15.5990           0  -1.02800       1.30000    
      9409 MEOH     427      MEOH     DO1      DRUD     -2.48830      0.400000           0   0.00000       0.00000    
      9410 MEOH     427      MEOH     HO1      HDP1A    0.360000       1.00800           0   0.00000       0.00000    
      9411 MEOH     427      MEOH     HO2      DUMH      0.00000       1.00800           0   0.00000       0.00000    
      9412 MEOH     427      MEOH     H1A      HDA3B    0.800000E-01   1.00800           0   0.00000       0.00000    
      9413 MEOH     427      MEOH     H1B      HDA3B    0.800000E-01   1.00800           0   0.00000       0.00000    
      9414 MEOH     427      MEOH     H1C      HDA3B    0.800000E-01   1.00800           0   0.00000       0.00000    
      9415 MEOH     427      MEOH     LP1A     LPD     -0.230000       0.00000          -1   0.00000       0.00000    
      9416 MEOH     427      MEOH     LP1B     LPD     -0.230000       0.00000          -1   0.00000       0.00000    
      9417 MEOH     428      MEOH     C1       CD33B     2.31410       11.6110           0  -1.00000       1.30000    
      9418 MEOH     428      MEOH     DC1      DRUD     -2.45410      0.400000           0   0.00000       0.00000    
      9419 MEOH     428      MEOH     O1       OD31H     2.48830       15.5990           0  -1.02800       1.30000    
      9420 MEOH     428      MEOH     DO1      DRUD     -2.48830      0.400000           0   0.00000       0.00000    
      9421 MEOH     428      MEOH     HO1      HDP1A    0.360000       1.00800           0   0.00000       0.00000    
      9422 MEOH     428      MEOH     HO2      DUMH      0.00000       1.00800           0   0.00000       0.00000    
      9423 MEOH     428      MEOH     H1A      HDA3B    0.800000E-01   1.00800           0   0.00000       0.00000    
      9424 MEOH     428      MEOH     H1B      HDA3B    0.800000E-01   1.00800           0   0.00000       0.00000    
      9425 MEOH     428      MEOH     H1C      HDA3B    0.800000E-01   1.00800           0   0.00000       0.00000    
      9426 MEOH     428      MEOH     LP1A     LPD     -0.230000       0.00000          -1   0.00000       0.00000    
      9427 MEOH     428      MEOH     LP1B     LPD     -0.230000       0.00000          -1   0.00000       0.00000    
      9428 MEOH     429      MEOH     C1       CD33B     2.31410       11.6110           0  -1.00000       1.30000    
      9429 MEOH     429      MEOH     DC1      DRUD     -2.45410      0.400000           0   0.00000       0.00000    
      9430 MEOH     429      MEOH     O1       OD31H     2.48830       15.5990           0  -1.02800       1.30000    
      9431 MEOH     429      MEOH     DO1      DRUD     -2.48830      0.400000           0   0.00000       0.00000    
      9432 MEOH     429      MEOH     HO1      HDP1A    0.360000       1.00800           0   0.00000       0.00000    
      9433 MEOH     429      MEOH     HO2      DUMH      0.00000       1.00800           0   0.00000       0.00000    
      9434 MEOH     429      MEOH     H1A      HDA3B    0.800000E-01   1.00800           0   0.00000       0.00000    
      9435 MEOH     429      MEOH     H1B      HDA3B    0.800000E-01   1.00800           0   0.00000       0.00000    
      9436 MEOH     429      MEOH     H1C      HDA3B    0.800000E-01   1.00800           0   0.00000       0.00000    
      9437 MEOH     429      MEOH     LP1A     LPD     -0.230000       0.00000          -1   0.00000       0.00000    
      9438 MEOH     429      MEOH     LP1B     LPD     -0.230000       0.00000          -1   0.00000       0.00000    
      9439 MEOH     430      MEOH     C1       CD33B     2.31410       11.6110           0  -1.00000       1.30000    
      9440 MEOH     430      MEOH     DC1      DRUD     -2.45410      0.400000           0   0.00000       0.00000    
      9441 MEOH     430      MEOH     O1       OD31H     2.48830       15.5990           0  -1.02800       1.30000    
      9442 MEOH     430      MEOH     DO1      DRUD     -2.48830      0.400000           0   0.00000       0.00000    
      9443 MEOH     430      MEOH     HO1      HDP1A    0.360000       1.00800           0   0.00000       0.00000    
      9444 MEOH     430      MEOH     HO2      DUMH      0.00000       1.00800           0   0.00000       0.00000    
      9445 MEOH     430      MEOH     H1A      HDA3B    0.800000E-01   1.00800           0   0.00000       0.00000    
      9446 MEOH     430      MEOH     H1B      HDA3B    0.800000E-01   1.00800           0   0.00000       0.00000    
      9447 MEOH     430      MEOH     H1C      HDA3B    0.800000E-01   1.00800           0   0.00000       0.00000    
      9448 MEOH     430      MEOH     LP1A     LPD     -0.230000       0.00000          -1   0.00000       0.00000    
      9449 MEOH     430      MEOH     LP1B     LPD     -0.230000       0.00000          -1   0.00000       0.00000    
      9450 MEOH     431      MEOH     C1       CD33B     2.31410       11.6110           0  -1.00000       1.30000    
      9451 MEOH     431      MEOH     DC1      DRUD     -2.45410      0.400000           0   0.00000       0.00000    
      9452 MEOH     431      MEOH     O1       OD31H     2.48830       15.5990           0  -1.02800       1.30000    
      9453 MEOH     431      MEOH     DO1      DRUD     -2.48830      0.400000           0   0.00000       0.00000    
      9454 MEOH     431      MEOH     HO1      HDP1A    0.360000       1.00800           0   0.00000       0.00000    
      9455 MEOH     431      MEOH     HO2      DUMH      0.00000       1.00800           0   0.00000       0.00000    
      9456 MEOH     431      MEOH     H1A      HDA3B    0.800000E-01   1.00800           0   0.00000       0.00000    
      9457 MEOH     431      MEOH     H1B      HDA3B    0.800000E-01   1.00800           0   0.00000       0.00000    
      9458 MEOH     431      MEOH     H1C      HDA3B    0.800000E-01   1.00800           0   0.00000       0.00000    
      9459 MEOH     431      MEOH     LP1A     LPD     -0.230000       0.00000          -1   0.00000       0.00000    
      9460 MEOH     431      MEOH     LP1B     LPD     -0.230000       0.00000          -1   0.00000       0.00000    
      9461 MEOH     432      MEOH     C1       CD33B     2.31410       11.6110           0  -1.00000       1.30000    
      9462 MEOH     432      MEOH     DC1      DRUD     -2.45410      0.400000           0   0.00000       0.00000    
      9463 MEOH     432      MEOH     O1       OD31H     2.48830       15.5990           0  -1.02800       1.30000    
      9464 MEOH     432      MEOH     DO1      DRUD     -2.48830      0.400000           0   0.00000       0.00000    
      9465 MEOH     432      MEOH     HO1      HDP1A    0.360000       1.00800           0   0.00000       0.00000    
      9466 MEOH     432      MEOH     HO2      DUMH      0.00000       1.00800           0   0.00000       0.00000    
      9467 MEOH     432      MEOH     H1A      HDA3B    0.800000E-01   1.00800           0   0.00000       0.00000    
      9468 MEOH     432      MEOH     H1B      HDA3B    0.800000E-01   1.00800           0   0.00000       0.00000    
      9469 MEOH     432      MEOH     H1C      HDA3B    0.800000E-01   1.00800           0   0.00000       0.00000    
      9470 MEOH     432      MEOH     LP1A     LPD     -0.230000       0.00000          -1   0.00000       0.00000    
      9471 MEOH     432      MEOH     LP1B     LPD     -0.230000       0.00000          -1   0.00000       0.00000    
      9472 MEOH     433      MEOH     C1       CD33B     2.31410       11.6110           0  -1.00000       1.30000    
      9473 MEOH     433      MEOH     DC1      DRUD     -2.45410      0.400000           0   0.00000       0.00000    
      9474 MEOH     433      MEOH     O1       OD31H     2.48830       15.5990           0  -1.02800       1.30000    
      9475 MEOH     433      MEOH     DO1      DRUD     -2.48830      0.400000           0   0.00000       0.00000    
      9476 MEOH     433      MEOH     HO1      HDP1A    0.360000       1.00800           0   0.00000       0.00000    
      9477 MEOH     433      MEOH     HO2      DUMH      0.00000       1.00800           0   0.00000       0.00000    
      9478 MEOH     433      MEOH     H1A      HDA3B    0.800000E-01   1.00800           0   0.00000       0.00000    
      9479 MEOH     433      MEOH     H1B      HDA3B    0.800000E-01   1.00800           0   0.00000       0.00000    
      9480 MEOH     433      MEOH     H1C      HDA3B    0.800000E-01   1.00800           0   0.00000       0.00000    
      9481 MEOH     433      MEOH     LP1A     LPD     -0.230000       0.00000          -1   0.00000       0.00000    
      9482 MEOH     433      MEOH     LP1B     LPD     -0.230000       0.00000          -1   0.00000       0.00000    
      9483 MEOH     434      MEOH     C1       CD33B     2.31410       11.6110           0  -1.00000       1.30000    
      9484 MEOH     434      MEOH     DC1      DRUD     -2.45410      0.400000           0   0.00000       0.00000    
      9485 MEOH     434      MEOH     O1       OD31H     2.48830       15.5990           0  -1.02800       1.30000    
      9486 MEOH     434      MEOH     DO1      DRUD     -2.48830      0.400000           0   0.00000       0.00000    
      9487 MEOH     434      MEOH     HO1      HDP1A    0.360000       1.00800           0   0.00000       0.00000    
      9488 MEOH     434      MEOH     HO2      DUMH      0.00000       1.00800           0   0.00000       0.00000    
      9489 MEOH     434      MEOH     H1A      HDA3B    0.800000E-01   1.00800           0   0.00000       0.00000    
      9490 MEOH     434      MEOH     H1B      HDA3B    0.800000E-01   1.00800           0   0.00000       0.00000    
      9491 MEOH     434      MEOH     H1C      HDA3B    0.800000E-01   1.00800           0   0.00000       0.00000    
      9492 MEOH     434      MEOH     LP1A     LPD     -0.230000       0.00000          -1   0.00000       0.00000    
      9493 MEOH     434      MEOH     LP1B     LPD     -0.230000       0.00000          -1   0.00000       0.00000    
      9494 MEOH     435      MEOH     C1       CD33B     2.31410       11.6110           0  -1.00000       1.30000    
      9495 MEOH     435      MEOH     DC1      DRUD     -2.45410      0.400000           0   0.00000       0.00000    
      9496 MEOH     435      MEOH     O1       OD31H     2.48830       15.5990           0  -1.02800       1.30000    
      9497 MEOH     435      MEOH     DO1      DRUD     -2.48830      0.400000           0   0.00000       0.00000    
      9498 MEOH     435      MEOH     HO1      HDP1A    0.360000       1.00800           0   0.00000       0.00000    
      9499 MEOH     435      MEOH     HO2      DUMH      0.00000       1.00800           0   0.00000       0.00000    
      9500 MEOH     435      MEOH     H1A      HDA3B    0.800000E-01   1.00800           0   0.00000       0.00000    
      9501 MEOH     435      MEOH     H1B      HDA3B    0.800000E-01   1.00800           0   0.00000       0.00000    
      9502 MEOH     435      MEOH     H1C      HDA3B    0.800000E-01   1.00800           0   0.00000       0.00000    
      9503 MEOH     435      MEOH     LP1A     LPD     -0.230000       0.00000          -1   0.00000       0.00000    
      9504 MEOH     435      MEOH     LP1B     LPD     -0.230000       0.00000          -1   0.00000       0.00000    
      9505 MEOH     436      MEOH     C1       CD33B     2.31410       11.6110           0  -1.00000       1.30000    
      9506 MEOH     436      MEOH     DC1      DRUD     -2.45410      0.400000           0   0.00000       0.00000    
      9507 MEOH     436      MEOH     O1       OD31H     2.48830       15.5990           0  -1.02800       1.30000    
      9508 MEOH     436      MEOH     DO1      DRUD     -2.48830      0.400000           0   0.00000       0.00000    
      9509 MEOH     436      MEOH     HO1      HDP1A    0.360000       1.00800           0   0.00000       0.00000    
      9510 MEOH     436      MEOH     HO2      DUMH      0.00000       1.00800           0   0.00000       0.00000    
      9511 MEOH     436      MEOH     H1A      HDA3B    0.800000E-01   1.00800           0   0.00000       0.00000    
      9512 MEOH     436      MEOH     H1B      HDA3B    0.800000E-01   1.00800           0   0.00000       0.00000    
      9513 MEOH     436      MEOH     H1C      HDA3B    0.800000E-01   1.00800           0   0.00000       0.00000    
      9514 MEOH     436      MEOH     LP1A     LPD     -0.230000       0.00000          -1   0.00000       0.00000    
      9515 MEOH     436      MEOH     LP1B     LPD     -0.230000       0.00000          -1   0.00000       0.00000    
      9516 MEOH     437      MEOH     C1       CD33B     2.31410       11.6110           0  -1.00000       1.30000    
      9517 MEOH     437      MEOH     DC1      DRUD     -2.45410      0.400000           0   0.00000       0.00000    
      9518 MEOH     437      MEOH     O1       OD31H     2.48830       15.5990           0  -1.02800       1.30000    
      9519 MEOH     437      MEOH     DO1      DRUD     -2.48830      0.400000           0   0.00000       0.00000    
      9520 MEOH     437      MEOH     HO1      HDP1A    0.360000       1.00800           0   0.00000       0.00000    
      9521 MEOH     437      MEOH     HO2      DUMH      0.00000       1.00800           0   0.00000       0.00000    
      9522 MEOH     437      MEOH     H1A      HDA3B    0.800000E-01   1.00800           0   0.00000       0.00000    
      9523 MEOH     437      MEOH     H1B      HDA3B    0.800000E-01   1.00800           0   0.00000       0.00000    
      9524 MEOH     437      MEOH     H1C      HDA3B    0.800000E-01   1.00800           0   0.00000       0.00000    
      9525 MEOH     437      MEOH     LP1A     LPD     -0.230000       0.00000          -1   0.00000       0.00000    
      9526 MEOH     437      MEOH     LP1B     LPD     -0.230000       0.00000          -1   0.00000       0.00000    
      9527 MEOH     438      MEOH     C1       CD33B     2.31410       11.6110           0  -1.00000       1.30000    
      9528 MEOH     438      MEOH     DC1      DRUD     -2.45410      0.400000           0   0.00000       0.00000    
      9529 MEOH     438      MEOH     O1       OD31H     2.48830       15.5990           0  -1.02800       1.30000    
      9530 MEOH     438      MEOH     DO1      DRUD     -2.48830      0.400000           0   0.00000       0.00000    
      9531 MEOH     438      MEOH     HO1      HDP1A    0.360000       1.00800           0   0.00000       0.00000    
      9532 MEOH     438      MEOH     HO2      DUMH      0.00000       1.00800           0   0.00000       0.00000    
      9533 MEOH     438      MEOH     H1A      HDA3B    0.800000E-01   1.00800           0   0.00000       0.00000    
      9534 MEOH     438      MEOH     H1B      HDA3B    0.800000E-01   1.00800           0   0.00000       0.00000    
      9535 MEOH     438      MEOH     H1C      HDA3B    0.800000E-01   1.00800           0   0.00000       0.00000    
      9536 MEOH     438      MEOH     LP1A     LPD     -0.230000       0.00000          -1   0.00000       0.00000    
      9537 MEOH     438      MEOH     LP1B     LPD     -0.230000       0.00000          -1   0.00000       0.00000    
      9538 MEOH     439      MEOH     C1       CD33B     2.31410       11.6110           0  -1.00000       1.30000    
      9539 MEOH     439      MEOH     DC1      DRUD     -2.45410      0.400000           0   0.00000       0.00000    
      9540 MEOH     439      MEOH     O1       OD31H     2.48830       15.5990           0  -1.02800       1.30000    
      9541 MEOH     439      MEOH     DO1      DRUD     -2.48830      0.400000           0   0.00000       0.00000    
      9542 MEOH     439      MEOH     HO1      HDP1A    0.360000       1.00800           0   0.00000       0.00000    
      9543 MEOH     439      MEOH     HO2      DUMH      0.00000       1.00800           0   0.00000       0.00000    
      9544 MEOH     439      MEOH     H1A      HDA3B    0.800000E-01   1.00800           0   0.00000       0.00000    
      9545 MEOH     439      MEOH     H1B      HDA3B    0.800000E-01   1.00800           0   0.00000       0.00000    
      9546 MEOH     439      MEOH     H1C      HDA3B    0.800000E-01   1.00800           0   0.00000       0.00000    
      9547 MEOH     439      MEOH     LP1A     LPD     -0.230000       0.00000          -1   0.00000       0.00000    
      9548 MEOH     439      MEOH     LP1B     LPD     -0.230000       0.00000          -1   0.00000       0.00000    
      9549 MEOH     440      MEOH     C1       CD33B     2.31410       11.6110           0  -1.00000       1.30000    
      9550 MEOH     440      MEOH     DC1      DRUD     -2.45410      0.400000           0   0.00000       0.00000    
      9551 MEOH     440      MEOH     O1       OD31H     2.48830       15.5990           0  -1.02800       1.30000    
      9552 MEOH     440      MEOH     DO1      DRUD     -2.48830      0.400000           0   0.00000       0.00000    
      9553 MEOH     440      MEOH     HO1      HDP1A    0.360000       1.00800           0   0.00000       0.00000    
      9554 MEOH     440      MEOH     HO2      DUMH      0.00000       1.00800           0   0.00000       0.00000    
      9555 MEOH     440      MEOH     H1A      HDA3B    0.800000E-01   1.00800           0   0.00000       0.00000    
      9556 MEOH     440      MEOH     H1B      HDA3B    0.800000E-01   1.00800           0   0.00000       0.00000    
      9557 MEOH     440      MEOH     H1C      HDA3B    0.800000E-01   1.00800           0   0.00000       0.00000    
      9558 MEOH     440      MEOH     LP1A     LPD     -0.230000       0.00000          -1   0.00000       0.00000    
      9559 MEOH     440      MEOH     LP1B     LPD     -0.230000       0.00000          -1   0.00000       0.00000    
      9560 MEOH     441      MEOH     C1       CD33B     2.31410       11.6110           0  -1.00000       1.30000    
      9561 MEOH     441      MEOH     DC1      DRUD     -2.45410      0.400000           0   0.00000       0.00000    
      9562 MEOH     441      MEOH     O1       OD31H     2.48830       15.5990           0  -1.02800       1.30000    
      9563 MEOH     441      MEOH     DO1      DRUD     -2.48830      0.400000           0   0.00000       0.00000    
      9564 MEOH     441      MEOH     HO1      HDP1A    0.360000       1.00800           0   0.00000       0.00000    
      9565 MEOH     441      MEOH     HO2      DUMH      0.00000       1.00800           0   0.00000       0.00000    
      9566 MEOH     441      MEOH     H1A      HDA3B    0.800000E-01   1.00800           0   0.00000       0.00000    
      9567 MEOH     441      MEOH     H1B      HDA3B    0.800000E-01   1.00800           0   0.00000       0.00000    
      9568 MEOH     441      MEOH     H1C      HDA3B    0.800000E-01   1.00800           0   0.00000       0.00000    
      9569 MEOH     441      MEOH     LP1A     LPD     -0.230000       0.00000          -1   0.00000       0.00000    
      9570 MEOH     441      MEOH     LP1B     LPD     -0.230000       0.00000          -1   0.00000       0.00000    
      9571 MEOH     442      MEOH     C1       CD33B     2.31410       11.6110           0  -1.00000       1.30000    
      9572 MEOH     442      MEOH     DC1      DRUD     -2.45410      0.400000           0   0.00000       0.00000    
      9573 MEOH     442      MEOH     O1       OD31H     2.48830       15.5990           0  -1.02800       1.30000    
      9574 MEOH     442      MEOH     DO1      DRUD     -2.48830      0.400000           0   0.00000       0.00000    
      9575 MEOH     442      MEOH     HO1      HDP1A    0.360000       1.00800           0   0.00000       0.00000    
      9576 MEOH     442      MEOH     HO2      DUMH      0.00000       1.00800           0   0.00000       0.00000    
      9577 MEOH     442      MEOH     H1A      HDA3B    0.800000E-01   1.00800           0   0.00000       0.00000    
      9578 MEOH     442      MEOH     H1B      HDA3B    0.800000E-01   1.00800           0   0.00000       0.00000    
      9579 MEOH     442      MEOH     H1C      HDA3B    0.800000E-01   1.00800           0   0.00000       0.00000    
      9580 MEOH     442      MEOH     LP1A     LPD     -0.230000       0.00000          -1   0.00000       0.00000    
      9581 MEOH     442      MEOH     LP1B     LPD     -0.230000       0.00000          -1   0.00000       0.00000    
      9582 MEOH     443      MEOH     C1       CD33B     2.31410       11.6110           0  -1.00000       1.30000    
      9583 MEOH     443      MEOH     DC1      DRUD     -2.45410      0.400000           0   0.00000       0.00000    
      9584 MEOH     443      MEOH     O1       OD31H     2.48830       15.5990           0  -1.02800       1.30000    
      9585 MEOH     443      MEOH     DO1      DRUD     -2.48830      0.400000           0   0.00000       0.00000    
      9586 MEOH     443      MEOH     HO1      HDP1A    0.360000       1.00800           0   0.00000       0.00000    
      9587 MEOH     443      MEOH     HO2      DUMH      0.00000       1.00800           0   0.00000       0.00000    
      9588 MEOH     443      MEOH     H1A      HDA3B    0.800000E-01   1.00800           0   0.00000       0.00000    
      9589 MEOH     443      MEOH     H1B      HDA3B    0.800000E-01   1.00800           0   0.00000       0.00000    
      9590 MEOH     443      MEOH     H1C      HDA3B    0.800000E-01   1.00800           0   0.00000       0.00000    
      9591 MEOH     443      MEOH     LP1A     LPD     -0.230000       0.00000          -1   0.00000       0.00000    
      9592 MEOH     443      MEOH     LP1B     LPD     -0.230000       0.00000          -1   0.00000       0.00000    
      9593 MEOH     444      MEOH     C1       CD33B     2.31410       11.6110           0  -1.00000       1.30000    
      9594 MEOH     444      MEOH     DC1      DRUD     -2.45410      0.400000           0   0.00000       0.00000    
      9595 MEOH     444      MEOH     O1       OD31H     2.48830       15.5990           0  -1.02800       1.30000    
      9596 MEOH     444      MEOH     DO1      DRUD     -2.48830      0.400000           0   0.00000       0.00000    
      9597 MEOH     444      MEOH     HO1      HDP1A    0.360000       1.00800           0   0.00000       0.00000    
      9598 MEOH     444      MEOH     HO2      DUMH      0.00000       1.00800           0   0.00000       0.00000    
      9599 MEOH     444      MEOH     H1A      HDA3B    0.800000E-01   1.00800           0   0.00000       0.00000    
      9600 MEOH     444      MEOH     H1B      HDA3B    0.800000E-01   1.00800           0   0.00000       0.00000    
      9601 MEOH     444      MEOH     H1C      HDA3B    0.800000E-01   1.00800           0   0.00000       0.00000    
      9602 MEOH     444      MEOH     LP1A     LPD     -0.230000       0.00000          -1   0.00000       0.00000    
      9603 MEOH     444      MEOH     LP1B     LPD     -0.230000       0.00000          -1   0.00000       0.00000    
      9604 MEOH     445      MEOH     C1       CD33B     2.31410       11.6110           0  -1.00000       1.30000    
      9605 MEOH     445      MEOH     DC1      DRUD     -2.45410      0.400000           0   0.00000       0.00000    
      9606 MEOH     445      MEOH     O1       OD31H     2.48830       15.5990           0  -1.02800       1.30000    
      9607 MEOH     445      MEOH     DO1      DRUD     -2.48830      0.400000           0   0.00000       0.00000    
      9608 MEOH     445      MEOH     HO1      HDP1A    0.360000       1.00800           0   0.00000       0.00000    
      9609 MEOH     445      MEOH     HO2      DUMH      0.00000       1.00800           0   0.00000       0.00000    
      9610 MEOH     445      MEOH     H1A      HDA3B    0.800000E-01   1.00800           0   0.00000       0.00000    
      9611 MEOH     445      MEOH     H1B      HDA3B    0.800000E-01   1.00800           0   0.00000       0.00000    
      9612 MEOH     445      MEOH     H1C      HDA3B    0.800000E-01   1.00800           0   0.00000       0.00000    
      9613 MEOH     445      MEOH     LP1A     LPD     -0.230000       0.00000          -1   0.00000       0.00000    
      9614 MEOH     445      MEOH     LP1B     LPD     -0.230000       0.00000          -1   0.00000       0.00000    
      9615 MEOH     446      MEOH     C1       CD33B     2.31410       11.6110           0  -1.00000       1.30000    
      9616 MEOH     446      MEOH     DC1      DRUD     -2.45410      0.400000           0   0.00000       0.00000    
      9617 MEOH     446      MEOH     O1       OD31H     2.48830       15.5990           0  -1.02800       1.30000    
      9618 MEOH     446      MEOH     DO1      DRUD     -2.48830      0.400000           0   0.00000       0.00000    
      9619 MEOH     446      MEOH     HO1      HDP1A    0.360000       1.00800           0   0.00000       0.00000    
      9620 MEOH     446      MEOH     HO2      DUMH      0.00000       1.00800           0   0.00000       0.00000    
      9621 MEOH     446      MEOH     H1A      HDA3B    0.800000E-01   1.00800           0   0.00000       0.00000    
      9622 MEOH     446      MEOH     H1B      HDA3B    0.800000E-01   1.00800           0   0.00000       0.00000    
      9623 MEOH     446      MEOH     H1C      HDA3B    0.800000E-01   1.00800           0   0.00000       0.00000    
      9624 MEOH     446      MEOH     LP1A     LPD     -0.230000       0.00000          -1   0.00000       0.00000    
      9625 MEOH     446      MEOH     LP1B     LPD     -0.230000       0.00000          -1   0.00000       0.00000    
      9626 MEOH     447      MEOH     C1       CD33B     2.31410       11.6110           0  -1.00000       1.30000    
      9627 MEOH     447      MEOH     DC1      DRUD     -2.45410      0.400000           0   0.00000       0.00000    
      9628 MEOH     447      MEOH     O1       OD31H     2.48830       15.5990           0  -1.02800       1.30000    
      9629 MEOH     447      MEOH     DO1      DRUD     -2.48830      0.400000           0   0.00000       0.00000    
      9630 MEOH     447      MEOH     HO1      HDP1A    0.360000       1.00800           0   0.00000       0.00000    
      9631 MEOH     447      MEOH     HO2      DUMH      0.00000       1.00800           0   0.00000       0.00000    
      9632 MEOH     447      MEOH     H1A      HDA3B    0.800000E-01   1.00800           0   0.00000       0.00000    
      9633 MEOH     447      MEOH     H1B      HDA3B    0.800000E-01   1.00800           0   0.00000       0.00000    
      9634 MEOH     447      MEOH     H1C      HDA3B    0.800000E-01   1.00800           0   0.00000       0.00000    
      9635 MEOH     447      MEOH     LP1A     LPD     -0.230000       0.00000          -1   0.00000       0.00000    
      9636 MEOH     447      MEOH     LP1B     LPD     -0.230000       0.00000          -1   0.00000       0.00000    
      9637 MEOH     448      MEOH     C1       CD33B     2.31410       11.6110           0  -1.00000       1.30000    
      9638 MEOH     448      MEOH     DC1      DRUD     -2.45410      0.400000           0   0.00000       0.00000    
      9639 MEOH     448      MEOH     O1       OD31H     2.48830       15.5990           0  -1.02800       1.30000    
      9640 MEOH     448      MEOH     DO1      DRUD     -2.48830      0.400000           0   0.00000       0.00000    
      9641 MEOH     448      MEOH     HO1      HDP1A    0.360000       1.00800           0   0.00000       0.00000    
      9642 MEOH     448      MEOH     HO2      DUMH      0.00000       1.00800           0   0.00000       0.00000    
      9643 MEOH     448      MEOH     H1A      HDA3B    0.800000E-01   1.00800           0   0.00000       0.00000    
      9644 MEOH     448      MEOH     H1B      HDA3B    0.800000E-01   1.00800           0   0.00000       0.00000    
      9645 MEOH     448      MEOH     H1C      HDA3B    0.800000E-01   1.00800           0   0.00000       0.00000    
      9646 MEOH     448      MEOH     LP1A     LPD     -0.230000       0.00000          -1   0.00000       0.00000    
      9647 MEOH     448      MEOH     LP1B     LPD     -0.230000       0.00000          -1   0.00000       0.00000    
      9648 MEOH     449      MEOH     C1       CD33B     2.31410       11.6110           0  -1.00000       1.30000    
      9649 MEOH     449      MEOH     DC1      DRUD     -2.45410      0.400000           0   0.00000       0.00000    
      9650 MEOH     449      MEOH     O1       OD31H     2.48830       15.5990           0  -1.02800       1.30000    
      9651 MEOH     449      MEOH     DO1      DRUD     -2.48830      0.400000           0   0.00000       0.00000    
      9652 MEOH     449      MEOH     HO1      HDP1A    0.360000       1.00800           0   0.00000       0.00000    
      9653 MEOH     449      MEOH     HO2      DUMH      0.00000       1.00800           0   0.00000       0.00000    
      9654 MEOH     449      MEOH     H1A      HDA3B    0.800000E-01   1.00800           0   0.00000       0.00000    
      9655 MEOH     449      MEOH     H1B      HDA3B    0.800000E-01   1.00800           0   0.00000       0.00000    
      9656 MEOH     449      MEOH     H1C      HDA3B    0.800000E-01   1.00800           0   0.00000       0.00000    
      9657 MEOH     449      MEOH     LP1A     LPD     -0.230000       0.00000          -1   0.00000       0.00000    
      9658 MEOH     449      MEOH     LP1B     LPD     -0.230000       0.00000          -1   0.00000       0.00000    
      9659 MEOH     450      MEOH     C1       CD33B     2.31410       11.6110           0  -1.00000       1.30000    
      9660 MEOH     450      MEOH     DC1      DRUD     -2.45410      0.400000           0   0.00000       0.00000    
      9661 MEOH     450      MEOH     O1       OD31H     2.48830       15.5990           0  -1.02800       1.30000    
      9662 MEOH     450      MEOH     DO1      DRUD     -2.48830      0.400000           0   0.00000       0.00000    
      9663 MEOH     450      MEOH     HO1      HDP1A    0.360000       1.00800           0   0.00000       0.00000    
      9664 MEOH     450      MEOH     HO2      DUMH      0.00000       1.00800           0   0.00000       0.00000    
      9665 MEOH     450      MEOH     H1A      HDA3B    0.800000E-01   1.00800           0   0.00000       0.00000    
      9666 MEOH     450      MEOH     H1B      HDA3B    0.800000E-01   1.00800           0   0.00000       0.00000    
      9667 MEOH     450      MEOH     H1C      HDA3B    0.800000E-01   1.00800           0   0.00000       0.00000    
      9668 MEOH     450      MEOH     LP1A     LPD     -0.230000       0.00000          -1   0.00000       0.00000    
      9669 MEOH     450      MEOH     LP1B     LPD     -0.230000       0.00000          -1   0.00000       0.00000    
      9670 MEOH     451      MEOH     C1       CD33B     2.31410       11.6110           0  -1.00000       1.30000    
      9671 MEOH     451      MEOH     DC1      DRUD     -2.45410      0.400000           0   0.00000       0.00000    
      9672 MEOH     451      MEOH     O1       OD31H     2.48830       15.5990           0  -1.02800       1.30000    
      9673 MEOH     451      MEOH     DO1      DRUD     -2.48830      0.400000           0   0.00000       0.00000    
      9674 MEOH     451      MEOH     HO1      HDP1A    0.360000       1.00800           0   0.00000       0.00000    
      9675 MEOH     451      MEOH     HO2      DUMH      0.00000       1.00800           0   0.00000       0.00000    
      9676 MEOH     451      MEOH     H1A      HDA3B    0.800000E-01   1.00800           0   0.00000       0.00000    
      9677 MEOH     451      MEOH     H1B      HDA3B    0.800000E-01   1.00800           0   0.00000       0.00000    
      9678 MEOH     451      MEOH     H1C      HDA3B    0.800000E-01   1.00800           0   0.00000       0.00000    
      9679 MEOH     451      MEOH     LP1A     LPD     -0.230000       0.00000          -1   0.00000       0.00000    
      9680 MEOH     451      MEOH     LP1B     LPD     -0.230000       0.00000          -1   0.00000       0.00000    
      9681 MEOH     452      MEOH     C1       CD33B     2.31410       11.6110           0  -1.00000       1.30000    
      9682 MEOH     452      MEOH     DC1      DRUD     -2.45410      0.400000           0   0.00000       0.00000    
      9683 MEOH     452      MEOH     O1       OD31H     2.48830       15.5990           0  -1.02800       1.30000    
      9684 MEOH     452      MEOH     DO1      DRUD     -2.48830      0.400000           0   0.00000       0.00000    
      9685 MEOH     452      MEOH     HO1      HDP1A    0.360000       1.00800           0   0.00000       0.00000    
      9686 MEOH     452      MEOH     HO2      DUMH      0.00000       1.00800           0   0.00000       0.00000    
      9687 MEOH     452      MEOH     H1A      HDA3B    0.800000E-01   1.00800           0   0.00000       0.00000    
      9688 MEOH     452      MEOH     H1B      HDA3B    0.800000E-01   1.00800           0   0.00000       0.00000    
      9689 MEOH     452      MEOH     H1C      HDA3B    0.800000E-01   1.00800           0   0.00000       0.00000    
      9690 MEOH     452      MEOH     LP1A     LPD     -0.230000       0.00000          -1   0.00000       0.00000    
      9691 MEOH     452      MEOH     LP1B     LPD     -0.230000       0.00000          -1   0.00000       0.00000    
      9692 MEOH     453      MEOH     C1       CD33B     2.31410       11.6110           0  -1.00000       1.30000    
      9693 MEOH     453      MEOH     DC1      DRUD     -2.45410      0.400000           0   0.00000       0.00000    
      9694 MEOH     453      MEOH     O1       OD31H     2.48830       15.5990           0  -1.02800       1.30000    
      9695 MEOH     453      MEOH     DO1      DRUD     -2.48830      0.400000           0   0.00000       0.00000    
      9696 MEOH     453      MEOH     HO1      HDP1A    0.360000       1.00800           0   0.00000       0.00000    
      9697 MEOH     453      MEOH     HO2      DUMH      0.00000       1.00800           0   0.00000       0.00000    
      9698 MEOH     453      MEOH     H1A      HDA3B    0.800000E-01   1.00800           0   0.00000       0.00000    
      9699 MEOH     453      MEOH     H1B      HDA3B    0.800000E-01   1.00800           0   0.00000       0.00000    
      9700 MEOH     453      MEOH     H1C      HDA3B    0.800000E-01   1.00800           0   0.00000       0.00000    
      9701 MEOH     453      MEOH     LP1A     LPD     -0.230000       0.00000          -1   0.00000       0.00000    
      9702 MEOH     453      MEOH     LP1B     LPD     -0.230000       0.00000          -1   0.00000       0.00000    
      9703 MEOH     454      MEOH     C1       CD33B     2.31410       11.6110           0  -1.00000       1.30000    
      9704 MEOH     454      MEOH     DC1      DRUD     -2.45410      0.400000           0   0.00000       0.00000    
      9705 MEOH     454      MEOH     O1       OD31H     2.48830       15.5990           0  -1.02800       1.30000    
      9706 MEOH     454      MEOH     DO1      DRUD     -2.48830      0.400000           0   0.00000       0.00000    
      9707 MEOH     454      MEOH     HO1      HDP1A    0.360000       1.00800           0   0.00000       0.00000    
      9708 MEOH     454      MEOH     HO2      DUMH      0.00000       1.00800           0   0.00000       0.00000    
      9709 MEOH     454      MEOH     H1A      HDA3B    0.800000E-01   1.00800           0   0.00000       0.00000    
      9710 MEOH     454      MEOH     H1B      HDA3B    0.800000E-01   1.00800           0   0.00000       0.00000    
      9711 MEOH     454      MEOH     H1C      HDA3B    0.800000E-01   1.00800           0   0.00000       0.00000    
      9712 MEOH     454      MEOH     LP1A     LPD     -0.230000       0.00000          -1   0.00000       0.00000    
      9713 MEOH     454      MEOH     LP1B     LPD     -0.230000       0.00000          -1   0.00000       0.00000    
      9714 MEOH     455      MEOH     C1       CD33B     2.31410       11.6110           0  -1.00000       1.30000    
      9715 MEOH     455      MEOH     DC1      DRUD     -2.45410      0.400000           0   0.00000       0.00000    
      9716 MEOH     455      MEOH     O1       OD31H     2.48830       15.5990           0  -1.02800       1.30000    
      9717 MEOH     455      MEOH     DO1      DRUD     -2.48830      0.400000           0   0.00000       0.00000    
      9718 MEOH     455      MEOH     HO1      HDP1A    0.360000       1.00800           0   0.00000       0.00000    
      9719 MEOH     455      MEOH     HO2      DUMH      0.00000       1.00800           0   0.00000       0.00000    
      9720 MEOH     455      MEOH     H1A      HDA3B    0.800000E-01   1.00800           0   0.00000       0.00000    
      9721 MEOH     455      MEOH     H1B      HDA3B    0.800000E-01   1.00800           0   0.00000       0.00000    
      9722 MEOH     455      MEOH     H1C      HDA3B    0.800000E-01   1.00800           0   0.00000       0.00000    
      9723 MEOH     455      MEOH     LP1A     LPD     -0.230000       0.00000          -1   0.00000       0.00000    
      9724 MEOH     455      MEOH     LP1B     LPD     -0.230000       0.00000          -1   0.00000       0.00000    
      9725 MEOH     456      MEOH     C1       CD33B     2.31410       11.6110           0  -1.00000       1.30000    
      9726 MEOH     456      MEOH     DC1      DRUD     -2.45410      0.400000           0   0.00000       0.00000    
      9727 MEOH     456      MEOH     O1       OD31H     2.48830       15.5990           0  -1.02800       1.30000    
      9728 MEOH     456      MEOH     DO1      DRUD     -2.48830      0.400000           0   0.00000       0.00000    
      9729 MEOH     456      MEOH     HO1      HDP1A    0.360000       1.00800           0   0.00000       0.00000    
      9730 MEOH     456      MEOH     HO2      DUMH      0.00000       1.00800           0   0.00000       0.00000    
      9731 MEOH     456      MEOH     H1A      HDA3B    0.800000E-01   1.00800           0   0.00000       0.00000    
      9732 MEOH     456      MEOH     H1B      HDA3B    0.800000E-01   1.00800           0   0.00000       0.00000    
      9733 MEOH     456      MEOH     H1C      HDA3B    0.800000E-01   1.00800           0   0.00000       0.00000    
      9734 MEOH     456      MEOH     LP1A     LPD     -0.230000       0.00000          -1   0.00000       0.00000    
      9735 MEOH     456      MEOH     LP1B     LPD     -0.230000       0.00000          -1   0.00000       0.00000    
      9736 MEOH     457      MEOH     C1       CD33B     2.31410       11.6110           0  -1.00000       1.30000    
      9737 MEOH     457      MEOH     DC1      DRUD     -2.45410      0.400000           0   0.00000       0.00000    
      9738 MEOH     457      MEOH     O1       OD31H     2.48830       15.5990           0  -1.02800       1.30000    
      9739 MEOH     457      MEOH     DO1      DRUD     -2.48830      0.400000           0   0.00000       0.00000    
      9740 MEOH     457      MEOH     HO1      HDP1A    0.360000       1.00800           0   0.00000       0.00000    
      9741 MEOH     457      MEOH     HO2      DUMH      0.00000       1.00800           0   0.00000       0.00000    
      9742 MEOH     457      MEOH     H1A      HDA3B    0.800000E-01   1.00800           0   0.00000       0.00000    
      9743 MEOH     457      MEOH     H1B      HDA3B    0.800000E-01   1.00800           0   0.00000       0.00000    
      9744 MEOH     457      MEOH     H1C      HDA3B    0.800000E-01   1.00800           0   0.00000       0.00000    
      9745 MEOH     457      MEOH     LP1A     LPD     -0.230000       0.00000          -1   0.00000       0.00000    
      9746 MEOH     457      MEOH     LP1B     LPD     -0.230000       0.00000          -1   0.00000       0.00000    
      9747 MEOH     458      MEOH     C1       CD33B     2.31410       11.6110           0  -1.00000       1.30000    
      9748 MEOH     458      MEOH     DC1      DRUD     -2.45410      0.400000           0   0.00000       0.00000    
      9749 MEOH     458      MEOH     O1       OD31H     2.48830       15.5990           0  -1.02800       1.30000    
      9750 MEOH     458      MEOH     DO1      DRUD     -2.48830      0.400000           0   0.00000       0.00000    
      9751 MEOH     458      MEOH     HO1      HDP1A    0.360000       1.00800           0   0.00000       0.00000    
      9752 MEOH     458      MEOH     HO2      DUMH      0.00000       1.00800           0   0.00000       0.00000    
      9753 MEOH     458      MEOH     H1A      HDA3B    0.800000E-01   1.00800           0   0.00000       0.00000    
      9754 MEOH     458      MEOH     H1B      HDA3B    0.800000E-01   1.00800           0   0.00000       0.00000    
      9755 MEOH     458      MEOH     H1C      HDA3B    0.800000E-01   1.00800           0   0.00000       0.00000    
      9756 MEOH     458      MEOH     LP1A     LPD     -0.230000       0.00000          -1   0.00000       0.00000    
      9757 MEOH     458      MEOH     LP1B     LPD     -0.230000       0.00000          -1   0.00000       0.00000    
      9758 MEOH     459      MEOH     C1       CD33B     2.31410       11.6110           0  -1.00000       1.30000    
      9759 MEOH     459      MEOH     DC1      DRUD     -2.45410      0.400000           0   0.00000       0.00000    
      9760 MEOH     459      MEOH     O1       OD31H     2.48830       15.5990           0  -1.02800       1.30000    
      9761 MEOH     459      MEOH     DO1      DRUD     -2.48830      0.400000           0   0.00000       0.00000    
      9762 MEOH     459      MEOH     HO1      HDP1A    0.360000       1.00800           0   0.00000       0.00000    
      9763 MEOH     459      MEOH     HO2      DUMH      0.00000       1.00800           0   0.00000       0.00000    
      9764 MEOH     459      MEOH     H1A      HDA3B    0.800000E-01   1.00800           0   0.00000       0.00000    
      9765 MEOH     459      MEOH     H1B      HDA3B    0.800000E-01   1.00800           0   0.00000       0.00000    
      9766 MEOH     459      MEOH     H1C      HDA3B    0.800000E-01   1.00800           0   0.00000       0.00000    
      9767 MEOH     459      MEOH     LP1A     LPD     -0.230000       0.00000          -1   0.00000       0.00000    
      9768 MEOH     459      MEOH     LP1B     LPD     -0.230000       0.00000          -1   0.00000       0.00000    
      9769 MEOH     460      MEOH     C1       CD33B     2.31410       11.6110           0  -1.00000       1.30000    
      9770 MEOH     460      MEOH     DC1      DRUD     -2.45410      0.400000           0   0.00000       0.00000    
      9771 MEOH     460      MEOH     O1       OD31H     2.48830       15.5990           0  -1.02800       1.30000    
      9772 MEOH     460      MEOH     DO1      DRUD     -2.48830      0.400000           0   0.00000       0.00000    
      9773 MEOH     460      MEOH     HO1      HDP1A    0.360000       1.00800           0   0.00000       0.00000    
      9774 MEOH     460      MEOH     HO2      DUMH      0.00000       1.00800           0   0.00000       0.00000    
      9775 MEOH     460      MEOH     H1A      HDA3B    0.800000E-01   1.00800           0   0.00000       0.00000    
      9776 MEOH     460      MEOH     H1B      HDA3B    0.800000E-01   1.00800           0   0.00000       0.00000    
      9777 MEOH     460      MEOH     H1C      HDA3B    0.800000E-01   1.00800           0   0.00000       0.00000    
      9778 MEOH     460      MEOH     LP1A     LPD     -0.230000       0.00000          -1   0.00000       0.00000    
      9779 MEOH     460      MEOH     LP1B     LPD     -0.230000       0.00000          -1   0.00000       0.00000    
      9780 MEOH     461      MEOH     C1       CD33B     2.31410       11.6110           0  -1.00000       1.30000    
      9781 MEOH     461      MEOH     DC1      DRUD     -2.45410      0.400000           0   0.00000       0.00000    
      9782 MEOH     461      MEOH     O1       OD31H     2.48830       15.5990           0  -1.02800       1.30000    
      9783 MEOH     461      MEOH     DO1      DRUD     -2.48830      0.400000           0   0.00000       0.00000    
      9784 MEOH     461      MEOH     HO1      HDP1A    0.360000       1.00800           0   0.00000       0.00000    
      9785 MEOH     461      MEOH     HO2      DUMH      0.00000       1.00800           0   0.00000       0.00000    
      9786 MEOH     461      MEOH     H1A      HDA3B    0.800000E-01   1.00800           0   0.00000       0.00000    
      9787 MEOH     461      MEOH     H1B      HDA3B    0.800000E-01   1.00800           0   0.00000       0.00000    
      9788 MEOH     461      MEOH     H1C      HDA3B    0.800000E-01   1.00800           0   0.00000       0.00000    
      9789 MEOH     461      MEOH     LP1A     LPD     -0.230000       0.00000          -1   0.00000       0.00000    
      9790 MEOH     461      MEOH     LP1B     LPD     -0.230000       0.00000          -1   0.00000       0.00000    
      9791 MEOH     462      MEOH     C1       CD33B     2.31410       11.6110           0  -1.00000       1.30000    
      9792 MEOH     462      MEOH     DC1      DRUD     -2.45410      0.400000           0   0.00000       0.00000    
      9793 MEOH     462      MEOH     O1       OD31H     2.48830       15.5990           0  -1.02800       1.30000    
      9794 MEOH     462      MEOH     DO1      DRUD     -2.48830      0.400000           0   0.00000       0.00000    
      9795 MEOH     462      MEOH     HO1      HDP1A    0.360000       1.00800           0   0.00000       0.00000    
      9796 MEOH     462      MEOH     HO2      DUMH      0.00000       1.00800           0   0.00000       0.00000    
      9797 MEOH     462      MEOH     H1A      HDA3B    0.800000E-01   1.00800           0   0.00000       0.00000    
      9798 MEOH     462      MEOH     H1B      HDA3B    0.800000E-01   1.00800           0   0.00000       0.00000    
      9799 MEOH     462      MEOH     H1C      HDA3B    0.800000E-01   1.00800           0   0.00000       0.00000    
      9800 MEOH     462      MEOH     LP1A     LPD     -0.230000       0.00000          -1   0.00000       0.00000    
      9801 MEOH     462      MEOH     LP1B     LPD     -0.230000       0.00000          -1   0.00000       0.00000    
      9802 MEOH     463      MEOH     C1       CD33B     2.31410       11.6110           0  -1.00000       1.30000    
      9803 MEOH     463      MEOH     DC1      DRUD     -2.45410      0.400000           0   0.00000       0.00000    
      9804 MEOH     463      MEOH     O1       OD31H     2.48830       15.5990           0  -1.02800       1.30000    
      9805 MEOH     463      MEOH     DO1      DRUD     -2.48830      0.400000           0   0.00000       0.00000    
      9806 MEOH     463      MEOH     HO1      HDP1A    0.360000       1.00800           0   0.00000       0.00000    
      9807 MEOH     463      MEOH     HO2      DUMH      0.00000       1.00800           0   0.00000       0.00000    
      9808 MEOH     463      MEOH     H1A      HDA3B    0.800000E-01   1.00800           0   0.00000       0.00000    
      9809 MEOH     463      MEOH     H1B      HDA3B    0.800000E-01   1.00800           0   0.00000       0.00000    
      9810 MEOH     463      MEOH     H1C      HDA3B    0.800000E-01   1.00800           0   0.00000       0.00000    
      9811 MEOH     463      MEOH     LP1A     LPD     -0.230000       0.00000          -1   0.00000       0.00000    
      9812 MEOH     463      MEOH     LP1B     LPD     -0.230000       0.00000          -1   0.00000       0.00000    
      9813 MEOH     464      MEOH     C1       CD33B     2.31410       11.6110           0  -1.00000       1.30000    
      9814 MEOH     464      MEOH     DC1      DRUD     -2.45410      0.400000           0   0.00000       0.00000    
      9815 MEOH     464      MEOH     O1       OD31H     2.48830       15.5990           0  -1.02800       1.30000    
      9816 MEOH     464      MEOH     DO1      DRUD     -2.48830      0.400000           0   0.00000       0.00000    
      9817 MEOH     464      MEOH     HO1      HDP1A    0.360000       1.00800           0   0.00000       0.00000    
      9818 MEOH     464      MEOH     HO2      DUMH      0.00000       1.00800           0   0.00000       0.00000    
      9819 MEOH     464      MEOH     H1A      HDA3B    0.800000E-01   1.00800           0   0.00000       0.00000    
      9820 MEOH     464      MEOH     H1B      HDA3B    0.800000E-01   1.00800           0   0.00000       0.00000    
      9821 MEOH     464      MEOH     H1C      HDA3B    0.800000E-01   1.00800           0   0.00000       0.00000    
      9822 MEOH     464      MEOH     LP1A     LPD     -0.230000       0.00000          -1   0.00000       0.00000    
      9823 MEOH     464      MEOH     LP1B     LPD     -0.230000       0.00000          -1   0.00000       0.00000    
      9824 MEOH     465      MEOH     C1       CD33B     2.31410       11.6110           0  -1.00000       1.30000    
      9825 MEOH     465      MEOH     DC1      DRUD     -2.45410      0.400000           0   0.00000       0.00000    
      9826 MEOH     465      MEOH     O1       OD31H     2.48830       15.5990           0  -1.02800       1.30000    
      9827 MEOH     465      MEOH     DO1      DRUD     -2.48830      0.400000           0   0.00000       0.00000    
      9828 MEOH     465      MEOH     HO1      HDP1A    0.360000       1.00800           0   0.00000       0.00000    
      9829 MEOH     465      MEOH     HO2      DUMH      0.00000       1.00800           0   0.00000       0.00000    
      9830 MEOH     465      MEOH     H1A      HDA3B    0.800000E-01   1.00800           0   0.00000       0.00000    
      9831 MEOH     465      MEOH     H1B      HDA3B    0.800000E-01   1.00800           0   0.00000       0.00000    
      9832 MEOH     465      MEOH     H1C      HDA3B    0.800000E-01   1.00800           0   0.00000       0.00000    
      9833 MEOH     465      MEOH     LP1A     LPD     -0.230000       0.00000          -1   0.00000       0.00000    
      9834 MEOH     465      MEOH     LP1B     LPD     -0.230000       0.00000          -1   0.00000       0.00000    
      9835 MEOH     466      MEOH     C1       CD33B     2.31410       11.6110           0  -1.00000       1.30000    
      9836 MEOH     466      MEOH     DC1      DRUD     -2.45410      0.400000           0   0.00000       0.00000    
      9837 MEOH     466      MEOH     O1       OD31H     2.48830       15.5990           0  -1.02800       1.30000    
      9838 MEOH     466      MEOH     DO1      DRUD     -2.48830      0.400000           0   0.00000       0.00000    
      9839 MEOH     466      MEOH     HO1      HDP1A    0.360000       1.00800           0   0.00000       0.00000    
      9840 MEOH     466      MEOH     HO2      DUMH      0.00000       1.00800           0   0.00000       0.00000    
      9841 MEOH     466      MEOH     H1A      HDA3B    0.800000E-01   1.00800           0   0.00000       0.00000    
      9842 MEOH     466      MEOH     H1B      HDA3B    0.800000E-01   1.00800           0   0.00000       0.00000    
      9843 MEOH     466      MEOH     H1C      HDA3B    0.800000E-01   1.00800           0   0.00000       0.00000    
      9844 MEOH     466      MEOH     LP1A     LPD     -0.230000       0.00000          -1   0.00000       0.00000    
      9845 MEOH     466      MEOH     LP1B     LPD     -0.230000       0.00000          -1   0.00000       0.00000    
      9846 MEOH     467      MEOH     C1       CD33B     2.31410       11.6110           0  -1.00000       1.30000    
      9847 MEOH     467      MEOH     DC1      DRUD     -2.45410      0.400000           0   0.00000       0.00000    
      9848 MEOH     467      MEOH     O1       OD31H     2.48830       15.5990           0  -1.02800       1.30000    
      9849 MEOH     467      MEOH     DO1      DRUD     -2.48830      0.400000           0   0.00000       0.00000    
      9850 MEOH     467      MEOH     HO1      HDP1A    0.360000       1.00800           0   0.00000       0.00000    
      9851 MEOH     467      MEOH     HO2      DUMH      0.00000       1.00800           0   0.00000       0.00000    
      9852 MEOH     467      MEOH     H1A      HDA3B    0.800000E-01   1.00800           0   0.00000       0.00000    
      9853 MEOH     467      MEOH     H1B      HDA3B    0.800000E-01   1.00800           0   0.00000       0.00000    
      9854 MEOH     467      MEOH     H1C      HDA3B    0.800000E-01   1.00800           0   0.00000       0.00000    
      9855 MEOH     467      MEOH     LP1A     LPD     -0.230000       0.00000          -1   0.00000       0.00000    
      9856 MEOH     467      MEOH     LP1B     LPD     -0.230000       0.00000          -1   0.00000       0.00000    
      9857 MEOH     468      MEOH     C1       CD33B     2.31410       11.6110           0  -1.00000       1.30000    
      9858 MEOH     468      MEOH     DC1      DRUD     -2.45410      0.400000           0   0.00000       0.00000    
      9859 MEOH     468      MEOH     O1       OD31H     2.48830       15.5990           0  -1.02800       1.30000    
      9860 MEOH     468      MEOH     DO1      DRUD     -2.48830      0.400000           0   0.00000       0.00000    
      9861 MEOH     468      MEOH     HO1      HDP1A    0.360000       1.00800           0   0.00000       0.00000    
      9862 MEOH     468      MEOH     HO2      DUMH      0.00000       1.00800           0   0.00000       0.00000    
      9863 MEOH     468      MEOH     H1A      HDA3B    0.800000E-01   1.00800           0   0.00000       0.00000    
      9864 MEOH     468      MEOH     H1B      HDA3B    0.800000E-01   1.00800           0   0.00000       0.00000    
      9865 MEOH     468      MEOH     H1C      HDA3B    0.800000E-01   1.00800           0   0.00000       0.00000    
      9866 MEOH     468      MEOH     LP1A     LPD     -0.230000       0.00000          -1   0.00000       0.00000    
      9867 MEOH     468      MEOH     LP1B     LPD     -0.230000       0.00000          -1   0.00000       0.00000    
      9868 MEOH     469      MEOH     C1       CD33B     2.31410       11.6110           0  -1.00000       1.30000    
      9869 MEOH     469      MEOH     DC1      DRUD     -2.45410      0.400000           0   0.00000       0.00000    
      9870 MEOH     469      MEOH     O1       OD31H     2.48830       15.5990           0  -1.02800       1.30000    
      9871 MEOH     469      MEOH     DO1      DRUD     -2.48830      0.400000           0   0.00000       0.00000    
      9872 MEOH     469      MEOH     HO1      HDP1A    0.360000       1.00800           0   0.00000       0.00000    
      9873 MEOH     469      MEOH     HO2      DUMH      0.00000       1.00800           0   0.00000       0.00000    
      9874 MEOH     469      MEOH     H1A      HDA3B    0.800000E-01   1.00800           0   0.00000       0.00000    
      9875 MEOH     469      MEOH     H1B      HDA3B    0.800000E-01   1.00800           0   0.00000       0.00000    
      9876 MEOH     469      MEOH     H1C      HDA3B    0.800000E-01   1.00800           0   0.00000       0.00000    
      9877 MEOH     469      MEOH     LP1A     LPD     -0.230000       0.00000          -1   0.00000       0.00000    
      9878 MEOH     469      MEOH     LP1B     LPD     -0.230000       0.00000          -1   0.00000       0.00000    
      9879 MEOH     470      MEOH     C1       CD33B     2.31410       11.6110           0  -1.00000       1.30000    
      9880 MEOH     470      MEOH     DC1      DRUD     -2.45410      0.400000           0   0.00000       0.00000    
      9881 MEOH     470      MEOH     O1       OD31H     2.48830       15.5990           0  -1.02800       1.30000    
      9882 MEOH     470      MEOH     DO1      DRUD     -2.48830      0.400000           0   0.00000       0.00000    
      9883 MEOH     470      MEOH     HO1      HDP1A    0.360000       1.00800           0   0.00000       0.00000    
      9884 MEOH     470      MEOH     HO2      DUMH      0.00000       1.00800           0   0.00000       0.00000    
      9885 MEOH     470      MEOH     H1A      HDA3B    0.800000E-01   1.00800           0   0.00000       0.00000    
      9886 MEOH     470      MEOH     H1B      HDA3B    0.800000E-01   1.00800           0   0.00000       0.00000    
      9887 MEOH     470      MEOH     H1C      HDA3B    0.800000E-01   1.00800           0   0.00000       0.00000    
      9888 MEOH     470      MEOH     LP1A     LPD     -0.230000       0.00000          -1   0.00000       0.00000    
      9889 MEOH     470      MEOH     LP1B     LPD     -0.230000       0.00000          -1   0.00000       0.00000    
      9890 MEOH     471      MEOH     C1       CD33B     2.31410       11.6110           0  -1.00000       1.30000    
      9891 MEOH     471      MEOH     DC1      DRUD     -2.45410      0.400000           0   0.00000       0.00000    
      9892 MEOH     471      MEOH     O1       OD31H     2.48830       15.5990           0  -1.02800       1.30000    
      9893 MEOH     471      MEOH     DO1      DRUD     -2.48830      0.400000           0   0.00000       0.00000    
      9894 MEOH     471      MEOH     HO1      HDP1A    0.360000       1.00800           0   0.00000       0.00000    
      9895 MEOH     471      MEOH     HO2      DUMH      0.00000       1.00800           0   0.00000       0.00000    
      9896 MEOH     471      MEOH     H1A      HDA3B    0.800000E-01   1.00800           0   0.00000       0.00000    
      9897 MEOH     471      MEOH     H1B      HDA3B    0.800000E-01   1.00800           0   0.00000       0.00000    
      9898 MEOH     471      MEOH     H1C      HDA3B    0.800000E-01   1.00800           0   0.00000       0.00000    
      9899 MEOH     471      MEOH     LP1A     LPD     -0.230000       0.00000          -1   0.00000       0.00000    
      9900 MEOH     471      MEOH     LP1B     LPD     -0.230000       0.00000          -1   0.00000       0.00000    
      9901 MEOH     472      MEOH     C1       CD33B     2.31410       11.6110           0  -1.00000       1.30000    
      9902 MEOH     472      MEOH     DC1      DRUD     -2.45410      0.400000           0   0.00000       0.00000    
      9903 MEOH     472      MEOH     O1       OD31H     2.48830       15.5990           0  -1.02800       1.30000    
      9904 MEOH     472      MEOH     DO1      DRUD     -2.48830      0.400000           0   0.00000       0.00000    
      9905 MEOH     472      MEOH     HO1      HDP1A    0.360000       1.00800           0   0.00000       0.00000    
      9906 MEOH     472      MEOH     HO2      DUMH      0.00000       1.00800           0   0.00000       0.00000    
      9907 MEOH     472      MEOH     H1A      HDA3B    0.800000E-01   1.00800           0   0.00000       0.00000    
      9908 MEOH     472      MEOH     H1B      HDA3B    0.800000E-01   1.00800           0   0.00000       0.00000    
      9909 MEOH     472      MEOH     H1C      HDA3B    0.800000E-01   1.00800           0   0.00000       0.00000    
      9910 MEOH     472      MEOH     LP1A     LPD     -0.230000       0.00000          -1   0.00000       0.00000    
      9911 MEOH     472      MEOH     LP1B     LPD     -0.230000       0.00000          -1   0.00000       0.00000    
      9912 MEOH     473      MEOH     C1       CD33B     2.31410       11.6110           0  -1.00000       1.30000    
      9913 MEOH     473      MEOH     DC1      DRUD     -2.45410      0.400000           0   0.00000       0.00000    
      9914 MEOH     473      MEOH     O1       OD31H     2.48830       15.5990           0  -1.02800       1.30000    
      9915 MEOH     473      MEOH     DO1      DRUD     -2.48830      0.400000           0   0.00000       0.00000    
      9916 MEOH     473      MEOH     HO1      HDP1A    0.360000       1.00800           0   0.00000       0.00000    
      9917 MEOH     473      MEOH     HO2      DUMH      0.00000       1.00800           0   0.00000       0.00000    
      9918 MEOH     473      MEOH     H1A      HDA3B    0.800000E-01   1.00800           0   0.00000       0.00000    
      9919 MEOH     473      MEOH     H1B      HDA3B    0.800000E-01   1.00800           0   0.00000       0.00000    
      9920 MEOH     473      MEOH     H1C      HDA3B    0.800000E-01   1.00800           0   0.00000       0.00000    
      9921 MEOH     473      MEOH     LP1A     LPD     -0.230000       0.00000          -1   0.00000       0.00000    
      9922 MEOH     473      MEOH     LP1B     LPD     -0.230000       0.00000          -1   0.00000       0.00000    
      9923 MEOH     474      MEOH     C1       CD33B     2.31410       11.6110           0  -1.00000       1.30000    
      9924 MEOH     474      MEOH     DC1      DRUD     -2.45410      0.400000           0   0.00000       0.00000    
      9925 MEOH     474      MEOH     O1       OD31H     2.48830       15.5990           0  -1.02800       1.30000    
      9926 MEOH     474      MEOH     DO1      DRUD     -2.48830      0.400000           0   0.00000       0.00000    
      9927 MEOH     474      MEOH     HO1      HDP1A    0.360000       1.00800           0   0.00000       0.00000    
      9928 MEOH     474      MEOH     HO2      DUMH      0.00000       1.00800           0   0.00000       0.00000    
      9929 MEOH     474      MEOH     H1A      HDA3B    0.800000E-01   1.00800           0   0.00000       0.00000    
      9930 MEOH     474      MEOH     H1B      HDA3B    0.800000E-01   1.00800           0   0.00000       0.00000    
      9931 MEOH     474      MEOH     H1C      HDA3B    0.800000E-01   1.00800           0   0.00000       0.00000    
      9932 MEOH     474      MEOH     LP1A     LPD     -0.230000       0.00000          -1   0.00000       0.00000    
      9933 MEOH     474      MEOH     LP1B     LPD     -0.230000       0.00000          -1   0.00000       0.00000    
      9934 MEOH     475      MEOH     C1       CD33B     2.31410       11.6110           0  -1.00000       1.30000    
      9935 MEOH     475      MEOH     DC1      DRUD     -2.45410      0.400000           0   0.00000       0.00000    
      9936 MEOH     475      MEOH     O1       OD31H     2.48830       15.5990           0  -1.02800       1.30000    
      9937 MEOH     475      MEOH     DO1      DRUD     -2.48830      0.400000           0   0.00000       0.00000    
      9938 MEOH     475      MEOH     HO1      HDP1A    0.360000       1.00800           0   0.00000       0.00000    
      9939 MEOH     475      MEOH     HO2      DUMH      0.00000       1.00800           0   0.00000       0.00000    
      9940 MEOH     475      MEOH     H1A      HDA3B    0.800000E-01   1.00800           0   0.00000       0.00000    
      9941 MEOH     475      MEOH     H1B      HDA3B    0.800000E-01   1.00800           0   0.00000       0.00000    
      9942 MEOH     475      MEOH     H1C      HDA3B    0.800000E-01   1.00800           0   0.00000       0.00000    
      9943 MEOH     475      MEOH     LP1A     LPD     -0.230000       0.00000          -1   0.00000       0.00000    
      9944 MEOH     475      MEOH     LP1B     LPD     -0.230000       0.00000          -1   0.00000       0.00000    
      9945 MEOH     476      MEOH     C1       CD33B     2.31410       11.6110           0  -1.00000       1.30000    
      9946 MEOH     476      MEOH     DC1      DRUD     -2.45410      0.400000           0   0.00000       0.00000    
      9947 MEOH     476      MEOH     O1       OD31H     2.48830       15.5990           0  -1.02800       1.30000    
      9948 MEOH     476      MEOH     DO1      DRUD     -2.48830      0.400000           0   0.00000       0.00000    
      9949 MEOH     476      MEOH     HO1      HDP1A    0.360000       1.00800           0   0.00000       0.00000    
      9950 MEOH     476      MEOH     HO2      DUMH      0.00000       1.00800           0   0.00000       0.00000    
      9951 MEOH     476      MEOH     H1A      HDA3B    0.800000E-01   1.00800           0   0.00000       0.00000    
      9952 MEOH     476      MEOH     H1B      HDA3B    0.800000E-01   1.00800           0   0.00000       0.00000    
      9953 MEOH     476      MEOH     H1C      HDA3B    0.800000E-01   1.00800           0   0.00000       0.00000    
      9954 MEOH     476      MEOH     LP1A     LPD     -0.230000       0.00000          -1   0.00000       0.00000    
      9955 MEOH     476      MEOH     LP1B     LPD     -0.230000       0.00000          -1   0.00000       0.00000    
      9956 MEOH     477      MEOH     C1       CD33B     2.31410       11.6110           0  -1.00000       1.30000    
      9957 MEOH     477      MEOH     DC1      DRUD     -2.45410      0.400000           0   0.00000       0.00000    
      9958 MEOH     477      MEOH     O1       OD31H     2.48830       15.5990           0  -1.02800       1.30000    
      9959 MEOH     477      MEOH     DO1      DRUD     -2.48830      0.400000           0   0.00000       0.00000    
      9960 MEOH     477      MEOH     HO1      HDP1A    0.360000       1.00800           0   0.00000       0.00000    
      9961 MEOH     477      MEOH     HO2      DUMH      0.00000       1.00800           0   0.00000       0.00000    
      9962 MEOH     477      MEOH     H1A      HDA3B    0.800000E-01   1.00800           0   0.00000       0.00000    
      9963 MEOH     477      MEOH     H1B      HDA3B    0.800000E-01   1.00800           0   0.00000       0.00000    
      9964 MEOH     477      MEOH     H1C      HDA3B    0.800000E-01   1.00800           0   0.00000       0.00000    
      9965 MEOH     477      MEOH     LP1A     LPD     -0.230000       0.00000          -1   0.00000       0.00000    
      9966 MEOH     477      MEOH     LP1B     LPD     -0.230000       0.00000          -1   0.00000       0.00000    
      9967 MEOH     478      MEOH     C1       CD33B     2.31410       11.6110           0  -1.00000       1.30000    
      9968 MEOH     478      MEOH     DC1      DRUD     -2.45410      0.400000           0   0.00000       0.00000    
      9969 MEOH     478      MEOH     O1       OD31H     2.48830       15.5990           0  -1.02800       1.30000    
      9970 MEOH     478      MEOH     DO1      DRUD     -2.48830      0.400000           0   0.00000       0.00000    
      9971 MEOH     478      MEOH     HO1      HDP1A    0.360000       1.00800           0   0.00000       0.00000    
      9972 MEOH     478      MEOH     HO2      DUMH      0.00000       1.00800           0   0.00000       0.00000    
      9973 MEOH     478      MEOH     H1A      HDA3B    0.800000E-01   1.00800           0   0.00000       0.00000    
      9974 MEOH     478      MEOH     H1B      HDA3B    0.800000E-01   1.00800           0   0.00000       0.00000    
      9975 MEOH     478      MEOH     H1C      HDA3B    0.800000E-01   1.00800           0   0.00000       0.00000    
      9976 MEOH     478      MEOH     LP1A     LPD     -0.230000       0.00000          -1   0.00000       0.00000    
      9977 MEOH     478      MEOH     LP1B     LPD     -0.230000       0.00000          -1   0.00000       0.00000    
      9978 MEOH     479      MEOH     C1       CD33B     2.31410       11.6110           0  -1.00000       1.30000    
      9979 MEOH     479      MEOH     DC1      DRUD     -2.45410      0.400000           0   0.00000       0.00000    
      9980 MEOH     479      MEOH     O1       OD31H     2.48830       15.5990           0  -1.02800       1.30000    
      9981 MEOH     479      MEOH     DO1      DRUD     -2.48830      0.400000           0   0.00000       0.00000    
      9982 MEOH     479      MEOH     HO1      HDP1A    0.360000       1.00800           0   0.00000       0.00000    
      9983 MEOH     479      MEOH     HO2      DUMH      0.00000       1.00800           0   0.00000       0.00000    
      9984 MEOH     479      MEOH     H1A      HDA3B    0.800000E-01   1.00800           0   0.00000       0.00000    
      9985 MEOH     479      MEOH     H1B      HDA3B    0.800000E-01   1.00800           0   0.00000       0.00000    
      9986 MEOH     479      MEOH     H1C      HDA3B    0.800000E-01   1.00800           0   0.00000       0.00000    
      9987 MEOH     479      MEOH     LP1A     LPD     -0.230000       0.00000          -1   0.00000       0.00000    
      9988 MEOH     479      MEOH     LP1B     LPD     -0.230000       0.00000          -1   0.00000       0.00000    
      9989 MEOH     480      MEOH     C1       CD33B     2.31410       11.6110           0  -1.00000       1.30000    
      9990 MEOH     480      MEOH     DC1      DRUD     -2.45410      0.400000           0   0.00000       0.00000    
      9991 MEOH     480      MEOH     O1       OD31H     2.48830       15.5990           0  -1.02800       1.30000    
      9992 MEOH     480      MEOH     DO1      DRUD     -2.48830      0.400000           0   0.00000       0.00000    
      9993 MEOH     480      MEOH     HO1      HDP1A    0.360000       1.00800           0   0.00000       0.00000    
      9994 MEOH     480      MEOH     HO2      DUMH      0.00000       1.00800           0   0.00000       0.00000    
      9995 MEOH     480      MEOH     H1A      HDA3B    0.800000E-01   1.00800           0   0.00000       0.00000    
      9996 MEOH     480      MEOH     H1B      HDA3B    0.800000E-01   1.00800           0   0.00000       0.00000    
      9997 MEOH     480      MEOH     H1C      HDA3B    0.800000E-01   1.00800           0   0.00000       0.00000    
      9998 MEOH     480      MEOH     LP1A     LPD     -0.230000       0.00000          -1   0.00000       0.00000    
      9999 MEOH     480      MEOH     LP1B     LPD     -0.230000       0.00000          -1   0.00000       0.00000    
     10000 MEOH     481      MEOH     C1       CD33B     2.31410       11.6110           0  -1.00000       1.30000    
     10001 MEOH     481      MEOH     DC1      DRUD     -2.45410      0.400000           0   0.00000       0.00000    
     10002 MEOH     481      MEOH     O1       OD31H     2.48830       15.5990           0  -1.02800       1.30000    
     10003 MEOH     481      MEOH     DO1      DRUD     -2.48830      0.400000           0   0.00000       0.00000    
     10004 MEOH     481      MEOH     HO1      HDP1A    0.360000       1.00800           0   0.00000       0.00000    
     10005 MEOH     481      MEOH     HO2      DUMH      0.00000       1.00800           0   0.00000       0.00000    
     10006 MEOH     481      MEOH     H1A      HDA3B    0.800000E-01   1.00800           0   0.00000       0.00000    
     10007 MEOH     481      MEOH     H1B      HDA3B    0.800000E-01   1.00800           0   0.00000       0.00000    
     10008 MEOH     481      MEOH     H1C      HDA3B    0.800000E-01   1.00800           0   0.00000       0.00000    
     10009 MEOH     481      MEOH     LP1A     LPD     -0.230000       0.00000          -1   0.00000       0.00000    
     10010 MEOH     481      MEOH     LP1B     LPD     -0.230000       0.00000          -1   0.00000       0.00000    
     10011 MEOH     482      MEOH     C1       CD33B     2.31410       11.6110           0  -1.00000       1.30000    
     10012 MEOH     482      MEOH     DC1      DRUD     -2.45410      0.400000           0   0.00000       0.00000    
     10013 MEOH     482      MEOH     O1       OD31H     2.48830       15.5990           0  -1.02800       1.30000    
     10014 MEOH     482      MEOH     DO1      DRUD     -2.48830      0.400000           0   0.00000       0.00000    
     10015 MEOH     482      MEOH     HO1      HDP1A    0.360000       1.00800           0   0.00000       0.00000    
     10016 MEOH     482      MEOH     HO2      DUMH      0.00000       1.00800           0   0.00000       0.00000    
     10017 MEOH     482      MEOH     H1A      HDA3B    0.800000E-01   1.00800           0   0.00000       0.00000    
     10018 MEOH     482      MEOH     H1B      HDA3B    0.800000E-01   1.00800           0   0.00000       0.00000    
     10019 MEOH     482      MEOH     H1C      HDA3B    0.800000E-01   1.00800           0   0.00000       0.00000    
     10020 MEOH     482      MEOH     LP1A     LPD     -0.230000       0.00000          -1   0.00000       0.00000    
     10021 MEOH     482      MEOH     LP1B     LPD     -0.230000       0.00000          -1   0.00000       0.00000    
     10022 MEOH     483      MEOH     C1       CD33B     2.31410       11.6110           0  -1.00000       1.30000    
     10023 MEOH     483      MEOH     DC1      DRUD     -2.45410      0.400000           0   0.00000       0.00000    
     10024 MEOH     483      MEOH     O1       OD31H     2.48830       15.5990           0  -1.02800       1.30000    
     10025 MEOH     483      MEOH     DO1      DRUD     -2.48830      0.400000           0   0.00000       0.00000    
     10026 MEOH     483      MEOH     HO1      HDP1A    0.360000       1.00800           0   0.00000       0.00000    
     10027 MEOH     483      MEOH     HO2      DUMH      0.00000       1.00800           0   0.00000       0.00000    
     10028 MEOH     483      MEOH     H1A      HDA3B    0.800000E-01   1.00800           0   0.00000       0.00000    
     10029 MEOH     483      MEOH     H1B      HDA3B    0.800000E-01   1.00800           0   0.00000       0.00000    
     10030 MEOH     483      MEOH     H1C      HDA3B    0.800000E-01   1.00800           0   0.00000       0.00000    
     10031 MEOH     483      MEOH     LP1A     LPD     -0.230000       0.00000          -1   0.00000       0.00000    
     10032 MEOH     483      MEOH     LP1B     LPD     -0.230000       0.00000          -1   0.00000       0.00000    
     10033 MEOH     484      MEOH     C1       CD33B     2.31410       11.6110           0  -1.00000       1.30000    
     10034 MEOH     484      MEOH     DC1      DRUD     -2.45410      0.400000           0   0.00000       0.00000    
     10035 MEOH     484      MEOH     O1       OD31H     2.48830       15.5990           0  -1.02800       1.30000    
     10036 MEOH     484      MEOH     DO1      DRUD     -2.48830      0.400000           0   0.00000       0.00000    
     10037 MEOH     484      MEOH     HO1      HDP1A    0.360000       1.00800           0   0.00000       0.00000    
     10038 MEOH     484      MEOH     HO2      DUMH      0.00000       1.00800           0   0.00000       0.00000    
     10039 MEOH     484      MEOH     H1A      HDA3B    0.800000E-01   1.00800           0   0.00000       0.00000    
     10040 MEOH     484      MEOH     H1B      HDA3B    0.800000E-01   1.00800           0   0.00000       0.00000    
     10041 MEOH     484      MEOH     H1C      HDA3B    0.800000E-01   1.00800           0   0.00000       0.00000    
     10042 MEOH     484      MEOH     LP1A     LPD     -0.230000       0.00000          -1   0.00000       0.00000    
     10043 MEOH     484      MEOH     LP1B     LPD     -0.230000       0.00000          -1   0.00000       0.00000    
     10044 MEOH     485      MEOH     C1       CD33B     2.31410       11.6110           0  -1.00000       1.30000    
     10045 MEOH     485      MEOH     DC1      DRUD     -2.45410      0.400000           0   0.00000       0.00000    
     10046 MEOH     485      MEOH     O1       OD31H     2.48830       15.5990           0  -1.02800       1.30000    
     10047 MEOH     485      MEOH     DO1      DRUD     -2.48830      0.400000           0   0.00000       0.00000    
     10048 MEOH     485      MEOH     HO1      HDP1A    0.360000       1.00800           0   0.00000       0.00000    
     10049 MEOH     485      MEOH     HO2      DUMH      0.00000       1.00800           0   0.00000       0.00000    
     10050 MEOH     485      MEOH     H1A      HDA3B    0.800000E-01   1.00800           0   0.00000       0.00000    
     10051 MEOH     485      MEOH     H1B      HDA3B    0.800000E-01   1.00800           0   0.00000       0.00000    
     10052 MEOH     485      MEOH     H1C      HDA3B    0.800000E-01   1.00800           0   0.00000       0.00000    
     10053 MEOH     485      MEOH     LP1A     LPD     -0.230000       0.00000          -1   0.00000       0.00000    
     10054 MEOH     485      MEOH     LP1B     LPD     -0.230000       0.00000          -1   0.00000       0.00000    
     10055 MEOH     486      MEOH     C1       CD33B     2.31410       11.6110           0  -1.00000       1.30000    
     10056 MEOH     486      MEOH     DC1      DRUD     -2.45410      0.400000           0   0.00000       0.00000    
     10057 MEOH     486      MEOH     O1       OD31H     2.48830       15.5990           0  -1.02800       1.30000    
     10058 MEOH     486      MEOH     DO1      DRUD     -2.48830      0.400000           0   0.00000       0.00000    
     10059 MEOH     486      MEOH     HO1      HDP1A    0.360000       1.00800           0   0.00000       0.00000    
     10060 MEOH     486      MEOH     HO2      DUMH      0.00000       1.00800           0   0.00000       0.00000    
     10061 MEOH     486      MEOH     H1A      HDA3B    0.800000E-01   1.00800           0   0.00000       0.00000    
     10062 MEOH     486      MEOH     H1B      HDA3B    0.800000E-01   1.00800           0   0.00000       0.00000    
     10063 MEOH     486      MEOH     H1C      HDA3B    0.800000E-01   1.00800           0   0.00000       0.00000    
     10064 MEOH     486      MEOH     LP1A     LPD     -0.230000       0.00000          -1   0.00000       0.00000    
     10065 MEOH     486      MEOH     LP1B     LPD     -0.230000       0.00000          -1   0.00000       0.00000    
     10066 MEOH     487      MEOH     C1       CD33B     2.31410       11.6110           0  -1.00000       1.30000    
     10067 MEOH     487      MEOH     DC1      DRUD     -2.45410      0.400000           0   0.00000       0.00000    
     10068 MEOH     487      MEOH     O1       OD31H     2.48830       15.5990           0  -1.02800       1.30000    
     10069 MEOH     487      MEOH     DO1      DRUD     -2.48830      0.400000           0   0.00000       0.00000    
     10070 MEOH     487      MEOH     HO1      HDP1A    0.360000       1.00800           0   0.00000       0.00000    
     10071 MEOH     487      MEOH     HO2      DUMH      0.00000       1.00800           0   0.00000       0.00000    
     10072 MEOH     487      MEOH     H1A      HDA3B    0.800000E-01   1.00800           0   0.00000       0.00000    
     10073 MEOH     487      MEOH     H1B      HDA3B    0.800000E-01   1.00800           0   0.00000       0.00000    
     10074 MEOH     487      MEOH     H1C      HDA3B    0.800000E-01   1.00800           0   0.00000       0.00000    
     10075 MEOH     487      MEOH     LP1A     LPD     -0.230000       0.00000          -1   0.00000       0.00000    
     10076 MEOH     487      MEOH     LP1B     LPD     -0.230000       0.00000          -1   0.00000       0.00000    
     10077 MEOH     488      MEOH     C1       CD33B     2.31410       11.6110           0  -1.00000       1.30000    
     10078 MEOH     488      MEOH     DC1      DRUD     -2.45410      0.400000           0   0.00000       0.00000    
     10079 MEOH     488      MEOH     O1       OD31H     2.48830       15.5990           0  -1.02800       1.30000    
     10080 MEOH     488      MEOH     DO1      DRUD     -2.48830      0.400000           0   0.00000       0.00000    
     10081 MEOH     488      MEOH     HO1      HDP1A    0.360000       1.00800           0   0.00000       0.00000    
     10082 MEOH     488      MEOH     HO2      DUMH      0.00000       1.00800           0   0.00000       0.00000    
     10083 MEOH     488      MEOH     H1A      HDA3B    0.800000E-01   1.00800           0   0.00000       0.00000    
     10084 MEOH     488      MEOH     H1B      HDA3B    0.800000E-01   1.00800           0   0.00000       0.00000    
     10085 MEOH     488      MEOH     H1C      HDA3B    0.800000E-01   1.00800           0   0.00000       0.00000    
     10086 MEOH     488      MEOH     LP1A     LPD     -0.230000       0.00000          -1   0.00000       0.00000    
     10087 MEOH     488      MEOH     LP1B     LPD     -0.230000       0.00000          -1   0.00000       0.00000    
     10088 MEOH     489      MEOH     C1       CD33B     2.31410       11.6110           0  -1.00000       1.30000    
     10089 MEOH     489      MEOH     DC1      DRUD     -2.45410      0.400000           0   0.00000       0.00000    
     10090 MEOH     489      MEOH     O1       OD31H     2.48830       15.5990           0  -1.02800       1.30000    
     10091 MEOH     489      MEOH     DO1      DRUD     -2.48830      0.400000           0   0.00000       0.00000    
     10092 MEOH     489      MEOH     HO1      HDP1A    0.360000       1.00800           0   0.00000       0.00000    
     10093 MEOH     489      MEOH     HO2      DUMH      0.00000       1.00800           0   0.00000       0.00000    
     10094 MEOH     489      MEOH     H1A      HDA3B    0.800000E-01   1.00800           0   0.00000       0.00000    
     10095 MEOH     489      MEOH     H1B      HDA3B    0.800000E-01   1.00800           0   0.00000       0.00000    
     10096 MEOH     489      MEOH     H1C      HDA3B    0.800000E-01   1.00800           0   0.00000       0.00000    
     10097 MEOH     489      MEOH     LP1A     LPD     -0.230000       0.00000          -1   0.00000       0.00000    
     10098 MEOH     489      MEOH     LP1B     LPD     -0.230000       0.00000          -1   0.00000       0.00000    
     10099 MEOH     490      MEOH     C1       CD33B     2.31410       11.6110           0  -1.00000       1.30000    
     10100 MEOH     490      MEOH     DC1      DRUD     -2.45410      0.400000           0   0.00000       0.00000    
     10101 MEOH     490      MEOH     O1       OD31H     2.48830       15.5990           0  -1.02800       1.30000    
     10102 MEOH     490      MEOH     DO1      DRUD     -2.48830      0.400000           0   0.00000       0.00000    
     10103 MEOH     490      MEOH     HO1      HDP1A    0.360000       1.00800           0   0.00000       0.00000    
     10104 MEOH     490      MEOH     HO2      DUMH      0.00000       1.00800           0   0.00000       0.00000    
     10105 MEOH     490      MEOH     H1A      HDA3B    0.800000E-01   1.00800           0   0.00000       0.00000    
     10106 MEOH     490      MEOH     H1B      HDA3B    0.800000E-01   1.00800           0   0.00000       0.00000    
     10107 MEOH     490      MEOH     H1C      HDA3B    0.800000E-01   1.00800           0   0.00000       0.00000    
     10108 MEOH     490      MEOH     LP1A     LPD     -0.230000       0.00000          -1   0.00000       0.00000    
     10109 MEOH     490      MEOH     LP1B     LPD     -0.230000       0.00000          -1   0.00000       0.00000    
     10110 MEOH     491      MEOH     C1       CD33B     2.31410       11.6110           0  -1.00000       1.30000    
     10111 MEOH     491      MEOH     DC1      DRUD     -2.45410      0.400000           0   0.00000       0.00000    
     10112 MEOH     491      MEOH     O1       OD31H     2.48830       15.5990           0  -1.02800       1.30000    
     10113 MEOH     491      MEOH     DO1      DRUD     -2.48830      0.400000           0   0.00000       0.00000    
     10114 MEOH     491      MEOH     HO1      HDP1A    0.360000       1.00800           0   0.00000       0.00000    
     10115 MEOH     491      MEOH     HO2      DUMH      0.00000       1.00800           0   0.00000       0.00000    
     10116 MEOH     491      MEOH     H1A      HDA3B    0.800000E-01   1.00800           0   0.00000       0.00000    
     10117 MEOH     491      MEOH     H1B      HDA3B    0.800000E-01   1.00800           0   0.00000       0.00000    
     10118 MEOH     491      MEOH     H1C      HDA3B    0.800000E-01   1.00800           0   0.00000       0.00000    
     10119 MEOH     491      MEOH     LP1A     LPD     -0.230000       0.00000          -1   0.00000       0.00000    
     10120 MEOH     491      MEOH     LP1B     LPD     -0.230000       0.00000          -1   0.00000       0.00000    
     10121 MEOH     492      MEOH     C1       CD33B     2.31410       11.6110           0  -1.00000       1.30000    
     10122 MEOH     492      MEOH     DC1      DRUD     -2.45410      0.400000           0   0.00000       0.00000    
     10123 MEOH     492      MEOH     O1       OD31H     2.48830       15.5990           0  -1.02800       1.30000    
     10124 MEOH     492      MEOH     DO1      DRUD     -2.48830      0.400000           0   0.00000       0.00000    
     10125 MEOH     492      MEOH     HO1      HDP1A    0.360000       1.00800           0   0.00000       0.00000    
     10126 MEOH     492      MEOH     HO2      DUMH      0.00000       1.00800           0   0.00000       0.00000    
     10127 MEOH     492      MEOH     H1A      HDA3B    0.800000E-01   1.00800           0   0.00000       0.00000    
     10128 MEOH     492      MEOH     H1B      HDA3B    0.800000E-01   1.00800           0   0.00000       0.00000    
     10129 MEOH     492      MEOH     H1C      HDA3B    0.800000E-01   1.00800           0   0.00000       0.00000    
     10130 MEOH     492      MEOH     LP1A     LPD     -0.230000       0.00000          -1   0.00000       0.00000    
     10131 MEOH     492      MEOH     LP1B     LPD     -0.230000       0.00000          -1   0.00000       0.00000    
     10132 MEOH     493      MEOH     C1       CD33B     2.31410       11.6110           0  -1.00000       1.30000    
     10133 MEOH     493      MEOH     DC1      DRUD     -2.45410      0.400000           0   0.00000       0.00000    
     10134 MEOH     493      MEOH     O1       OD31H     2.48830       15.5990           0  -1.02800       1.30000    
     10135 MEOH     493      MEOH     DO1      DRUD     -2.48830      0.400000           0   0.00000       0.00000    
     10136 MEOH     493      MEOH     HO1      HDP1A    0.360000       1.00800           0   0.00000       0.00000    
     10137 MEOH     493      MEOH     HO2      DUMH      0.00000       1.00800           0   0.00000       0.00000    
     10138 MEOH     493      MEOH     H1A      HDA3B    0.800000E-01   1.00800           0   0.00000       0.00000    
     10139 MEOH     493      MEOH     H1B      HDA3B    0.800000E-01   1.00800           0   0.00000       0.00000    
     10140 MEOH     493      MEOH     H1C      HDA3B    0.800000E-01   1.00800           0   0.00000       0.00000    
     10141 MEOH     493      MEOH     LP1A     LPD     -0.230000       0.00000          -1   0.00000       0.00000    
     10142 MEOH     493      MEOH     LP1B     LPD     -0.230000       0.00000          -1   0.00000       0.00000    
     10143 MEOH     494      MEOH     C1       CD33B     2.31410       11.6110           0  -1.00000       1.30000    
     10144 MEOH     494      MEOH     DC1      DRUD     -2.45410      0.400000           0   0.00000       0.00000    
     10145 MEOH     494      MEOH     O1       OD31H     2.48830       15.5990           0  -1.02800       1.30000    
     10146 MEOH     494      MEOH     DO1      DRUD     -2.48830      0.400000           0   0.00000       0.00000    
     10147 MEOH     494      MEOH     HO1      HDP1A    0.360000       1.00800           0   0.00000       0.00000    
     10148 MEOH     494      MEOH     HO2      DUMH      0.00000       1.00800           0   0.00000       0.00000    
     10149 MEOH     494      MEOH     H1A      HDA3B    0.800000E-01   1.00800           0   0.00000       0.00000    
     10150 MEOH     494      MEOH     H1B      HDA3B    0.800000E-01   1.00800           0   0.00000       0.00000    
     10151 MEOH     494      MEOH     H1C      HDA3B    0.800000E-01   1.00800           0   0.00000       0.00000    
     10152 MEOH     494      MEOH     LP1A     LPD     -0.230000       0.00000          -1   0.00000       0.00000    
     10153 MEOH     494      MEOH     LP1B     LPD     -0.230000       0.00000          -1   0.00000       0.00000    
     10154 MEOH     495      MEOH     C1       CD33B     2.31410       11.6110           0  -1.00000       1.30000    
     10155 MEOH     495      MEOH     DC1      DRUD     -2.45410      0.400000           0   0.00000       0.00000    
     10156 MEOH     495      MEOH     O1       OD31H     2.48830       15.5990           0  -1.02800       1.30000    
     10157 MEOH     495      MEOH     DO1      DRUD     -2.48830      0.400000           0   0.00000       0.00000    
     10158 MEOH     495      MEOH     HO1      HDP1A    0.360000       1.00800           0   0.00000       0.00000    
     10159 MEOH     495      MEOH     HO2      DUMH      0.00000       1.00800           0   0.00000       0.00000    
     10160 MEOH     495      MEOH     H1A      HDA3B    0.800000E-01   1.00800           0   0.00000       0.00000    
     10161 MEOH     495      MEOH     H1B      HDA3B    0.800000E-01   1.00800           0   0.00000       0.00000    
     10162 MEOH     495      MEOH     H1C      HDA3B    0.800000E-01   1.00800           0   0.00000       0.00000    
     10163 MEOH     495      MEOH     LP1A     LPD     -0.230000       0.00000          -1   0.00000       0.00000    
     10164 MEOH     495      MEOH     LP1B     LPD     -0.230000       0.00000          -1   0.00000       0.00000    
     10165 MEOH     496      MEOH     C1       CD33B     2.31410       11.6110           0  -1.00000       1.30000    
     10166 MEOH     496      MEOH     DC1      DRUD     -2.45410      0.400000           0   0.00000       0.00000    
     10167 MEOH     496      MEOH     O1       OD31H     2.48830       15.5990           0  -1.02800       1.30000    
     10168 MEOH     496      MEOH     DO1      DRUD     -2.48830      0.400000           0   0.00000       0.00000    
     10169 MEOH     496      MEOH     HO1      HDP1A    0.360000       1.00800           0   0.00000       0.00000    
     10170 MEOH     496      MEOH     HO2      DUMH      0.00000       1.00800           0   0.00000       0.00000    
     10171 MEOH     496      MEOH     H1A      HDA3B    0.800000E-01   1.00800           0   0.00000       0.00000    
     10172 MEOH     496      MEOH     H1B      HDA3B    0.800000E-01   1.00800           0   0.00000       0.00000    
     10173 MEOH     496      MEOH     H1C      HDA3B    0.800000E-01   1.00800           0   0.00000       0.00000    
     10174 MEOH     496      MEOH     LP1A     LPD     -0.230000       0.00000          -1   0.00000       0.00000    
     10175 MEOH     496      MEOH     LP1B     LPD     -0.230000       0.00000          -1   0.00000       0.00000    
     10176 MEOH     497      MEOH     C1       CD33B     2.31410       11.6110           0  -1.00000       1.30000    
     10177 MEOH     497      MEOH     DC1      DRUD     -2.45410      0.400000           0   0.00000       0.00000    
     10178 MEOH     497      MEOH     O1       OD31H     2.48830       15.5990           0  -1.02800       1.30000    
     10179 MEOH     497      MEOH     DO1      DRUD     -2.48830      0.400000           0   0.00000       0.00000    
     10180 MEOH     497      MEOH     HO1      HDP1A    0.360000       1.00800           0   0.00000       0.00000    
     10181 MEOH     497      MEOH     HO2      DUMH      0.00000       1.00800           0   0.00000       0.00000    
     10182 MEOH     497      MEOH     H1A      HDA3B    0.800000E-01   1.00800           0   0.00000       0.00000    
     10183 MEOH     497      MEOH     H1B      HDA3B    0.800000E-01   1.00800           0   0.00000       0.00000    
     10184 MEOH     497      MEOH     H1C      HDA3B    0.800000E-01   1.00800           0   0.00000       0.00000    
     10185 MEOH     497      MEOH     LP1A     LPD     -0.230000       0.00000          -1   0.00000       0.00000    
     10186 MEOH     497      MEOH     LP1B     LPD     -0.230000       0.00000          -1   0.00000       0.00000    
     10187 MEOH     498      MEOH     C1       CD33B     2.31410       11.6110           0  -1.00000       1.30000    
     10188 MEOH     498      MEOH     DC1      DRUD     -2.45410      0.400000           0   0.00000       0.00000    
     10189 MEOH     498      MEOH     O1       OD31H     2.48830       15.5990           0  -1.02800       1.30000    
     10190 MEOH     498      MEOH     DO1      DRUD     -2.48830      0.400000           0   0.00000       0.00000    
     10191 MEOH     498      MEOH     HO1      HDP1A    0.360000       1.00800           0   0.00000       0.00000    
     10192 MEOH     498      MEOH     HO2      DUMH      0.00000       1.00800           0   0.00000       0.00000    
     10193 MEOH     498      MEOH     H1A      HDA3B    0.800000E-01   1.00800           0   0.00000       0.00000    
     10194 MEOH     498      MEOH     H1B      HDA3B    0.800000E-01   1.00800           0   0.00000       0.00000    
     10195 MEOH     498      MEOH     H1C      HDA3B    0.800000E-01   1.00800           0   0.00000       0.00000    
     10196 MEOH     498      MEOH     LP1A     LPD     -0.230000       0.00000          -1   0.00000       0.00000    
     10197 MEOH     498      MEOH     LP1B     LPD     -0.230000       0.00000          -1   0.00000       0.00000    
     10198 MEOH     499      MEOH     C1       CD33B     2.31410       11.6110           0  -1.00000       1.30000    
     10199 MEOH     499      MEOH     DC1      DRUD     -2.45410      0.400000           0   0.00000       0.00000    
     10200 MEOH     499      MEOH     O1       OD31H     2.48830       15.5990           0  -1.02800       1.30000    
     10201 MEOH     499      MEOH     DO1      DRUD     -2.48830      0.400000           0   0.00000       0.00000    
     10202 MEOH     499      MEOH     HO1      HDP1A    0.360000       1.00800           0   0.00000       0.00000    
     10203 MEOH     499      MEOH     HO2      DUMH      0.00000       1.00800           0   0.00000       0.00000    
     10204 MEOH     499      MEOH     H1A      HDA3B    0.800000E-01   1.00800           0   0.00000       0.00000    
     10205 MEOH     499      MEOH     H1B      HDA3B    0.800000E-01   1.00800           0   0.00000       0.00000    
     10206 MEOH     499      MEOH     H1C      HDA3B    0.800000E-01   1.00800           0   0.00000       0.00000    
     10207 MEOH     499      MEOH     LP1A     LPD     -0.230000       0.00000          -1   0.00000       0.00000    
     10208 MEOH     499      MEOH     LP1B     LPD     -0.230000       0.00000          -1   0.00000       0.00000    
     10209 MEOH     500      MEOH     C1       CD33B     2.31410       11.6110           0  -1.00000       1.30000    
     10210 MEOH     500      MEOH     DC1      DRUD     -2.45410      0.400000           0   0.00000       0.00000    
     10211 MEOH     500      MEOH     O1       OD31H     2.48830       15.5990           0  -1.02800       1.30000    
     10212 MEOH     500      MEOH     DO1      DRUD     -2.48830      0.400000           0   0.00000       0.00000    
     10213 MEOH     500      MEOH     HO1      HDP1A    0.360000       1.00800           0   0.00000       0.00000    
     10214 MEOH     500      MEOH     HO2      DUMH      0.00000       1.00800           0   0.00000       0.00000    
     10215 MEOH     500      MEOH     H1A      HDA3B    0.800000E-01   1.00800           0   0.00000       0.00000    
     10216 MEOH     500      MEOH     H1B      HDA3B    0.800000E-01   1.00800           0   0.00000       0.00000    
     10217 MEOH     500      MEOH     H1C      HDA3B    0.800000E-01   1.00800           0   0.00000       0.00000    
     10218 MEOH     500      MEOH     LP1A     LPD     -0.230000       0.00000          -1   0.00000       0.00000    
     10219 MEOH     500      MEOH     LP1B     LPD     -0.230000       0.00000          -1   0.00000       0.00000    
     10220 MEOH     501      MEOH     C1       CD33B     2.31410       11.6110           0  -1.00000       1.30000    
     10221 MEOH     501      MEOH     DC1      DRUD     -2.45410      0.400000           0   0.00000       0.00000    
     10222 MEOH     501      MEOH     O1       OD31H     2.48830       15.5990           0  -1.02800       1.30000    
     10223 MEOH     501      MEOH     DO1      DRUD     -2.48830      0.400000           0   0.00000       0.00000    
     10224 MEOH     501      MEOH     HO1      HDP1A    0.360000       1.00800           0   0.00000       0.00000    
     10225 MEOH     501      MEOH     HO2      DUMH      0.00000       1.00800           0   0.00000       0.00000    
     10226 MEOH     501      MEOH     H1A      HDA3B    0.800000E-01   1.00800           0   0.00000       0.00000    
     10227 MEOH     501      MEOH     H1B      HDA3B    0.800000E-01   1.00800           0   0.00000       0.00000    
     10228 MEOH     501      MEOH     H1C      HDA3B    0.800000E-01   1.00800           0   0.00000       0.00000    
     10229 MEOH     501      MEOH     LP1A     LPD     -0.230000       0.00000          -1   0.00000       0.00000    
     10230 MEOH     501      MEOH     LP1B     LPD     -0.230000       0.00000          -1   0.00000       0.00000    
     10231 MEOH     502      MEOH     C1       CD33B     2.31410       11.6110           0  -1.00000       1.30000    
     10232 MEOH     502      MEOH     DC1      DRUD     -2.45410      0.400000           0   0.00000       0.00000    
     10233 MEOH     502      MEOH     O1       OD31H     2.48830       15.5990           0  -1.02800       1.30000    
     10234 MEOH     502      MEOH     DO1      DRUD     -2.48830      0.400000           0   0.00000       0.00000    
     10235 MEOH     502      MEOH     HO1      HDP1A    0.360000       1.00800           0   0.00000       0.00000    
     10236 MEOH     502      MEOH     HO2      DUMH      0.00000       1.00800           0   0.00000       0.00000    
     10237 MEOH     502      MEOH     H1A      HDA3B    0.800000E-01   1.00800           0   0.00000       0.00000    
     10238 MEOH     502      MEOH     H1B      HDA3B    0.800000E-01   1.00800           0   0.00000       0.00000    
     10239 MEOH     502      MEOH     H1C      HDA3B    0.800000E-01   1.00800           0   0.00000       0.00000    
     10240 MEOH     502      MEOH     LP1A     LPD     -0.230000       0.00000          -1   0.00000       0.00000    
     10241 MEOH     502      MEOH     LP1B     LPD     -0.230000       0.00000          -1   0.00000       0.00000    
     10242 MEOH     503      MEOH     C1       CD33B     2.31410       11.6110           0  -1.00000       1.30000    
     10243 MEOH     503      MEOH     DC1      DRUD     -2.45410      0.400000           0   0.00000       0.00000    
     10244 MEOH     503      MEOH     O1       OD31H     2.48830       15.5990           0  -1.02800       1.30000    
     10245 MEOH     503      MEOH     DO1      DRUD     -2.48830      0.400000           0   0.00000       0.00000    
     10246 MEOH     503      MEOH     HO1      HDP1A    0.360000       1.00800           0   0.00000       0.00000    
     10247 MEOH     503      MEOH     HO2      DUMH      0.00000       1.00800           0   0.00000       0.00000    
     10248 MEOH     503      MEOH     H1A      HDA3B    0.800000E-01   1.00800           0   0.00000       0.00000    
     10249 MEOH     503      MEOH     H1B      HDA3B    0.800000E-01   1.00800           0   0.00000       0.00000    
     10250 MEOH     503      MEOH     H1C      HDA3B    0.800000E-01   1.00800           0   0.00000       0.00000    
     10251 MEOH     503      MEOH     LP1A     LPD     -0.230000       0.00000          -1   0.00000       0.00000    
     10252 MEOH     503      MEOH     LP1B     LPD     -0.230000       0.00000          -1   0.00000       0.00000    
     10253 MEOH     504      MEOH     C1       CD33B     2.31410       11.6110           0  -1.00000       1.30000    
     10254 MEOH     504      MEOH     DC1      DRUD     -2.45410      0.400000           0   0.00000       0.00000    
     10255 MEOH     504      MEOH     O1       OD31H     2.48830       15.5990           0  -1.02800       1.30000    
     10256 MEOH     504      MEOH     DO1      DRUD     -2.48830      0.400000           0   0.00000       0.00000    
     10257 MEOH     504      MEOH     HO1      HDP1A    0.360000       1.00800           0   0.00000       0.00000    
     10258 MEOH     504      MEOH     HO2      DUMH      0.00000       1.00800           0   0.00000       0.00000    
     10259 MEOH     504      MEOH     H1A      HDA3B    0.800000E-01   1.00800           0   0.00000       0.00000    
     10260 MEOH     504      MEOH     H1B      HDA3B    0.800000E-01   1.00800           0   0.00000       0.00000    
     10261 MEOH     504      MEOH     H1C      HDA3B    0.800000E-01   1.00800           0   0.00000       0.00000    
     10262 MEOH     504      MEOH     LP1A     LPD     -0.230000       0.00000          -1   0.00000       0.00000    
     10263 MEOH     504      MEOH     LP1B     LPD     -0.230000       0.00000          -1   0.00000       0.00000    
     10264 MEOH     505      MEOH     C1       CD33B     2.31410       11.6110           0  -1.00000       1.30000    
     10265 MEOH     505      MEOH     DC1      DRUD     -2.45410      0.400000           0   0.00000       0.00000    
     10266 MEOH     505      MEOH     O1       OD31H     2.48830       15.5990           0  -1.02800       1.30000    
     10267 MEOH     505      MEOH     DO1      DRUD     -2.48830      0.400000           0   0.00000       0.00000    
     10268 MEOH     505      MEOH     HO1      HDP1A    0.360000       1.00800           0   0.00000       0.00000    
     10269 MEOH     505      MEOH     HO2      DUMH      0.00000       1.00800           0   0.00000       0.00000    
     10270 MEOH     505      MEOH     H1A      HDA3B    0.800000E-01   1.00800           0   0.00000       0.00000    
     10271 MEOH     505      MEOH     H1B      HDA3B    0.800000E-01   1.00800           0   0.00000       0.00000    
     10272 MEOH     505      MEOH     H1C      HDA3B    0.800000E-01   1.00800           0   0.00000       0.00000    
     10273 MEOH     505      MEOH     LP1A     LPD     -0.230000       0.00000          -1   0.00000       0.00000    
     10274 MEOH     505      MEOH     LP1B     LPD     -0.230000       0.00000          -1   0.00000       0.00000    
     10275 MEOH     506      MEOH     C1       CD33B     2.31410       11.6110           0  -1.00000       1.30000    
     10276 MEOH     506      MEOH     DC1      DRUD     -2.45410      0.400000           0   0.00000       0.00000    
     10277 MEOH     506      MEOH     O1       OD31H     2.48830       15.5990           0  -1.02800       1.30000    
     10278 MEOH     506      MEOH     DO1      DRUD     -2.48830      0.400000           0   0.00000       0.00000    
     10279 MEOH     506      MEOH     HO1      HDP1A    0.360000       1.00800           0   0.00000       0.00000    
     10280 MEOH     506      MEOH     HO2      DUMH      0.00000       1.00800           0   0.00000       0.00000    
     10281 MEOH     506      MEOH     H1A      HDA3B    0.800000E-01   1.00800           0   0.00000       0.00000    
     10282 MEOH     506      MEOH     H1B      HDA3B    0.800000E-01   1.00800           0   0.00000       0.00000    
     10283 MEOH     506      MEOH     H1C      HDA3B    0.800000E-01   1.00800           0   0.00000       0.00000    
     10284 MEOH     506      MEOH     LP1A     LPD     -0.230000       0.00000          -1   0.00000       0.00000    
     10285 MEOH     506      MEOH     LP1B     LPD     -0.230000       0.00000          -1   0.00000       0.00000    
     10286 MEOH     507      MEOH     C1       CD33B     2.31410       11.6110           0  -1.00000       1.30000    
     10287 MEOH     507      MEOH     DC1      DRUD     -2.45410      0.400000           0   0.00000       0.00000    
     10288 MEOH     507      MEOH     O1       OD31H     2.48830       15.5990           0  -1.02800       1.30000    
     10289 MEOH     507      MEOH     DO1      DRUD     -2.48830      0.400000           0   0.00000       0.00000    
     10290 MEOH     507      MEOH     HO1      HDP1A    0.360000       1.00800           0   0.00000       0.00000    
     10291 MEOH     507      MEOH     HO2      DUMH      0.00000       1.00800           0   0.00000       0.00000    
     10292 MEOH     507      MEOH     H1A      HDA3B    0.800000E-01   1.00800           0   0.00000       0.00000    
     10293 MEOH     507      MEOH     H1B      HDA3B    0.800000E-01   1.00800           0   0.00000       0.00000    
     10294 MEOH     507      MEOH     H1C      HDA3B    0.800000E-01   1.00800           0   0.00000       0.00000    
     10295 MEOH     507      MEOH     LP1A     LPD     -0.230000       0.00000          -1   0.00000       0.00000    
     10296 MEOH     507      MEOH     LP1B     LPD     -0.230000       0.00000          -1   0.00000       0.00000    
     10297 MEOH     508      MEOH     C1       CD33B     2.31410       11.6110           0  -1.00000       1.30000    
     10298 MEOH     508      MEOH     DC1      DRUD     -2.45410      0.400000           0   0.00000       0.00000    
     10299 MEOH     508      MEOH     O1       OD31H     2.48830       15.5990           0  -1.02800       1.30000    
     10300 MEOH     508      MEOH     DO1      DRUD     -2.48830      0.400000           0   0.00000       0.00000    
     10301 MEOH     508      MEOH     HO1      HDP1A    0.360000       1.00800           0   0.00000       0.00000    
     10302 MEOH     508      MEOH     HO2      DUMH      0.00000       1.00800           0   0.00000       0.00000    
     10303 MEOH     508      MEOH     H1A      HDA3B    0.800000E-01   1.00800           0   0.00000       0.00000    
     10304 MEOH     508      MEOH     H1B      HDA3B    0.800000E-01   1.00800           0   0.00000       0.00000    
     10305 MEOH     508      MEOH     H1C      HDA3B    0.800000E-01   1.00800           0   0.00000       0.00000    
     10306 MEOH     508      MEOH     LP1A     LPD     -0.230000       0.00000          -1   0.00000       0.00000    
     10307 MEOH     508      MEOH     LP1B     LPD     -0.230000       0.00000          -1   0.00000       0.00000    
     10308 MEOH     509      MEOH     C1       CD33B     2.31410       11.6110           0  -1.00000       1.30000    
     10309 MEOH     509      MEOH     DC1      DRUD     -2.45410      0.400000           0   0.00000       0.00000    
     10310 MEOH     509      MEOH     O1       OD31H     2.48830       15.5990           0  -1.02800       1.30000    
     10311 MEOH     509      MEOH     DO1      DRUD     -2.48830      0.400000           0   0.00000       0.00000    
     10312 MEOH     509      MEOH     HO1      HDP1A    0.360000       1.00800           0   0.00000       0.00000    
     10313 MEOH     509      MEOH     HO2      DUMH      0.00000       1.00800           0   0.00000       0.00000    
     10314 MEOH     509      MEOH     H1A      HDA3B    0.800000E-01   1.00800           0   0.00000       0.00000    
     10315 MEOH     509      MEOH     H1B      HDA3B    0.800000E-01   1.00800           0   0.00000       0.00000    
     10316 MEOH     509      MEOH     H1C      HDA3B    0.800000E-01   1.00800           0   0.00000       0.00000    
     10317 MEOH     509      MEOH     LP1A     LPD     -0.230000       0.00000          -1   0.00000       0.00000    
     10318 MEOH     509      MEOH     LP1B     LPD     -0.230000       0.00000          -1   0.00000       0.00000    
     10319 MEOH     510      MEOH     C1       CD33B     2.31410       11.6110           0  -1.00000       1.30000    
     10320 MEOH     510      MEOH     DC1      DRUD     -2.45410      0.400000           0   0.00000       0.00000    
     10321 MEOH     510      MEOH     O1       OD31H     2.48830       15.5990           0  -1.02800       1.30000    
     10322 MEOH     510      MEOH     DO1      DRUD     -2.48830      0.400000           0   0.00000       0.00000    
     10323 MEOH     510      MEOH     HO1      HDP1A    0.360000       1.00800           0   0.00000       0.00000    
     10324 MEOH     510      MEOH     HO2      DUMH      0.00000       1.00800           0   0.00000       0.00000    
     10325 MEOH     510      MEOH     H1A      HDA3B    0.800000E-01   1.00800           0   0.00000       0.00000    
     10326 MEOH     510      MEOH     H1B      HDA3B    0.800000E-01   1.00800           0   0.00000       0.00000    
     10327 MEOH     510      MEOH     H1C      HDA3B    0.800000E-01   1.00800           0   0.00000       0.00000    
     10328 MEOH     510      MEOH     LP1A     LPD     -0.230000       0.00000          -1   0.00000       0.00000    
     10329 MEOH     510      MEOH     LP1B     LPD     -0.230000       0.00000          -1   0.00000       0.00000    
     10330 MEOH     511      MEOH     C1       CD33B     2.31410       11.6110           0  -1.00000       1.30000    
     10331 MEOH     511      MEOH     DC1      DRUD     -2.45410      0.400000           0   0.00000       0.00000    
     10332 MEOH     511      MEOH     O1       OD31H     2.48830       15.5990           0  -1.02800       1.30000    
     10333 MEOH     511      MEOH     DO1      DRUD     -2.48830      0.400000           0   0.00000       0.00000    
     10334 MEOH     511      MEOH     HO1      HDP1A    0.360000       1.00800           0   0.00000       0.00000    
     10335 MEOH     511      MEOH     HO2      DUMH      0.00000       1.00800           0   0.00000       0.00000    
     10336 MEOH     511      MEOH     H1A      HDA3B    0.800000E-01   1.00800           0   0.00000       0.00000    
     10337 MEOH     511      MEOH     H1B      HDA3B    0.800000E-01   1.00800           0   0.00000       0.00000    
     10338 MEOH     511      MEOH     H1C      HDA3B    0.800000E-01   1.00800           0   0.00000       0.00000    
     10339 MEOH     511      MEOH     LP1A     LPD     -0.230000       0.00000          -1   0.00000       0.00000    
     10340 MEOH     511      MEOH     LP1B     LPD     -0.230000       0.00000          -1   0.00000       0.00000    
     10341 MEOH     512      MEOH     C1       CD33B     2.31410       11.6110           0  -1.00000       1.30000    
     10342 MEOH     512      MEOH     DC1      DRUD     -2.45410      0.400000           0   0.00000       0.00000    
     10343 MEOH     512      MEOH     O1       OD31H     2.48830       15.5990           0  -1.02800       1.30000    
     10344 MEOH     512      MEOH     DO1      DRUD     -2.48830      0.400000           0   0.00000       0.00000    
     10345 MEOH     512      MEOH     HO1      HDP1A    0.360000       1.00800           0   0.00000       0.00000    
     10346 MEOH     512      MEOH     HO2      DUMH      0.00000       1.00800           0   0.00000       0.00000    
     10347 MEOH     512      MEOH     H1A      HDA3B    0.800000E-01   1.00800           0   0.00000       0.00000    
     10348 MEOH     512      MEOH     H1B      HDA3B    0.800000E-01   1.00800           0   0.00000       0.00000    
     10349 MEOH     512      MEOH     H1C      HDA3B    0.800000E-01   1.00800           0   0.00000       0.00000    
     10350 MEOH     512      MEOH     LP1A     LPD     -0.230000       0.00000          -1   0.00000       0.00000    
     10351 MEOH     512      MEOH     LP1B     LPD     -0.230000       0.00000          -1   0.00000       0.00000    
     10352 MEOH     513      MEOH     C1       CD33B     2.31410       11.6110           0  -1.00000       1.30000    
     10353 MEOH     513      MEOH     DC1      DRUD     -2.45410      0.400000           0   0.00000       0.00000    
     10354 MEOH     513      MEOH     O1       OD31H     2.48830       15.5990           0  -1.02800       1.30000    
     10355 MEOH     513      MEOH     DO1      DRUD     -2.48830      0.400000           0   0.00000       0.00000    
     10356 MEOH     513      MEOH     HO1      HDP1A    0.360000       1.00800           0   0.00000       0.00000    
     10357 MEOH     513      MEOH     HO2      DUMH      0.00000       1.00800           0   0.00000       0.00000    
     10358 MEOH     513      MEOH     H1A      HDA3B    0.800000E-01   1.00800           0   0.00000       0.00000    
     10359 MEOH     513      MEOH     H1B      HDA3B    0.800000E-01   1.00800           0   0.00000       0.00000    
     10360 MEOH     513      MEOH     H1C      HDA3B    0.800000E-01   1.00800           0   0.00000       0.00000    
     10361 MEOH     513      MEOH     LP1A     LPD     -0.230000       0.00000          -1   0.00000       0.00000    
     10362 MEOH     513      MEOH     LP1B     LPD     -0.230000       0.00000          -1   0.00000       0.00000    
     10363 MEOH     514      MEOH     C1       CD33B     2.31410       11.6110           0  -1.00000       1.30000    
     10364 MEOH     514      MEOH     DC1      DRUD     -2.45410      0.400000           0   0.00000       0.00000    
     10365 MEOH     514      MEOH     O1       OD31H     2.48830       15.5990           0  -1.02800       1.30000    
     10366 MEOH     514      MEOH     DO1      DRUD     -2.48830      0.400000           0   0.00000       0.00000    
     10367 MEOH     514      MEOH     HO1      HDP1A    0.360000       1.00800           0   0.00000       0.00000    
     10368 MEOH     514      MEOH     HO2      DUMH      0.00000       1.00800           0   0.00000       0.00000    
     10369 MEOH     514      MEOH     H1A      HDA3B    0.800000E-01   1.00800           0   0.00000       0.00000    
     10370 MEOH     514      MEOH     H1B      HDA3B    0.800000E-01   1.00800           0   0.00000       0.00000    
     10371 MEOH     514      MEOH     H1C      HDA3B    0.800000E-01   1.00800           0   0.00000       0.00000    
     10372 MEOH     514      MEOH     LP1A     LPD     -0.230000       0.00000          -1   0.00000       0.00000    
     10373 MEOH     514      MEOH     LP1B     LPD     -0.230000       0.00000          -1   0.00000       0.00000    
     10374 MEOH     515      MEOH     C1       CD33B     2.31410       11.6110           0  -1.00000       1.30000    
     10375 MEOH     515      MEOH     DC1      DRUD     -2.45410      0.400000           0   0.00000       0.00000    
     10376 MEOH     515      MEOH     O1       OD31H     2.48830       15.5990           0  -1.02800       1.30000    
     10377 MEOH     515      MEOH     DO1      DRUD     -2.48830      0.400000           0   0.00000       0.00000    
     10378 MEOH     515      MEOH     HO1      HDP1A    0.360000       1.00800           0   0.00000       0.00000    
     10379 MEOH     515      MEOH     HO2      DUMH      0.00000       1.00800           0   0.00000       0.00000    
     10380 MEOH     515      MEOH     H1A      HDA3B    0.800000E-01   1.00800           0   0.00000       0.00000    
     10381 MEOH     515      MEOH     H1B      HDA3B    0.800000E-01   1.00800           0   0.00000       0.00000    
     10382 MEOH     515      MEOH     H1C      HDA3B    0.800000E-01   1.00800           0   0.00000       0.00000    
     10383 MEOH     515      MEOH     LP1A     LPD     -0.230000       0.00000          -1   0.00000       0.00000    
     10384 MEOH     515      MEOH     LP1B     LPD     -0.230000       0.00000          -1   0.00000       0.00000    
     10385 MEOH     516      MEOH     C1       CD33B     2.31410       11.6110           0  -1.00000       1.30000    
     10386 MEOH     516      MEOH     DC1      DRUD     -2.45410      0.400000           0   0.00000       0.00000    
     10387 MEOH     516      MEOH     O1       OD31H     2.48830       15.5990           0  -1.02800       1.30000    
     10388 MEOH     516      MEOH     DO1      DRUD     -2.48830      0.400000           0   0.00000       0.00000    
     10389 MEOH     516      MEOH     HO1      HDP1A    0.360000       1.00800           0   0.00000       0.00000    
     10390 MEOH     516      MEOH     HO2      DUMH      0.00000       1.00800           0   0.00000       0.00000    
     10391 MEOH     516      MEOH     H1A      HDA3B    0.800000E-01   1.00800           0   0.00000       0.00000    
     10392 MEOH     516      MEOH     H1B      HDA3B    0.800000E-01   1.00800           0   0.00000       0.00000    
     10393 MEOH     516      MEOH     H1C      HDA3B    0.800000E-01   1.00800           0   0.00000       0.00000    
     10394 MEOH     516      MEOH     LP1A     LPD     -0.230000       0.00000          -1   0.00000       0.00000    
     10395 MEOH     516      MEOH     LP1B     LPD     -0.230000       0.00000          -1   0.00000       0.00000    
     10396 MEOH     517      MEOH     C1       CD33B     2.31410       11.6110           0  -1.00000       1.30000    
     10397 MEOH     517      MEOH     DC1      DRUD     -2.45410      0.400000           0   0.00000       0.00000    
     10398 MEOH     517      MEOH     O1       OD31H     2.48830       15.5990           0  -1.02800       1.30000    
     10399 MEOH     517      MEOH     DO1      DRUD     -2.48830      0.400000           0   0.00000       0.00000    
     10400 MEOH     517      MEOH     HO1      HDP1A    0.360000       1.00800           0   0.00000       0.00000    
     10401 MEOH     517      MEOH     HO2      DUMH      0.00000       1.00800           0   0.00000       0.00000    
     10402 MEOH     517      MEOH     H1A      HDA3B    0.800000E-01   1.00800           0   0.00000       0.00000    
     10403 MEOH     517      MEOH     H1B      HDA3B    0.800000E-01   1.00800           0   0.00000       0.00000    
     10404 MEOH     517      MEOH     H1C      HDA3B    0.800000E-01   1.00800           0   0.00000       0.00000    
     10405 MEOH     517      MEOH     LP1A     LPD     -0.230000       0.00000          -1   0.00000       0.00000    
     10406 MEOH     517      MEOH     LP1B     LPD     -0.230000       0.00000          -1   0.00000       0.00000    
     10407 MEOH     518      MEOH     C1       CD33B     2.31410       11.6110           0  -1.00000       1.30000    
     10408 MEOH     518      MEOH     DC1      DRUD     -2.45410      0.400000           0   0.00000       0.00000    
     10409 MEOH     518      MEOH     O1       OD31H     2.48830       15.5990           0  -1.02800       1.30000    
     10410 MEOH     518      MEOH     DO1      DRUD     -2.48830      0.400000           0   0.00000       0.00000    
     10411 MEOH     518      MEOH     HO1      HDP1A    0.360000       1.00800           0   0.00000       0.00000    
     10412 MEOH     518      MEOH     HO2      DUMH      0.00000       1.00800           0   0.00000       0.00000    
     10413 MEOH     518      MEOH     H1A      HDA3B    0.800000E-01   1.00800           0   0.00000       0.00000    
     10414 MEOH     518      MEOH     H1B      HDA3B    0.800000E-01   1.00800           0   0.00000       0.00000    
     10415 MEOH     518      MEOH     H1C      HDA3B    0.800000E-01   1.00800           0   0.00000       0.00000    
     10416 MEOH     518      MEOH     LP1A     LPD     -0.230000       0.00000          -1   0.00000       0.00000    
     10417 MEOH     518      MEOH     LP1B     LPD     -0.230000       0.00000          -1   0.00000       0.00000    
     10418 MEOH     519      MEOH     C1       CD33B     2.31410       11.6110           0  -1.00000       1.30000    
     10419 MEOH     519      MEOH     DC1      DRUD     -2.45410      0.400000           0   0.00000       0.00000    
     10420 MEOH     519      MEOH     O1       OD31H     2.48830       15.5990           0  -1.02800       1.30000    
     10421 MEOH     519      MEOH     DO1      DRUD     -2.48830      0.400000           0   0.00000       0.00000    
     10422 MEOH     519      MEOH     HO1      HDP1A    0.360000       1.00800           0   0.00000       0.00000    
     10423 MEOH     519      MEOH     HO2      DUMH      0.00000       1.00800           0   0.00000       0.00000    
     10424 MEOH     519      MEOH     H1A      HDA3B    0.800000E-01   1.00800           0   0.00000       0.00000    
     10425 MEOH     519      MEOH     H1B      HDA3B    0.800000E-01   1.00800           0   0.00000       0.00000    
     10426 MEOH     519      MEOH     H1C      HDA3B    0.800000E-01   1.00800           0   0.00000       0.00000    
     10427 MEOH     519      MEOH     LP1A     LPD     -0.230000       0.00000          -1   0.00000       0.00000    
     10428 MEOH     519      MEOH     LP1B     LPD     -0.230000       0.00000          -1   0.00000       0.00000    
     10429 MEOH     520      MEOH     C1       CD33B     2.31410       11.6110           0  -1.00000       1.30000    
     10430 MEOH     520      MEOH     DC1      DRUD     -2.45410      0.400000           0   0.00000       0.00000    
     10431 MEOH     520      MEOH     O1       OD31H     2.48830       15.5990           0  -1.02800       1.30000    
     10432 MEOH     520      MEOH     DO1      DRUD     -2.48830      0.400000           0   0.00000       0.00000    
     10433 MEOH     520      MEOH     HO1      HDP1A    0.360000       1.00800           0   0.00000       0.00000    
     10434 MEOH     520      MEOH     HO2      DUMH      0.00000       1.00800           0   0.00000       0.00000    
     10435 MEOH     520      MEOH     H1A      HDA3B    0.800000E-01   1.00800           0   0.00000       0.00000    
     10436 MEOH     520      MEOH     H1B      HDA3B    0.800000E-01   1.00800           0   0.00000       0.00000    
     10437 MEOH     520      MEOH     H1C      HDA3B    0.800000E-01   1.00800           0   0.00000       0.00000    
     10438 MEOH     520      MEOH     LP1A     LPD     -0.230000       0.00000          -1   0.00000       0.00000    
     10439 MEOH     520      MEOH     LP1B     LPD     -0.230000       0.00000          -1   0.00000       0.00000    
     10440 MEOH     521      MEOH     C1       CD33B     2.31410       11.6110           0  -1.00000       1.30000    
     10441 MEOH     521      MEOH     DC1      DRUD     -2.45410      0.400000           0   0.00000       0.00000    
     10442 MEOH     521      MEOH     O1       OD31H     2.48830       15.5990           0  -1.02800       1.30000    
     10443 MEOH     521      MEOH     DO1      DRUD     -2.48830      0.400000           0   0.00000       0.00000    
     10444 MEOH     521      MEOH     HO1      HDP1A    0.360000       1.00800           0   0.00000       0.00000    
     10445 MEOH     521      MEOH     HO2      DUMH      0.00000       1.00800           0   0.00000       0.00000    
     10446 MEOH     521      MEOH     H1A      HDA3B    0.800000E-01   1.00800           0   0.00000       0.00000    
     10447 MEOH     521      MEOH     H1B      HDA3B    0.800000E-01   1.00800           0   0.00000       0.00000    
     10448 MEOH     521      MEOH     H1C      HDA3B    0.800000E-01   1.00800           0   0.00000       0.00000    
     10449 MEOH     521      MEOH     LP1A     LPD     -0.230000       0.00000          -1   0.00000       0.00000    
     10450 MEOH     521      MEOH     LP1B     LPD     -0.230000       0.00000          -1   0.00000       0.00000    
     10451 MEOH     522      MEOH     C1       CD33B     2.31410       11.6110           0  -1.00000       1.30000    
     10452 MEOH     522      MEOH     DC1      DRUD     -2.45410      0.400000           0   0.00000       0.00000    
     10453 MEOH     522      MEOH     O1       OD31H     2.48830       15.5990           0  -1.02800       1.30000    
     10454 MEOH     522      MEOH     DO1      DRUD     -2.48830      0.400000           0   0.00000       0.00000    
     10455 MEOH     522      MEOH     HO1      HDP1A    0.360000       1.00800           0   0.00000       0.00000    
     10456 MEOH     522      MEOH     HO2      DUMH      0.00000       1.00800           0   0.00000       0.00000    
     10457 MEOH     522      MEOH     H1A      HDA3B    0.800000E-01   1.00800           0   0.00000       0.00000    
     10458 MEOH     522      MEOH     H1B      HDA3B    0.800000E-01   1.00800           0   0.00000       0.00000    
     10459 MEOH     522      MEOH     H1C      HDA3B    0.800000E-01   1.00800           0   0.00000       0.00000    
     10460 MEOH     522      MEOH     LP1A     LPD     -0.230000       0.00000          -1   0.00000       0.00000    
     10461 MEOH     522      MEOH     LP1B     LPD     -0.230000       0.00000          -1   0.00000       0.00000    
     10462 MEOH     523      MEOH     C1       CD33B     2.31410       11.6110           0  -1.00000       1.30000    
     10463 MEOH     523      MEOH     DC1      DRUD     -2.45410      0.400000           0   0.00000       0.00000    
     10464 MEOH     523      MEOH     O1       OD31H     2.48830       15.5990           0  -1.02800       1.30000    
     10465 MEOH     523      MEOH     DO1      DRUD     -2.48830      0.400000           0   0.00000       0.00000    
     10466 MEOH     523      MEOH     HO1      HDP1A    0.360000       1.00800           0   0.00000       0.00000    
     10467 MEOH     523      MEOH     HO2      DUMH      0.00000       1.00800           0   0.00000       0.00000    
     10468 MEOH     523      MEOH     H1A      HDA3B    0.800000E-01   1.00800           0   0.00000       0.00000    
     10469 MEOH     523      MEOH     H1B      HDA3B    0.800000E-01   1.00800           0   0.00000       0.00000    
     10470 MEOH     523      MEOH     H1C      HDA3B    0.800000E-01   1.00800           0   0.00000       0.00000    
     10471 MEOH     523      MEOH     LP1A     LPD     -0.230000       0.00000          -1   0.00000       0.00000    
     10472 MEOH     523      MEOH     LP1B     LPD     -0.230000       0.00000          -1   0.00000       0.00000    
     10473 MEOH     524      MEOH     C1       CD33B     2.31410       11.6110           0  -1.00000       1.30000    
     10474 MEOH     524      MEOH     DC1      DRUD     -2.45410      0.400000           0   0.00000       0.00000    
     10475 MEOH     524      MEOH     O1       OD31H     2.48830       15.5990           0  -1.02800       1.30000    
     10476 MEOH     524      MEOH     DO1      DRUD     -2.48830      0.400000           0   0.00000       0.00000    
     10477 MEOH     524      MEOH     HO1      HDP1A    0.360000       1.00800           0   0.00000       0.00000    
     10478 MEOH     524      MEOH     HO2      DUMH      0.00000       1.00800           0   0.00000       0.00000    
     10479 MEOH     524      MEOH     H1A      HDA3B    0.800000E-01   1.00800           0   0.00000       0.00000    
     10480 MEOH     524      MEOH     H1B      HDA3B    0.800000E-01   1.00800           0   0.00000       0.00000    
     10481 MEOH     524      MEOH     H1C      HDA3B    0.800000E-01   1.00800           0   0.00000       0.00000    
     10482 MEOH     524      MEOH     LP1A     LPD     -0.230000       0.00000          -1   0.00000       0.00000    
     10483 MEOH     524      MEOH     LP1B     LPD     -0.230000       0.00000          -1   0.00000       0.00000    
     10484 MEOH     525      MEOH     C1       CD33B     2.31410       11.6110           0  -1.00000       1.30000    
     10485 MEOH     525      MEOH     DC1      DRUD     -2.45410      0.400000           0   0.00000       0.00000    
     10486 MEOH     525      MEOH     O1       OD31H     2.48830       15.5990           0  -1.02800       1.30000    
     10487 MEOH     525      MEOH     DO1      DRUD     -2.48830      0.400000           0   0.00000       0.00000    
     10488 MEOH     525      MEOH     HO1      HDP1A    0.360000       1.00800           0   0.00000       0.00000    
     10489 MEOH     525      MEOH     HO2      DUMH      0.00000       1.00800           0   0.00000       0.00000    
     10490 MEOH     525      MEOH     H1A      HDA3B    0.800000E-01   1.00800           0   0.00000       0.00000    
     10491 MEOH     525      MEOH     H1B      HDA3B    0.800000E-01   1.00800           0   0.00000       0.00000    
     10492 MEOH     525      MEOH     H1C      HDA3B    0.800000E-01   1.00800           0   0.00000       0.00000    
     10493 MEOH     525      MEOH     LP1A     LPD     -0.230000       0.00000          -1   0.00000       0.00000    
     10494 MEOH     525      MEOH     LP1B     LPD     -0.230000       0.00000          -1   0.00000       0.00000    
     10495 MEOH     526      MEOH     C1       CD33B     2.31410       11.6110           0  -1.00000       1.30000    
     10496 MEOH     526      MEOH     DC1      DRUD     -2.45410      0.400000           0   0.00000       0.00000    
     10497 MEOH     526      MEOH     O1       OD31H     2.48830       15.5990           0  -1.02800       1.30000    
     10498 MEOH     526      MEOH     DO1      DRUD     -2.48830      0.400000           0   0.00000       0.00000    
     10499 MEOH     526      MEOH     HO1      HDP1A    0.360000       1.00800           0   0.00000       0.00000    
     10500 MEOH     526      MEOH     HO2      DUMH      0.00000       1.00800           0   0.00000       0.00000    
     10501 MEOH     526      MEOH     H1A      HDA3B    0.800000E-01   1.00800           0   0.00000       0.00000    
     10502 MEOH     526      MEOH     H1B      HDA3B    0.800000E-01   1.00800           0   0.00000       0.00000    
     10503 MEOH     526      MEOH     H1C      HDA3B    0.800000E-01   1.00800           0   0.00000       0.00000    
     10504 MEOH     526      MEOH     LP1A     LPD     -0.230000       0.00000          -1   0.00000       0.00000    
     10505 MEOH     526      MEOH     LP1B     LPD     -0.230000       0.00000          -1   0.00000       0.00000    
     10506 MEOH     527      MEOH     C1       CD33B     2.31410       11.6110           0  -1.00000       1.30000    
     10507 MEOH     527      MEOH     DC1      DRUD     -2.45410      0.400000           0   0.00000       0.00000    
     10508 MEOH     527      MEOH     O1       OD31H     2.48830       15.5990           0  -1.02800       1.30000    
     10509 MEOH     527      MEOH     DO1      DRUD     -2.48830      0.400000           0   0.00000       0.00000    
     10510 MEOH     527      MEOH     HO1      HDP1A    0.360000       1.00800           0   0.00000       0.00000    
     10511 MEOH     527      MEOH     HO2      DUMH      0.00000       1.00800           0   0.00000       0.00000    
     10512 MEOH     527      MEOH     H1A      HDA3B    0.800000E-01   1.00800           0   0.00000       0.00000    
     10513 MEOH     527      MEOH     H1B      HDA3B    0.800000E-01   1.00800           0   0.00000       0.00000    
     10514 MEOH     527      MEOH     H1C      HDA3B    0.800000E-01   1.00800           0   0.00000       0.00000    
     10515 MEOH     527      MEOH     LP1A     LPD     -0.230000       0.00000          -1   0.00000       0.00000    
     10516 MEOH     527      MEOH     LP1B     LPD     -0.230000       0.00000          -1   0.00000       0.00000    
     10517 MEOH     528      MEOH     C1       CD33B     2.31410       11.6110           0  -1.00000       1.30000    
     10518 MEOH     528      MEOH     DC1      DRUD     -2.45410      0.400000           0   0.00000       0.00000    
     10519 MEOH     528      MEOH     O1       OD31H     2.48830       15.5990           0  -1.02800       1.30000    
     10520 MEOH     528      MEOH     DO1      DRUD     -2.48830      0.400000           0   0.00000       0.00000    
     10521 MEOH     528      MEOH     HO1      HDP1A    0.360000       1.00800           0   0.00000       0.00000    
     10522 MEOH     528      MEOH     HO2      DUMH      0.00000       1.00800           0   0.00000       0.00000    
     10523 MEOH     528      MEOH     H1A      HDA3B    0.800000E-01   1.00800           0   0.00000       0.00000    
     10524 MEOH     528      MEOH     H1B      HDA3B    0.800000E-01   1.00800           0   0.00000       0.00000    
     10525 MEOH     528      MEOH     H1C      HDA3B    0.800000E-01   1.00800           0   0.00000       0.00000    
     10526 MEOH     528      MEOH     LP1A     LPD     -0.230000       0.00000          -1   0.00000       0.00000    
     10527 MEOH     528      MEOH     LP1B     LPD     -0.230000       0.00000          -1   0.00000       0.00000    
     10528 MEOH     529      MEOH     C1       CD33B     2.31410       11.6110           0  -1.00000       1.30000    
     10529 MEOH     529      MEOH     DC1      DRUD     -2.45410      0.400000           0   0.00000       0.00000    
     10530 MEOH     529      MEOH     O1       OD31H     2.48830       15.5990           0  -1.02800       1.30000    
     10531 MEOH     529      MEOH     DO1      DRUD     -2.48830      0.400000           0   0.00000       0.00000    
     10532 MEOH     529      MEOH     HO1      HDP1A    0.360000       1.00800           0   0.00000       0.00000    
     10533 MEOH     529      MEOH     HO2      DUMH      0.00000       1.00800           0   0.00000       0.00000    
     10534 MEOH     529      MEOH     H1A      HDA3B    0.800000E-01   1.00800           0   0.00000       0.00000    
     10535 MEOH     529      MEOH     H1B      HDA3B    0.800000E-01   1.00800           0   0.00000       0.00000    
     10536 MEOH     529      MEOH     H1C      HDA3B    0.800000E-01   1.00800           0   0.00000       0.00000    
     10537 MEOH     529      MEOH     LP1A     LPD     -0.230000       0.00000          -1   0.00000       0.00000    
     10538 MEOH     529      MEOH     LP1B     LPD     -0.230000       0.00000          -1   0.00000       0.00000    
     10539 MEOH     530      MEOH     C1       CD33B     2.31410       11.6110           0  -1.00000       1.30000    
     10540 MEOH     530      MEOH     DC1      DRUD     -2.45410      0.400000           0   0.00000       0.00000    
     10541 MEOH     530      MEOH     O1       OD31H     2.48830       15.5990           0  -1.02800       1.30000    
     10542 MEOH     530      MEOH     DO1      DRUD     -2.48830      0.400000           0   0.00000       0.00000    
     10543 MEOH     530      MEOH     HO1      HDP1A    0.360000       1.00800           0   0.00000       0.00000    
     10544 MEOH     530      MEOH     HO2      DUMH      0.00000       1.00800           0   0.00000       0.00000    
     10545 MEOH     530      MEOH     H1A      HDA3B    0.800000E-01   1.00800           0   0.00000       0.00000    
     10546 MEOH     530      MEOH     H1B      HDA3B    0.800000E-01   1.00800           0   0.00000       0.00000    
     10547 MEOH     530      MEOH     H1C      HDA3B    0.800000E-01   1.00800           0   0.00000       0.00000    
     10548 MEOH     530      MEOH     LP1A     LPD     -0.230000       0.00000          -1   0.00000       0.00000    
     10549 MEOH     530      MEOH     LP1B     LPD     -0.230000       0.00000          -1   0.00000       0.00000    
     10550 MEOH     531      MEOH     C1       CD33B     2.31410       11.6110           0  -1.00000       1.30000    
     10551 MEOH     531      MEOH     DC1      DRUD     -2.45410      0.400000           0   0.00000       0.00000    
     10552 MEOH     531      MEOH     O1       OD31H     2.48830       15.5990           0  -1.02800       1.30000    
     10553 MEOH     531      MEOH     DO1      DRUD     -2.48830      0.400000           0   0.00000       0.00000    
     10554 MEOH     531      MEOH     HO1      HDP1A    0.360000       1.00800           0   0.00000       0.00000    
     10555 MEOH     531      MEOH     HO2      DUMH      0.00000       1.00800           0   0.00000       0.00000    
     10556 MEOH     531      MEOH     H1A      HDA3B    0.800000E-01   1.00800           0   0.00000       0.00000    
     10557 MEOH     531      MEOH     H1B      HDA3B    0.800000E-01   1.00800           0   0.00000       0.00000    
     10558 MEOH     531      MEOH     H1C      HDA3B    0.800000E-01   1.00800           0   0.00000       0.00000    
     10559 MEOH     531      MEOH     LP1A     LPD     -0.230000       0.00000          -1   0.00000       0.00000    
     10560 MEOH     531      MEOH     LP1B     LPD     -0.230000       0.00000          -1   0.00000       0.00000    
     10561 MEOH     532      MEOH     C1       CD33B     2.31410       11.6110           0  -1.00000       1.30000    
     10562 MEOH     532      MEOH     DC1      DRUD     -2.45410      0.400000           0   0.00000       0.00000    
     10563 MEOH     532      MEOH     O1       OD31H     2.48830       15.5990           0  -1.02800       1.30000    
     10564 MEOH     532      MEOH     DO1      DRUD     -2.48830      0.400000           0   0.00000       0.00000    
     10565 MEOH     532      MEOH     HO1      HDP1A    0.360000       1.00800           0   0.00000       0.00000    
     10566 MEOH     532      MEOH     HO2      DUMH      0.00000       1.00800           0   0.00000       0.00000    
     10567 MEOH     532      MEOH     H1A      HDA3B    0.800000E-01   1.00800           0   0.00000       0.00000    
     10568 MEOH     532      MEOH     H1B      HDA3B    0.800000E-01   1.00800           0   0.00000       0.00000    
     10569 MEOH     532      MEOH     H1C      HDA3B    0.800000E-01   1.00800           0   0.00000       0.00000    
     10570 MEOH     532      MEOH     LP1A     LPD     -0.230000       0.00000          -1   0.00000       0.00000    
     10571 MEOH     532      MEOH     LP1B     LPD     -0.230000       0.00000          -1   0.00000       0.00000    
     10572 MEOH     533      MEOH     C1       CD33B     2.31410       11.6110           0  -1.00000       1.30000    
     10573 MEOH     533      MEOH     DC1      DRUD     -2.45410      0.400000           0   0.00000       0.00000    
     10574 MEOH     533      MEOH     O1       OD31H     2.48830       15.5990           0  -1.02800       1.30000    
     10575 MEOH     533      MEOH     DO1      DRUD     -2.48830      0.400000           0   0.00000       0.00000    
     10576 MEOH     533      MEOH     HO1      HDP1A    0.360000       1.00800           0   0.00000       0.00000    
     10577 MEOH     533      MEOH     HO2      DUMH      0.00000       1.00800           0   0.00000       0.00000    
     10578 MEOH     533      MEOH     H1A      HDA3B    0.800000E-01   1.00800           0   0.00000       0.00000    
     10579 MEOH     533      MEOH     H1B      HDA3B    0.800000E-01   1.00800           0   0.00000       0.00000    
     10580 MEOH     533      MEOH     H1C      HDA3B    0.800000E-01   1.00800           0   0.00000       0.00000    
     10581 MEOH     533      MEOH     LP1A     LPD     -0.230000       0.00000          -1   0.00000       0.00000    
     10582 MEOH     533      MEOH     LP1B     LPD     -0.230000       0.00000          -1   0.00000       0.00000    
     10583 MEOH     534      MEOH     C1       CD33B     2.31410       11.6110           0  -1.00000       1.30000    
     10584 MEOH     534      MEOH     DC1      DRUD     -2.45410      0.400000           0   0.00000       0.00000    
     10585 MEOH     534      MEOH     O1       OD31H     2.48830       15.5990           0  -1.02800       1.30000    
     10586 MEOH     534      MEOH     DO1      DRUD     -2.48830      0.400000           0   0.00000       0.00000    
     10587 MEOH     534      MEOH     HO1      HDP1A    0.360000       1.00800           0   0.00000       0.00000    
     10588 MEOH     534      MEOH     HO2      DUMH      0.00000       1.00800           0   0.00000       0.00000    
     10589 MEOH     534      MEOH     H1A      HDA3B    0.800000E-01   1.00800           0   0.00000       0.00000    
     10590 MEOH     534      MEOH     H1B      HDA3B    0.800000E-01   1.00800           0   0.00000       0.00000    
     10591 MEOH     534      MEOH     H1C      HDA3B    0.800000E-01   1.00800           0   0.00000       0.00000    
     10592 MEOH     534      MEOH     LP1A     LPD     -0.230000       0.00000          -1   0.00000       0.00000    
     10593 MEOH     534      MEOH     LP1B     LPD     -0.230000       0.00000          -1   0.00000       0.00000    
     10594 MEOH     535      MEOH     C1       CD33B     2.31410       11.6110           0  -1.00000       1.30000    
     10595 MEOH     535      MEOH     DC1      DRUD     -2.45410      0.400000           0   0.00000       0.00000    
     10596 MEOH     535      MEOH     O1       OD31H     2.48830       15.5990           0  -1.02800       1.30000    
     10597 MEOH     535      MEOH     DO1      DRUD     -2.48830      0.400000           0   0.00000       0.00000    
     10598 MEOH     535      MEOH     HO1      HDP1A    0.360000       1.00800           0   0.00000       0.00000    
     10599 MEOH     535      MEOH     HO2      DUMH      0.00000       1.00800           0   0.00000       0.00000    
     10600 MEOH     535      MEOH     H1A      HDA3B    0.800000E-01   1.00800           0   0.00000       0.00000    
     10601 MEOH     535      MEOH     H1B      HDA3B    0.800000E-01   1.00800           0   0.00000       0.00000    
     10602 MEOH     535      MEOH     H1C      HDA3B    0.800000E-01   1.00800           0   0.00000       0.00000    
     10603 MEOH     535      MEOH     LP1A     LPD     -0.230000       0.00000          -1   0.00000       0.00000    
     10604 MEOH     535      MEOH     LP1B     LPD     -0.230000       0.00000          -1   0.00000       0.00000    
     10605 MEOH     536      MEOH     C1       CD33B     2.31410       11.6110           0  -1.00000       1.30000    
     10606 MEOH     536      MEOH     DC1      DRUD     -2.45410      0.400000           0   0.00000       0.00000    
     10607 MEOH     536      MEOH     O1       OD31H     2.48830       15.5990           0  -1.02800       1.30000    
     10608 MEOH     536      MEOH     DO1      DRUD     -2.48830      0.400000           0   0.00000       0.00000    
     10609 MEOH     536      MEOH     HO1      HDP1A    0.360000       1.00800           0   0.00000       0.00000    
     10610 MEOH     536      MEOH     HO2      DUMH      0.00000       1.00800           0   0.00000       0.00000    
     10611 MEOH     536      MEOH     H1A      HDA3B    0.800000E-01   1.00800           0   0.00000       0.00000    
     10612 MEOH     536      MEOH     H1B      HDA3B    0.800000E-01   1.00800           0   0.00000       0.00000    
     10613 MEOH     536      MEOH     H1C      HDA3B    0.800000E-01   1.00800           0   0.00000       0.00000    
     10614 MEOH     536      MEOH     LP1A     LPD     -0.230000       0.00000          -1   0.00000       0.00000    
     10615 MEOH     536      MEOH     LP1B     LPD     -0.230000       0.00000          -1   0.00000       0.00000    
     10616 MEOH     537      MEOH     C1       CD33B     2.31410       11.6110           0  -1.00000       1.30000    
     10617 MEOH     537      MEOH     DC1      DRUD     -2.45410      0.400000           0   0.00000       0.00000    
     10618 MEOH     537      MEOH     O1       OD31H     2.48830       15.5990           0  -1.02800       1.30000    
     10619 MEOH     537      MEOH     DO1      DRUD     -2.48830      0.400000           0   0.00000       0.00000    
     10620 MEOH     537      MEOH     HO1      HDP1A    0.360000       1.00800           0   0.00000       0.00000    
     10621 MEOH     537      MEOH     HO2      DUMH      0.00000       1.00800           0   0.00000       0.00000    
     10622 MEOH     537      MEOH     H1A      HDA3B    0.800000E-01   1.00800           0   0.00000       0.00000    
     10623 MEOH     537      MEOH     H1B      HDA3B    0.800000E-01   1.00800           0   0.00000       0.00000    
     10624 MEOH     537      MEOH     H1C      HDA3B    0.800000E-01   1.00800           0   0.00000       0.00000    
     10625 MEOH     537      MEOH     LP1A     LPD     -0.230000       0.00000          -1   0.00000       0.00000    
     10626 MEOH     537      MEOH     LP1B     LPD     -0.230000       0.00000          -1   0.00000       0.00000    
     10627 MEOH     538      MEOH     C1       CD33B     2.31410       11.6110           0  -1.00000       1.30000    
     10628 MEOH     538      MEOH     DC1      DRUD     -2.45410      0.400000           0   0.00000       0.00000    
     10629 MEOH     538      MEOH     O1       OD31H     2.48830       15.5990           0  -1.02800       1.30000    
     10630 MEOH     538      MEOH     DO1      DRUD     -2.48830      0.400000           0   0.00000       0.00000    
     10631 MEOH     538      MEOH     HO1      HDP1A    0.360000       1.00800           0   0.00000       0.00000    
     10632 MEOH     538      MEOH     HO2      DUMH      0.00000       1.00800           0   0.00000       0.00000    
     10633 MEOH     538      MEOH     H1A      HDA3B    0.800000E-01   1.00800           0   0.00000       0.00000    
     10634 MEOH     538      MEOH     H1B      HDA3B    0.800000E-01   1.00800           0   0.00000       0.00000    
     10635 MEOH     538      MEOH     H1C      HDA3B    0.800000E-01   1.00800           0   0.00000       0.00000    
     10636 MEOH     538      MEOH     LP1A     LPD     -0.230000       0.00000          -1   0.00000       0.00000    
     10637 MEOH     538      MEOH     LP1B     LPD     -0.230000       0.00000          -1   0.00000       0.00000    
     10638 MEOH     539      MEOH     C1       CD33B     2.31410       11.6110           0  -1.00000       1.30000    
     10639 MEOH     539      MEOH     DC1      DRUD     -2.45410      0.400000           0   0.00000       0.00000    
     10640 MEOH     539      MEOH     O1       OD31H     2.48830       15.5990           0  -1.02800       1.30000    
     10641 MEOH     539      MEOH     DO1      DRUD     -2.48830      0.400000           0   0.00000       0.00000    
     10642 MEOH     539      MEOH     HO1      HDP1A    0.360000       1.00800           0   0.00000       0.00000    
     10643 MEOH     539      MEOH     HO2      DUMH      0.00000       1.00800           0   0.00000       0.00000    
     10644 MEOH     539      MEOH     H1A      HDA3B    0.800000E-01   1.00800           0   0.00000       0.00000    
     10645 MEOH     539      MEOH     H1B      HDA3B    0.800000E-01   1.00800           0   0.00000       0.00000    
     10646 MEOH     539      MEOH     H1C      HDA3B    0.800000E-01   1.00800           0   0.00000       0.00000    
     10647 MEOH     539      MEOH     LP1A     LPD     -0.230000       0.00000          -1   0.00000       0.00000    
     10648 MEOH     539      MEOH     LP1B     LPD     -0.230000       0.00000          -1   0.00000       0.00000    
     10649 MEOH     540      MEOH     C1       CD33B     2.31410       11.6110           0  -1.00000       1.30000    
     10650 MEOH     540      MEOH     DC1      DRUD     -2.45410      0.400000           0   0.00000       0.00000    
     10651 MEOH     540      MEOH     O1       OD31H     2.48830       15.5990           0  -1.02800       1.30000    
     10652 MEOH     540      MEOH     DO1      DRUD     -2.48830      0.400000           0   0.00000       0.00000    
     10653 MEOH     540      MEOH     HO1      HDP1A    0.360000       1.00800           0   0.00000       0.00000    
     10654 MEOH     540      MEOH     HO2      DUMH      0.00000       1.00800           0   0.00000       0.00000    
     10655 MEOH     540      MEOH     H1A      HDA3B    0.800000E-01   1.00800           0   0.00000       0.00000    
     10656 MEOH     540      MEOH     H1B      HDA3B    0.800000E-01   1.00800           0   0.00000       0.00000    
     10657 MEOH     540      MEOH     H1C      HDA3B    0.800000E-01   1.00800           0   0.00000       0.00000    
     10658 MEOH     540      MEOH     LP1A     LPD     -0.230000       0.00000          -1   0.00000       0.00000    
     10659 MEOH     540      MEOH     LP1B     LPD     -0.230000       0.00000          -1   0.00000       0.00000    
     10660 MEOH     541      MEOH     C1       CD33B     2.31410       11.6110           0  -1.00000       1.30000    
     10661 MEOH     541      MEOH     DC1      DRUD     -2.45410      0.400000           0   0.00000       0.00000    
     10662 MEOH     541      MEOH     O1       OD31H     2.48830       15.5990           0  -1.02800       1.30000    
     10663 MEOH     541      MEOH     DO1      DRUD     -2.48830      0.400000           0   0.00000       0.00000    
     10664 MEOH     541      MEOH     HO1      HDP1A    0.360000       1.00800           0   0.00000       0.00000    
     10665 MEOH     541      MEOH     HO2      DUMH      0.00000       1.00800           0   0.00000       0.00000    
     10666 MEOH     541      MEOH     H1A      HDA3B    0.800000E-01   1.00800           0   0.00000       0.00000    
     10667 MEOH     541      MEOH     H1B      HDA3B    0.800000E-01   1.00800           0   0.00000       0.00000    
     10668 MEOH     541      MEOH     H1C      HDA3B    0.800000E-01   1.00800           0   0.00000       0.00000    
     10669 MEOH     541      MEOH     LP1A     LPD     -0.230000       0.00000          -1   0.00000       0.00000    
     10670 MEOH     541      MEOH     LP1B     LPD     -0.230000       0.00000          -1   0.00000       0.00000    
     10671 MEOH     542      MEOH     C1       CD33B     2.31410       11.6110           0  -1.00000       1.30000    
     10672 MEOH     542      MEOH     DC1      DRUD     -2.45410      0.400000           0   0.00000       0.00000    
     10673 MEOH     542      MEOH     O1       OD31H     2.48830       15.5990           0  -1.02800       1.30000    
     10674 MEOH     542      MEOH     DO1      DRUD     -2.48830      0.400000           0   0.00000       0.00000    
     10675 MEOH     542      MEOH     HO1      HDP1A    0.360000       1.00800           0   0.00000       0.00000    
     10676 MEOH     542      MEOH     HO2      DUMH      0.00000       1.00800           0   0.00000       0.00000    
     10677 MEOH     542      MEOH     H1A      HDA3B    0.800000E-01   1.00800           0   0.00000       0.00000    
     10678 MEOH     542      MEOH     H1B      HDA3B    0.800000E-01   1.00800           0   0.00000       0.00000    
     10679 MEOH     542      MEOH     H1C      HDA3B    0.800000E-01   1.00800           0   0.00000       0.00000    
     10680 MEOH     542      MEOH     LP1A     LPD     -0.230000       0.00000          -1   0.00000       0.00000    
     10681 MEOH     542      MEOH     LP1B     LPD     -0.230000       0.00000          -1   0.00000       0.00000    
     10682 MEOH     543      MEOH     C1       CD33B     2.31410       11.6110           0  -1.00000       1.30000    
     10683 MEOH     543      MEOH     DC1      DRUD     -2.45410      0.400000           0   0.00000       0.00000    
     10684 MEOH     543      MEOH     O1       OD31H     2.48830       15.5990           0  -1.02800       1.30000    
     10685 MEOH     543      MEOH     DO1      DRUD     -2.48830      0.400000           0   0.00000       0.00000    
     10686 MEOH     543      MEOH     HO1      HDP1A    0.360000       1.00800           0   0.00000       0.00000    
     10687 MEOH     543      MEOH     HO2      DUMH      0.00000       1.00800           0   0.00000       0.00000    
     10688 MEOH     543      MEOH     H1A      HDA3B    0.800000E-01   1.00800           0   0.00000       0.00000    
     10689 MEOH     543      MEOH     H1B      HDA3B    0.800000E-01   1.00800           0   0.00000       0.00000    
     10690 MEOH     543      MEOH     H1C      HDA3B    0.800000E-01   1.00800           0   0.00000       0.00000    
     10691 MEOH     543      MEOH     LP1A     LPD     -0.230000       0.00000          -1   0.00000       0.00000    
     10692 MEOH     543      MEOH     LP1B     LPD     -0.230000       0.00000          -1   0.00000       0.00000    
     10693 MEOH     544      MEOH     C1       CD33B     2.31410       11.6110           0  -1.00000       1.30000    
     10694 MEOH     544      MEOH     DC1      DRUD     -2.45410      0.400000           0   0.00000       0.00000    
     10695 MEOH     544      MEOH     O1       OD31H     2.48830       15.5990           0  -1.02800       1.30000    
     10696 MEOH     544      MEOH     DO1      DRUD     -2.48830      0.400000           0   0.00000       0.00000    
     10697 MEOH     544      MEOH     HO1      HDP1A    0.360000       1.00800           0   0.00000       0.00000    
     10698 MEOH     544      MEOH     HO2      DUMH      0.00000       1.00800           0   0.00000       0.00000    
     10699 MEOH     544      MEOH     H1A      HDA3B    0.800000E-01   1.00800           0   0.00000       0.00000    
     10700 MEOH     544      MEOH     H1B      HDA3B    0.800000E-01   1.00800           0   0.00000       0.00000    
     10701 MEOH     544      MEOH     H1C      HDA3B    0.800000E-01   1.00800           0   0.00000       0.00000    
     10702 MEOH     544      MEOH     LP1A     LPD     -0.230000       0.00000          -1   0.00000       0.00000    
     10703 MEOH     544      MEOH     LP1B     LPD     -0.230000       0.00000          -1   0.00000       0.00000    
     10704 MEOH     545      MEOH     C1       CD33B     2.31410       11.6110           0  -1.00000       1.30000    
     10705 MEOH     545      MEOH     DC1      DRUD     -2.45410      0.400000           0   0.00000       0.00000    
     10706 MEOH     545      MEOH     O1       OD31H     2.48830       15.5990           0  -1.02800       1.30000    
     10707 MEOH     545      MEOH     DO1      DRUD     -2.48830      0.400000           0   0.00000       0.00000    
     10708 MEOH     545      MEOH     HO1      HDP1A    0.360000       1.00800           0   0.00000       0.00000    
     10709 MEOH     545      MEOH     HO2      DUMH      0.00000       1.00800           0   0.00000       0.00000    
     10710 MEOH     545      MEOH     H1A      HDA3B    0.800000E-01   1.00800           0   0.00000       0.00000    
     10711 MEOH     545      MEOH     H1B      HDA3B    0.800000E-01   1.00800           0   0.00000       0.00000    
     10712 MEOH     545      MEOH     H1C      HDA3B    0.800000E-01   1.00800           0   0.00000       0.00000    
     10713 MEOH     545      MEOH     LP1A     LPD     -0.230000       0.00000          -1   0.00000       0.00000    
     10714 MEOH     545      MEOH     LP1B     LPD     -0.230000       0.00000          -1   0.00000       0.00000    
     10715 MEOH     546      MEOH     C1       CD33B     2.31410       11.6110           0  -1.00000       1.30000    
     10716 MEOH     546      MEOH     DC1      DRUD     -2.45410      0.400000           0   0.00000       0.00000    
     10717 MEOH     546      MEOH     O1       OD31H     2.48830       15.5990           0  -1.02800       1.30000    
     10718 MEOH     546      MEOH     DO1      DRUD     -2.48830      0.400000           0   0.00000       0.00000    
     10719 MEOH     546      MEOH     HO1      HDP1A    0.360000       1.00800           0   0.00000       0.00000    
     10720 MEOH     546      MEOH     HO2      DUMH      0.00000       1.00800           0   0.00000       0.00000    
     10721 MEOH     546      MEOH     H1A      HDA3B    0.800000E-01   1.00800           0   0.00000       0.00000    
     10722 MEOH     546      MEOH     H1B      HDA3B    0.800000E-01   1.00800           0   0.00000       0.00000    
     10723 MEOH     546      MEOH     H1C      HDA3B    0.800000E-01   1.00800           0   0.00000       0.00000    
     10724 MEOH     546      MEOH     LP1A     LPD     -0.230000       0.00000          -1   0.00000       0.00000    
     10725 MEOH     546      MEOH     LP1B     LPD     -0.230000       0.00000          -1   0.00000       0.00000    
     10726 MEOH     547      MEOH     C1       CD33B     2.31410       11.6110           0  -1.00000       1.30000    
     10727 MEOH     547      MEOH     DC1      DRUD     -2.45410      0.400000           0   0.00000       0.00000    
     10728 MEOH     547      MEOH     O1       OD31H     2.48830       15.5990           0  -1.02800       1.30000    
     10729 MEOH     547      MEOH     DO1      DRUD     -2.48830      0.400000           0   0.00000       0.00000    
     10730 MEOH     547      MEOH     HO1      HDP1A    0.360000       1.00800           0   0.00000       0.00000    
     10731 MEOH     547      MEOH     HO2      DUMH      0.00000       1.00800           0   0.00000       0.00000    
     10732 MEOH     547      MEOH     H1A      HDA3B    0.800000E-01   1.00800           0   0.00000       0.00000    
     10733 MEOH     547      MEOH     H1B      HDA3B    0.800000E-01   1.00800           0   0.00000       0.00000    
     10734 MEOH     547      MEOH     H1C      HDA3B    0.800000E-01   1.00800           0   0.00000       0.00000    
     10735 MEOH     547      MEOH     LP1A     LPD     -0.230000       0.00000          -1   0.00000       0.00000    
     10736 MEOH     547      MEOH     LP1B     LPD     -0.230000       0.00000          -1   0.00000       0.00000    
     10737 MEOH     548      MEOH     C1       CD33B     2.31410       11.6110           0  -1.00000       1.30000    
     10738 MEOH     548      MEOH     DC1      DRUD     -2.45410      0.400000           0   0.00000       0.00000    
     10739 MEOH     548      MEOH     O1       OD31H     2.48830       15.5990           0  -1.02800       1.30000    
     10740 MEOH     548      MEOH     DO1      DRUD     -2.48830      0.400000           0   0.00000       0.00000    
     10741 MEOH     548      MEOH     HO1      HDP1A    0.360000       1.00800           0   0.00000       0.00000    
     10742 MEOH     548      MEOH     HO2      DUMH      0.00000       1.00800           0   0.00000       0.00000    
     10743 MEOH     548      MEOH     H1A      HDA3B    0.800000E-01   1.00800           0   0.00000       0.00000    
     10744 MEOH     548      MEOH     H1B      HDA3B    0.800000E-01   1.00800           0   0.00000       0.00000    
     10745 MEOH     548      MEOH     H1C      HDA3B    0.800000E-01   1.00800           0   0.00000       0.00000    
     10746 MEOH     548      MEOH     LP1A     LPD     -0.230000       0.00000          -1   0.00000       0.00000    
     10747 MEOH     548      MEOH     LP1B     LPD     -0.230000       0.00000          -1   0.00000       0.00000    
     10748 MEOH     549      MEOH     C1       CD33B     2.31410       11.6110           0  -1.00000       1.30000    
     10749 MEOH     549      MEOH     DC1      DRUD     -2.45410      0.400000           0   0.00000       0.00000    
     10750 MEOH     549      MEOH     O1       OD31H     2.48830       15.5990           0  -1.02800       1.30000    
     10751 MEOH     549      MEOH     DO1      DRUD     -2.48830      0.400000           0   0.00000       0.00000    
     10752 MEOH     549      MEOH     HO1      HDP1A    0.360000       1.00800           0   0.00000       0.00000    
     10753 MEOH     549      MEOH     HO2      DUMH      0.00000       1.00800           0   0.00000       0.00000    
     10754 MEOH     549      MEOH     H1A      HDA3B    0.800000E-01   1.00800           0   0.00000       0.00000    
     10755 MEOH     549      MEOH     H1B      HDA3B    0.800000E-01   1.00800           0   0.00000       0.00000    
     10756 MEOH     549      MEOH     H1C      HDA3B    0.800000E-01   1.00800           0   0.00000       0.00000    
     10757 MEOH     549      MEOH     LP1A     LPD     -0.230000       0.00000          -1   0.00000       0.00000    
     10758 MEOH     549      MEOH     LP1B     LPD     -0.230000       0.00000          -1   0.00000       0.00000    
     10759 MEOH     550      MEOH     C1       CD33B     2.31410       11.6110           0  -1.00000       1.30000    
     10760 MEOH     550      MEOH     DC1      DRUD     -2.45410      0.400000           0   0.00000       0.00000    
     10761 MEOH     550      MEOH     O1       OD31H     2.48830       15.5990           0  -1.02800       1.30000    
     10762 MEOH     550      MEOH     DO1      DRUD     -2.48830      0.400000           0   0.00000       0.00000    
     10763 MEOH     550      MEOH     HO1      HDP1A    0.360000       1.00800           0   0.00000       0.00000    
     10764 MEOH     550      MEOH     HO2      DUMH      0.00000       1.00800           0   0.00000       0.00000    
     10765 MEOH     550      MEOH     H1A      HDA3B    0.800000E-01   1.00800           0   0.00000       0.00000    
     10766 MEOH     550      MEOH     H1B      HDA3B    0.800000E-01   1.00800           0   0.00000       0.00000    
     10767 MEOH     550      MEOH     H1C      HDA3B    0.800000E-01   1.00800           0   0.00000       0.00000    
     10768 MEOH     550      MEOH     LP1A     LPD     -0.230000       0.00000          -1   0.00000       0.00000    
     10769 MEOH     550      MEOH     LP1B     LPD     -0.230000       0.00000          -1   0.00000       0.00000    
     10770 MEOH     551      MEOH     C1       CD33B     2.31410       11.6110           0  -1.00000       1.30000    
     10771 MEOH     551      MEOH     DC1      DRUD     -2.45410      0.400000           0   0.00000       0.00000    
     10772 MEOH     551      MEOH     O1       OD31H     2.48830       15.5990           0  -1.02800       1.30000    
     10773 MEOH     551      MEOH     DO1      DRUD     -2.48830      0.400000           0   0.00000       0.00000    
     10774 MEOH     551      MEOH     HO1      HDP1A    0.360000       1.00800           0   0.00000       0.00000    
     10775 MEOH     551      MEOH     HO2      DUMH      0.00000       1.00800           0   0.00000       0.00000    
     10776 MEOH     551      MEOH     H1A      HDA3B    0.800000E-01   1.00800           0   0.00000       0.00000    
     10777 MEOH     551      MEOH     H1B      HDA3B    0.800000E-01   1.00800           0   0.00000       0.00000    
     10778 MEOH     551      MEOH     H1C      HDA3B    0.800000E-01   1.00800           0   0.00000       0.00000    
     10779 MEOH     551      MEOH     LP1A     LPD     -0.230000       0.00000          -1   0.00000       0.00000    
     10780 MEOH     551      MEOH     LP1B     LPD     -0.230000       0.00000          -1   0.00000       0.00000    
     10781 MEOH     552      MEOH     C1       CD33B     2.31410       11.6110           0  -1.00000       1.30000    
     10782 MEOH     552      MEOH     DC1      DRUD     -2.45410      0.400000           0   0.00000       0.00000    
     10783 MEOH     552      MEOH     O1       OD31H     2.48830       15.5990           0  -1.02800       1.30000    
     10784 MEOH     552      MEOH     DO1      DRUD     -2.48830      0.400000           0   0.00000       0.00000    
     10785 MEOH     552      MEOH     HO1      HDP1A    0.360000       1.00800           0   0.00000       0.00000    
     10786 MEOH     552      MEOH     HO2      DUMH      0.00000       1.00800           0   0.00000       0.00000    
     10787 MEOH     552      MEOH     H1A      HDA3B    0.800000E-01   1.00800           0   0.00000       0.00000    
     10788 MEOH     552      MEOH     H1B      HDA3B    0.800000E-01   1.00800           0   0.00000       0.00000    
     10789 MEOH     552      MEOH     H1C      HDA3B    0.800000E-01   1.00800           0   0.00000       0.00000    
     10790 MEOH     552      MEOH     LP1A     LPD     -0.230000       0.00000          -1   0.00000       0.00000    
     10791 MEOH     552      MEOH     LP1B     LPD     -0.230000       0.00000          -1   0.00000       0.00000    
     10792 MEOH     553      MEOH     C1       CD33B     2.31410       11.6110           0  -1.00000       1.30000    
     10793 MEOH     553      MEOH     DC1      DRUD     -2.45410      0.400000           0   0.00000       0.00000    
     10794 MEOH     553      MEOH     O1       OD31H     2.48830       15.5990           0  -1.02800       1.30000    
     10795 MEOH     553      MEOH     DO1      DRUD     -2.48830      0.400000           0   0.00000       0.00000    
     10796 MEOH     553      MEOH     HO1      HDP1A    0.360000       1.00800           0   0.00000       0.00000    
     10797 MEOH     553      MEOH     HO2      DUMH      0.00000       1.00800           0   0.00000       0.00000    
     10798 MEOH     553      MEOH     H1A      HDA3B    0.800000E-01   1.00800           0   0.00000       0.00000    
     10799 MEOH     553      MEOH     H1B      HDA3B    0.800000E-01   1.00800           0   0.00000       0.00000    
     10800 MEOH     553      MEOH     H1C      HDA3B    0.800000E-01   1.00800           0   0.00000       0.00000    
     10801 MEOH     553      MEOH     LP1A     LPD     -0.230000       0.00000          -1   0.00000       0.00000    
     10802 MEOH     553      MEOH     LP1B     LPD     -0.230000       0.00000          -1   0.00000       0.00000    
     10803 MEOH     554      MEOH     C1       CD33B     2.31410       11.6110           0  -1.00000       1.30000    
     10804 MEOH     554      MEOH     DC1      DRUD     -2.45410      0.400000           0   0.00000       0.00000    
     10805 MEOH     554      MEOH     O1       OD31H     2.48830       15.5990           0  -1.02800       1.30000    
     10806 MEOH     554      MEOH     DO1      DRUD     -2.48830      0.400000           0   0.00000       0.00000    
     10807 MEOH     554      MEOH     HO1      HDP1A    0.360000       1.00800           0   0.00000       0.00000    
     10808 MEOH     554      MEOH     HO2      DUMH      0.00000       1.00800           0   0.00000       0.00000    
     10809 MEOH     554      MEOH     H1A      HDA3B    0.800000E-01   1.00800           0   0.00000       0.00000    
     10810 MEOH     554      MEOH     H1B      HDA3B    0.800000E-01   1.00800           0   0.00000       0.00000    
     10811 MEOH     554      MEOH     H1C      HDA3B    0.800000E-01   1.00800           0   0.00000       0.00000    
     10812 MEOH     554      MEOH     LP1A     LPD     -0.230000       0.00000          -1   0.00000       0.00000    
     10813 MEOH     554      MEOH     LP1B     LPD     -0.230000       0.00000          -1   0.00000       0.00000    
     10814 MEOH     555      MEOH     C1       CD33B     2.31410       11.6110           0  -1.00000       1.30000    
     10815 MEOH     555      MEOH     DC1      DRUD     -2.45410      0.400000           0   0.00000       0.00000    
     10816 MEOH     555      MEOH     O1       OD31H     2.48830       15.5990           0  -1.02800       1.30000    
     10817 MEOH     555      MEOH     DO1      DRUD     -2.48830      0.400000           0   0.00000       0.00000    
     10818 MEOH     555      MEOH     HO1      HDP1A    0.360000       1.00800           0   0.00000       0.00000    
     10819 MEOH     555      MEOH     HO2      DUMH      0.00000       1.00800           0   0.00000       0.00000    
     10820 MEOH     555      MEOH     H1A      HDA3B    0.800000E-01   1.00800           0   0.00000       0.00000    
     10821 MEOH     555      MEOH     H1B      HDA3B    0.800000E-01   1.00800           0   0.00000       0.00000    
     10822 MEOH     555      MEOH     H1C      HDA3B    0.800000E-01   1.00800           0   0.00000       0.00000    
     10823 MEOH     555      MEOH     LP1A     LPD     -0.230000       0.00000          -1   0.00000       0.00000    
     10824 MEOH     555      MEOH     LP1B     LPD     -0.230000       0.00000          -1   0.00000       0.00000    
     10825 MEOH     556      MEOH     C1       CD33B     2.31410       11.6110           0  -1.00000       1.30000    
     10826 MEOH     556      MEOH     DC1      DRUD     -2.45410      0.400000           0   0.00000       0.00000    
     10827 MEOH     556      MEOH     O1       OD31H     2.48830       15.5990           0  -1.02800       1.30000    
     10828 MEOH     556      MEOH     DO1      DRUD     -2.48830      0.400000           0   0.00000       0.00000    
     10829 MEOH     556      MEOH     HO1      HDP1A    0.360000       1.00800           0   0.00000       0.00000    
     10830 MEOH     556      MEOH     HO2      DUMH      0.00000       1.00800           0   0.00000       0.00000    
     10831 MEOH     556      MEOH     H1A      HDA3B    0.800000E-01   1.00800           0   0.00000       0.00000    
     10832 MEOH     556      MEOH     H1B      HDA3B    0.800000E-01   1.00800           0   0.00000       0.00000    
     10833 MEOH     556      MEOH     H1C      HDA3B    0.800000E-01   1.00800           0   0.00000       0.00000    
     10834 MEOH     556      MEOH     LP1A     LPD     -0.230000       0.00000          -1   0.00000       0.00000    
     10835 MEOH     556      MEOH     LP1B     LPD     -0.230000       0.00000          -1   0.00000       0.00000    
     10836 MEOH     557      MEOH     C1       CD33B     2.31410       11.6110           0  -1.00000       1.30000    
     10837 MEOH     557      MEOH     DC1      DRUD     -2.45410      0.400000           0   0.00000       0.00000    
     10838 MEOH     557      MEOH     O1       OD31H     2.48830       15.5990           0  -1.02800       1.30000    
     10839 MEOH     557      MEOH     DO1      DRUD     -2.48830      0.400000           0   0.00000       0.00000    
     10840 MEOH     557      MEOH     HO1      HDP1A    0.360000       1.00800           0   0.00000       0.00000    
     10841 MEOH     557      MEOH     HO2      DUMH      0.00000       1.00800           0   0.00000       0.00000    
     10842 MEOH     557      MEOH     H1A      HDA3B    0.800000E-01   1.00800           0   0.00000       0.00000    
     10843 MEOH     557      MEOH     H1B      HDA3B    0.800000E-01   1.00800           0   0.00000       0.00000    
     10844 MEOH     557      MEOH     H1C      HDA3B    0.800000E-01   1.00800           0   0.00000       0.00000    
     10845 MEOH     557      MEOH     LP1A     LPD     -0.230000       0.00000          -1   0.00000       0.00000    
     10846 MEOH     557      MEOH     LP1B     LPD     -0.230000       0.00000          -1   0.00000       0.00000    
     10847 MEOH     558      MEOH     C1       CD33B     2.31410       11.6110           0  -1.00000       1.30000    
     10848 MEOH     558      MEOH     DC1      DRUD     -2.45410      0.400000           0   0.00000       0.00000    
     10849 MEOH     558      MEOH     O1       OD31H     2.48830       15.5990           0  -1.02800       1.30000    
     10850 MEOH     558      MEOH     DO1      DRUD     -2.48830      0.400000           0   0.00000       0.00000    
     10851 MEOH     558      MEOH     HO1      HDP1A    0.360000       1.00800           0   0.00000       0.00000    
     10852 MEOH     558      MEOH     HO2      DUMH      0.00000       1.00800           0   0.00000       0.00000    
     10853 MEOH     558      MEOH     H1A      HDA3B    0.800000E-01   1.00800           0   0.00000       0.00000    
     10854 MEOH     558      MEOH     H1B      HDA3B    0.800000E-01   1.00800           0   0.00000       0.00000    
     10855 MEOH     558      MEOH     H1C      HDA3B    0.800000E-01   1.00800           0   0.00000       0.00000    
     10856 MEOH     558      MEOH     LP1A     LPD     -0.230000       0.00000          -1   0.00000       0.00000    
     10857 MEOH     558      MEOH     LP1B     LPD     -0.230000       0.00000          -1   0.00000       0.00000    
     10858 MEOH     559      MEOH     C1       CD33B     2.31410       11.6110           0  -1.00000       1.30000    
     10859 MEOH     559      MEOH     DC1      DRUD     -2.45410      0.400000           0   0.00000       0.00000    
     10860 MEOH     559      MEOH     O1       OD31H     2.48830       15.5990           0  -1.02800       1.30000    
     10861 MEOH     559      MEOH     DO1      DRUD     -2.48830      0.400000           0   0.00000       0.00000    
     10862 MEOH     559      MEOH     HO1      HDP1A    0.360000       1.00800           0   0.00000       0.00000    
     10863 MEOH     559      MEOH     HO2      DUMH      0.00000       1.00800           0   0.00000       0.00000    
     10864 MEOH     559      MEOH     H1A      HDA3B    0.800000E-01   1.00800           0   0.00000       0.00000    
     10865 MEOH     559      MEOH     H1B      HDA3B    0.800000E-01   1.00800           0   0.00000       0.00000    
     10866 MEOH     559      MEOH     H1C      HDA3B    0.800000E-01   1.00800           0   0.00000       0.00000    
     10867 MEOH     559      MEOH     LP1A     LPD     -0.230000       0.00000          -1   0.00000       0.00000    
     10868 MEOH     559      MEOH     LP1B     LPD     -0.230000       0.00000          -1   0.00000       0.00000    
     10869 MEOH     560      MEOH     C1       CD33B     2.31410       11.6110           0  -1.00000       1.30000    
     10870 MEOH     560      MEOH     DC1      DRUD     -2.45410      0.400000           0   0.00000       0.00000    
     10871 MEOH     560      MEOH     O1       OD31H     2.48830       15.5990           0  -1.02800       1.30000    
     10872 MEOH     560      MEOH     DO1      DRUD     -2.48830      0.400000           0   0.00000       0.00000    
     10873 MEOH     560      MEOH     HO1      HDP1A    0.360000       1.00800           0   0.00000       0.00000    
     10874 MEOH     560      MEOH     HO2      DUMH      0.00000       1.00800           0   0.00000       0.00000    
     10875 MEOH     560      MEOH     H1A      HDA3B    0.800000E-01   1.00800           0   0.00000       0.00000    
     10876 MEOH     560      MEOH     H1B      HDA3B    0.800000E-01   1.00800           0   0.00000       0.00000    
     10877 MEOH     560      MEOH     H1C      HDA3B    0.800000E-01   1.00800           0   0.00000       0.00000    
     10878 MEOH     560      MEOH     LP1A     LPD     -0.230000       0.00000          -1   0.00000       0.00000    
     10879 MEOH     560      MEOH     LP1B     LPD     -0.230000       0.00000          -1   0.00000       0.00000    
     10880 MEOH     561      MEOH     C1       CD33B     2.31410       11.6110           0  -1.00000       1.30000    
     10881 MEOH     561      MEOH     DC1      DRUD     -2.45410      0.400000           0   0.00000       0.00000    
     10882 MEOH     561      MEOH     O1       OD31H     2.48830       15.5990           0  -1.02800       1.30000    
     10883 MEOH     561      MEOH     DO1      DRUD     -2.48830      0.400000           0   0.00000       0.00000    
     10884 MEOH     561      MEOH     HO1      HDP1A    0.360000       1.00800           0   0.00000       0.00000    
     10885 MEOH     561      MEOH     HO2      DUMH      0.00000       1.00800           0   0.00000       0.00000    
     10886 MEOH     561      MEOH     H1A      HDA3B    0.800000E-01   1.00800           0   0.00000       0.00000    
     10887 MEOH     561      MEOH     H1B      HDA3B    0.800000E-01   1.00800           0   0.00000       0.00000    
     10888 MEOH     561      MEOH     H1C      HDA3B    0.800000E-01   1.00800           0   0.00000       0.00000    
     10889 MEOH     561      MEOH     LP1A     LPD     -0.230000       0.00000          -1   0.00000       0.00000    
     10890 MEOH     561      MEOH     LP1B     LPD     -0.230000       0.00000          -1   0.00000       0.00000    
     10891 MEOH     562      MEOH     C1       CD33B     2.31410       11.6110           0  -1.00000       1.30000    
     10892 MEOH     562      MEOH     DC1      DRUD     -2.45410      0.400000           0   0.00000       0.00000    
     10893 MEOH     562      MEOH     O1       OD31H     2.48830       15.5990           0  -1.02800       1.30000    
     10894 MEOH     562      MEOH     DO1      DRUD     -2.48830      0.400000           0   0.00000       0.00000    
     10895 MEOH     562      MEOH     HO1      HDP1A    0.360000       1.00800           0   0.00000       0.00000    
     10896 MEOH     562      MEOH     HO2      DUMH      0.00000       1.00800           0   0.00000       0.00000    
     10897 MEOH     562      MEOH     H1A      HDA3B    0.800000E-01   1.00800           0   0.00000       0.00000    
     10898 MEOH     562      MEOH     H1B      HDA3B    0.800000E-01   1.00800           0   0.00000       0.00000    
     10899 MEOH     562      MEOH     H1C      HDA3B    0.800000E-01   1.00800           0   0.00000       0.00000    
     10900 MEOH     562      MEOH     LP1A     LPD     -0.230000       0.00000          -1   0.00000       0.00000    
     10901 MEOH     562      MEOH     LP1B     LPD     -0.230000       0.00000          -1   0.00000       0.00000    
     10902 MEOH     563      MEOH     C1       CD33B     2.31410       11.6110           0  -1.00000       1.30000    
     10903 MEOH     563      MEOH     DC1      DRUD     -2.45410      0.400000           0   0.00000       0.00000    
     10904 MEOH     563      MEOH     O1       OD31H     2.48830       15.5990           0  -1.02800       1.30000    
     10905 MEOH     563      MEOH     DO1      DRUD     -2.48830      0.400000           0   0.00000       0.00000    
     10906 MEOH     563      MEOH     HO1      HDP1A    0.360000       1.00800           0   0.00000       0.00000    
     10907 MEOH     563      MEOH     HO2      DUMH      0.00000       1.00800           0   0.00000       0.00000    
     10908 MEOH     563      MEOH     H1A      HDA3B    0.800000E-01   1.00800           0   0.00000       0.00000    
     10909 MEOH     563      MEOH     H1B      HDA3B    0.800000E-01   1.00800           0   0.00000       0.00000    
     10910 MEOH     563      MEOH     H1C      HDA3B    0.800000E-01   1.00800           0   0.00000       0.00000    
     10911 MEOH     563      MEOH     LP1A     LPD     -0.230000       0.00000          -1   0.00000       0.00000    
     10912 MEOH     563      MEOH     LP1B     LPD     -0.230000       0.00000          -1   0.00000       0.00000    
     10913 MEOH     564      MEOH     C1       CD33B     2.31410       11.6110           0  -1.00000       1.30000    
     10914 MEOH     564      MEOH     DC1      DRUD     -2.45410      0.400000           0   0.00000       0.00000    
     10915 MEOH     564      MEOH     O1       OD31H     2.48830       15.5990           0  -1.02800       1.30000    
     10916 MEOH     564      MEOH     DO1      DRUD     -2.48830      0.400000           0   0.00000       0.00000    
     10917 MEOH     564      MEOH     HO1      HDP1A    0.360000       1.00800           0   0.00000       0.00000    
     10918 MEOH     564      MEOH     HO2      DUMH      0.00000       1.00800           0   0.00000       0.00000    
     10919 MEOH     564      MEOH     H1A      HDA3B    0.800000E-01   1.00800           0   0.00000       0.00000    
     10920 MEOH     564      MEOH     H1B      HDA3B    0.800000E-01   1.00800           0   0.00000       0.00000    
     10921 MEOH     564      MEOH     H1C      HDA3B    0.800000E-01   1.00800           0   0.00000       0.00000    
     10922 MEOH     564      MEOH     LP1A     LPD     -0.230000       0.00000          -1   0.00000       0.00000    
     10923 MEOH     564      MEOH     LP1B     LPD     -0.230000       0.00000          -1   0.00000       0.00000    
     10924 MEOH     565      MEOH     C1       CD33B     2.31410       11.6110           0  -1.00000       1.30000    
     10925 MEOH     565      MEOH     DC1      DRUD     -2.45410      0.400000           0   0.00000       0.00000    
     10926 MEOH     565      MEOH     O1       OD31H     2.48830       15.5990           0  -1.02800       1.30000    
     10927 MEOH     565      MEOH     DO1      DRUD     -2.48830      0.400000           0   0.00000       0.00000    
     10928 MEOH     565      MEOH     HO1      HDP1A    0.360000       1.00800           0   0.00000       0.00000    
     10929 MEOH     565      MEOH     HO2      DUMH      0.00000       1.00800           0   0.00000       0.00000    
     10930 MEOH     565      MEOH     H1A      HDA3B    0.800000E-01   1.00800           0   0.00000       0.00000    
     10931 MEOH     565      MEOH     H1B      HDA3B    0.800000E-01   1.00800           0   0.00000       0.00000    
     10932 MEOH     565      MEOH     H1C      HDA3B    0.800000E-01   1.00800           0   0.00000       0.00000    
     10933 MEOH     565      MEOH     LP1A     LPD     -0.230000       0.00000          -1   0.00000       0.00000    
     10934 MEOH     565      MEOH     LP1B     LPD     -0.230000       0.00000          -1   0.00000       0.00000    
     10935 MEOH     566      MEOH     C1       CD33B     2.31410       11.6110           0  -1.00000       1.30000    
     10936 MEOH     566      MEOH     DC1      DRUD     -2.45410      0.400000           0   0.00000       0.00000    
     10937 MEOH     566      MEOH     O1       OD31H     2.48830       15.5990           0  -1.02800       1.30000    
     10938 MEOH     566      MEOH     DO1      DRUD     -2.48830      0.400000           0   0.00000       0.00000    
     10939 MEOH     566      MEOH     HO1      HDP1A    0.360000       1.00800           0   0.00000       0.00000    
     10940 MEOH     566      MEOH     HO2      DUMH      0.00000       1.00800           0   0.00000       0.00000    
     10941 MEOH     566      MEOH     H1A      HDA3B    0.800000E-01   1.00800           0   0.00000       0.00000    
     10942 MEOH     566      MEOH     H1B      HDA3B    0.800000E-01   1.00800           0   0.00000       0.00000    
     10943 MEOH     566      MEOH     H1C      HDA3B    0.800000E-01   1.00800           0   0.00000       0.00000    
     10944 MEOH     566      MEOH     LP1A     LPD     -0.230000       0.00000          -1   0.00000       0.00000    
     10945 MEOH     566      MEOH     LP1B     LPD     -0.230000       0.00000          -1   0.00000       0.00000    
     10946 MEOH     567      MEOH     C1       CD33B     2.31410       11.6110           0  -1.00000       1.30000    
     10947 MEOH     567      MEOH     DC1      DRUD     -2.45410      0.400000           0   0.00000       0.00000    
     10948 MEOH     567      MEOH     O1       OD31H     2.48830       15.5990           0  -1.02800       1.30000    
     10949 MEOH     567      MEOH     DO1      DRUD     -2.48830      0.400000           0   0.00000       0.00000    
     10950 MEOH     567      MEOH     HO1      HDP1A    0.360000       1.00800           0   0.00000       0.00000    
     10951 MEOH     567      MEOH     HO2      DUMH      0.00000       1.00800           0   0.00000       0.00000    
     10952 MEOH     567      MEOH     H1A      HDA3B    0.800000E-01   1.00800           0   0.00000       0.00000    
     10953 MEOH     567      MEOH     H1B      HDA3B    0.800000E-01   1.00800           0   0.00000       0.00000    
     10954 MEOH     567      MEOH     H1C      HDA3B    0.800000E-01   1.00800           0   0.00000       0.00000    
     10955 MEOH     567      MEOH     LP1A     LPD     -0.230000       0.00000          -1   0.00000       0.00000    
     10956 MEOH     567      MEOH     LP1B     LPD     -0.230000       0.00000          -1   0.00000       0.00000    
     10957 MEOH     568      MEOH     C1       CD33B     2.31410       11.6110           0  -1.00000       1.30000    
     10958 MEOH     568      MEOH     DC1      DRUD     -2.45410      0.400000           0   0.00000       0.00000    
     10959 MEOH     568      MEOH     O1       OD31H     2.48830       15.5990           0  -1.02800       1.30000    
     10960 MEOH     568      MEOH     DO1      DRUD     -2.48830      0.400000           0   0.00000       0.00000    
     10961 MEOH     568      MEOH     HO1      HDP1A    0.360000       1.00800           0   0.00000       0.00000    
     10962 MEOH     568      MEOH     HO2      DUMH      0.00000       1.00800           0   0.00000       0.00000    
     10963 MEOH     568      MEOH     H1A      HDA3B    0.800000E-01   1.00800           0   0.00000       0.00000    
     10964 MEOH     568      MEOH     H1B      HDA3B    0.800000E-01   1.00800           0   0.00000       0.00000    
     10965 MEOH     568      MEOH     H1C      HDA3B    0.800000E-01   1.00800           0   0.00000       0.00000    
     10966 MEOH     568      MEOH     LP1A     LPD     -0.230000       0.00000          -1   0.00000       0.00000    
     10967 MEOH     568      MEOH     LP1B     LPD     -0.230000       0.00000          -1   0.00000       0.00000    
     10968 MEOH     569      MEOH     C1       CD33B     2.31410       11.6110           0  -1.00000       1.30000    
     10969 MEOH     569      MEOH     DC1      DRUD     -2.45410      0.400000           0   0.00000       0.00000    
     10970 MEOH     569      MEOH     O1       OD31H     2.48830       15.5990           0  -1.02800       1.30000    
     10971 MEOH     569      MEOH     DO1      DRUD     -2.48830      0.400000           0   0.00000       0.00000    
     10972 MEOH     569      MEOH     HO1      HDP1A    0.360000       1.00800           0   0.00000       0.00000    
     10973 MEOH     569      MEOH     HO2      DUMH      0.00000       1.00800           0   0.00000       0.00000    
     10974 MEOH     569      MEOH     H1A      HDA3B    0.800000E-01   1.00800           0   0.00000       0.00000    
     10975 MEOH     569      MEOH     H1B      HDA3B    0.800000E-01   1.00800           0   0.00000       0.00000    
     10976 MEOH     569      MEOH     H1C      HDA3B    0.800000E-01   1.00800           0   0.00000       0.00000    
     10977 MEOH     569      MEOH     LP1A     LPD     -0.230000       0.00000          -1   0.00000       0.00000    
     10978 MEOH     569      MEOH     LP1B     LPD     -0.230000       0.00000          -1   0.00000       0.00000    
     10979 MEOH     570      MEOH     C1       CD33B     2.31410       11.6110           0  -1.00000       1.30000    
     10980 MEOH     570      MEOH     DC1      DRUD     -2.45410      0.400000           0   0.00000       0.00000    
     10981 MEOH     570      MEOH     O1       OD31H     2.48830       15.5990           0  -1.02800       1.30000    
     10982 MEOH     570      MEOH     DO1      DRUD     -2.48830      0.400000           0   0.00000       0.00000    
     10983 MEOH     570      MEOH     HO1      HDP1A    0.360000       1.00800           0   0.00000       0.00000    
     10984 MEOH     570      MEOH     HO2      DUMH      0.00000       1.00800           0   0.00000       0.00000    
     10985 MEOH     570      MEOH     H1A      HDA3B    0.800000E-01   1.00800           0   0.00000       0.00000    
     10986 MEOH     570      MEOH     H1B      HDA3B    0.800000E-01   1.00800           0   0.00000       0.00000    
     10987 MEOH     570      MEOH     H1C      HDA3B    0.800000E-01   1.00800           0   0.00000       0.00000    
     10988 MEOH     570      MEOH     LP1A     LPD     -0.230000       0.00000          -1   0.00000       0.00000    
     10989 MEOH     570      MEOH     LP1B     LPD     -0.230000       0.00000          -1   0.00000       0.00000    
     10990 MEOH     571      MEOH     C1       CD33B     2.31410       11.6110           0  -1.00000       1.30000    
     10991 MEOH     571      MEOH     DC1      DRUD     -2.45410      0.400000           0   0.00000       0.00000    
     10992 MEOH     571      MEOH     O1       OD31H     2.48830       15.5990           0  -1.02800       1.30000    
     10993 MEOH     571      MEOH     DO1      DRUD     -2.48830      0.400000           0   0.00000       0.00000    
     10994 MEOH     571      MEOH     HO1      HDP1A    0.360000       1.00800           0   0.00000       0.00000    
     10995 MEOH     571      MEOH     HO2      DUMH      0.00000       1.00800           0   0.00000       0.00000    
     10996 MEOH     571      MEOH     H1A      HDA3B    0.800000E-01   1.00800           0   0.00000       0.00000    
     10997 MEOH     571      MEOH     H1B      HDA3B    0.800000E-01   1.00800           0   0.00000       0.00000    
     10998 MEOH     571      MEOH     H1C      HDA3B    0.800000E-01   1.00800           0   0.00000       0.00000    
     10999 MEOH     571      MEOH     LP1A     LPD     -0.230000       0.00000          -1   0.00000       0.00000    
     11000 MEOH     571      MEOH     LP1B     LPD     -0.230000       0.00000          -1   0.00000       0.00000    
     11001 MEOH     572      MEOH     C1       CD33B     2.31410       11.6110           0  -1.00000       1.30000    
     11002 MEOH     572      MEOH     DC1      DRUD     -2.45410      0.400000           0   0.00000       0.00000    
     11003 MEOH     572      MEOH     O1       OD31H     2.48830       15.5990           0  -1.02800       1.30000    
     11004 MEOH     572      MEOH     DO1      DRUD     -2.48830      0.400000           0   0.00000       0.00000    
     11005 MEOH     572      MEOH     HO1      HDP1A    0.360000       1.00800           0   0.00000       0.00000    
     11006 MEOH     572      MEOH     HO2      DUMH      0.00000       1.00800           0   0.00000       0.00000    
     11007 MEOH     572      MEOH     H1A      HDA3B    0.800000E-01   1.00800           0   0.00000       0.00000    
     11008 MEOH     572      MEOH     H1B      HDA3B    0.800000E-01   1.00800           0   0.00000       0.00000    
     11009 MEOH     572      MEOH     H1C      HDA3B    0.800000E-01   1.00800           0   0.00000       0.00000    
     11010 MEOH     572      MEOH     LP1A     LPD     -0.230000       0.00000          -1   0.00000       0.00000    
     11011 MEOH     572      MEOH     LP1B     LPD     -0.230000       0.00000          -1   0.00000       0.00000    
     11012 MEOH     573      MEOH     C1       CD33B     2.31410       11.6110           0  -1.00000       1.30000    
     11013 MEOH     573      MEOH     DC1      DRUD     -2.45410      0.400000           0   0.00000       0.00000    
     11014 MEOH     573      MEOH     O1       OD31H     2.48830       15.5990           0  -1.02800       1.30000    
     11015 MEOH     573      MEOH     DO1      DRUD     -2.48830      0.400000           0   0.00000       0.00000    
     11016 MEOH     573      MEOH     HO1      HDP1A    0.360000       1.00800           0   0.00000       0.00000    
     11017 MEOH     573      MEOH     HO2      DUMH      0.00000       1.00800           0   0.00000       0.00000    
     11018 MEOH     573      MEOH     H1A      HDA3B    0.800000E-01   1.00800           0   0.00000       0.00000    
     11019 MEOH     573      MEOH     H1B      HDA3B    0.800000E-01   1.00800           0   0.00000       0.00000    
     11020 MEOH     573      MEOH     H1C      HDA3B    0.800000E-01   1.00800           0   0.00000       0.00000    
     11021 MEOH     573      MEOH     LP1A     LPD     -0.230000       0.00000          -1   0.00000       0.00000    
     11022 MEOH     573      MEOH     LP1B     LPD     -0.230000       0.00000          -1   0.00000       0.00000    
     11023 MEOH     574      MEOH     C1       CD33B     2.31410       11.6110           0  -1.00000       1.30000    
     11024 MEOH     574      MEOH     DC1      DRUD     -2.45410      0.400000           0   0.00000       0.00000    
     11025 MEOH     574      MEOH     O1       OD31H     2.48830       15.5990           0  -1.02800       1.30000    
     11026 MEOH     574      MEOH     DO1      DRUD     -2.48830      0.400000           0   0.00000       0.00000    
     11027 MEOH     574      MEOH     HO1      HDP1A    0.360000       1.00800           0   0.00000       0.00000    
     11028 MEOH     574      MEOH     HO2      DUMH      0.00000       1.00800           0   0.00000       0.00000    
     11029 MEOH     574      MEOH     H1A      HDA3B    0.800000E-01   1.00800           0   0.00000       0.00000    
     11030 MEOH     574      MEOH     H1B      HDA3B    0.800000E-01   1.00800           0   0.00000       0.00000    
     11031 MEOH     574      MEOH     H1C      HDA3B    0.800000E-01   1.00800           0   0.00000       0.00000    
     11032 MEOH     574      MEOH     LP1A     LPD     -0.230000       0.00000          -1   0.00000       0.00000    
     11033 MEOH     574      MEOH     LP1B     LPD     -0.230000       0.00000          -1   0.00000       0.00000    
     11034 MEOH     575      MEOH     C1       CD33B     2.31410       11.6110           0  -1.00000       1.30000    
     11035 MEOH     575      MEOH     DC1      DRUD     -2.45410      0.400000           0   0.00000       0.00000    
     11036 MEOH     575      MEOH     O1       OD31H     2.48830       15.5990           0  -1.02800       1.30000    
     11037 MEOH     575      MEOH     DO1      DRUD     -2.48830      0.400000           0   0.00000       0.00000    
     11038 MEOH     575      MEOH     HO1      HDP1A    0.360000       1.00800           0   0.00000       0.00000    
     11039 MEOH     575      MEOH     HO2      DUMH      0.00000       1.00800           0   0.00000       0.00000    
     11040 MEOH     575      MEOH     H1A      HDA3B    0.800000E-01   1.00800           0   0.00000       0.00000    
     11041 MEOH     575      MEOH     H1B      HDA3B    0.800000E-01   1.00800           0   0.00000       0.00000    
     11042 MEOH     575      MEOH     H1C      HDA3B    0.800000E-01   1.00800           0   0.00000       0.00000    
     11043 MEOH     575      MEOH     LP1A     LPD     -0.230000       0.00000          -1   0.00000       0.00000    
     11044 MEOH     575      MEOH     LP1B     LPD     -0.230000       0.00000          -1   0.00000       0.00000    
     11045 MEOH     576      MEOH     C1       CD33B     2.31410       11.6110           0  -1.00000       1.30000    
     11046 MEOH     576      MEOH     DC1      DRUD     -2.45410      0.400000           0   0.00000       0.00000    
     11047 MEOH     576      MEOH     O1       OD31H     2.48830       15.5990           0  -1.02800       1.30000    
     11048 MEOH     576      MEOH     DO1      DRUD     -2.48830      0.400000           0   0.00000       0.00000    
     11049 MEOH     576      MEOH     HO1      HDP1A    0.360000       1.00800           0   0.00000       0.00000    
     11050 MEOH     576      MEOH     HO2      DUMH      0.00000       1.00800           0   0.00000       0.00000    
     11051 MEOH     576      MEOH     H1A      HDA3B    0.800000E-01   1.00800           0   0.00000       0.00000    
     11052 MEOH     576      MEOH     H1B      HDA3B    0.800000E-01   1.00800           0   0.00000       0.00000    
     11053 MEOH     576      MEOH     H1C      HDA3B    0.800000E-01   1.00800           0   0.00000       0.00000    
     11054 MEOH     576      MEOH     LP1A     LPD     -0.230000       0.00000          -1   0.00000       0.00000    
     11055 MEOH     576      MEOH     LP1B     LPD     -0.230000       0.00000          -1   0.00000       0.00000    
     11056 MEOH     577      MEOH     C1       CD33B     2.31410       11.6110           0  -1.00000       1.30000    
     11057 MEOH     577      MEOH     DC1      DRUD     -2.45410      0.400000           0   0.00000       0.00000    
     11058 MEOH     577      MEOH     O1       OD31H     2.48830       15.5990           0  -1.02800       1.30000    
     11059 MEOH     577      MEOH     DO1      DRUD     -2.48830      0.400000           0   0.00000       0.00000    
     11060 MEOH     577      MEOH     HO1      HDP1A    0.360000       1.00800           0   0.00000       0.00000    
     11061 MEOH     577      MEOH     HO2      DUMH      0.00000       1.00800           0   0.00000       0.00000    
     11062 MEOH     577      MEOH     H1A      HDA3B    0.800000E-01   1.00800           0   0.00000       0.00000    
     11063 MEOH     577      MEOH     H1B      HDA3B    0.800000E-01   1.00800           0   0.00000       0.00000    
     11064 MEOH     577      MEOH     H1C      HDA3B    0.800000E-01   1.00800           0   0.00000       0.00000    
     11065 MEOH     577      MEOH     LP1A     LPD     -0.230000       0.00000          -1   0.00000       0.00000    
     11066 MEOH     577      MEOH     LP1B     LPD     -0.230000       0.00000          -1   0.00000       0.00000    
     11067 MEOH     578      MEOH     C1       CD33B     2.31410       11.6110           0  -1.00000       1.30000    
     11068 MEOH     578      MEOH     DC1      DRUD     -2.45410      0.400000           0   0.00000       0.00000    
     11069 MEOH     578      MEOH     O1       OD31H     2.48830       15.5990           0  -1.02800       1.30000    
     11070 MEOH     578      MEOH     DO1      DRUD     -2.48830      0.400000           0   0.00000       0.00000    
     11071 MEOH     578      MEOH     HO1      HDP1A    0.360000       1.00800           0   0.00000       0.00000    
     11072 MEOH     578      MEOH     HO2      DUMH      0.00000       1.00800           0   0.00000       0.00000    
     11073 MEOH     578      MEOH     H1A      HDA3B    0.800000E-01   1.00800           0   0.00000       0.00000    
     11074 MEOH     578      MEOH     H1B      HDA3B    0.800000E-01   1.00800           0   0.00000       0.00000    
     11075 MEOH     578      MEOH     H1C      HDA3B    0.800000E-01   1.00800           0   0.00000       0.00000    
     11076 MEOH     578      MEOH     LP1A     LPD     -0.230000       0.00000          -1   0.00000       0.00000    
     11077 MEOH     578      MEOH     LP1B     LPD     -0.230000       0.00000          -1   0.00000       0.00000    
     11078 MEOH     579      MEOH     C1       CD33B     2.31410       11.6110           0  -1.00000       1.30000    
     11079 MEOH     579      MEOH     DC1      DRUD     -2.45410      0.400000           0   0.00000       0.00000    
     11080 MEOH     579      MEOH     O1       OD31H     2.48830       15.5990           0  -1.02800       1.30000    
     11081 MEOH     579      MEOH     DO1      DRUD     -2.48830      0.400000           0   0.00000       0.00000    
     11082 MEOH     579      MEOH     HO1      HDP1A    0.360000       1.00800           0   0.00000       0.00000    
     11083 MEOH     579      MEOH     HO2      DUMH      0.00000       1.00800           0   0.00000       0.00000    
     11084 MEOH     579      MEOH     H1A      HDA3B    0.800000E-01   1.00800           0   0.00000       0.00000    
     11085 MEOH     579      MEOH     H1B      HDA3B    0.800000E-01   1.00800           0   0.00000       0.00000    
     11086 MEOH     579      MEOH     H1C      HDA3B    0.800000E-01   1.00800           0   0.00000       0.00000    
     11087 MEOH     579      MEOH     LP1A     LPD     -0.230000       0.00000          -1   0.00000       0.00000    
     11088 MEOH     579      MEOH     LP1B     LPD     -0.230000       0.00000          -1   0.00000       0.00000    
     11089 MEOH     580      MEOH     C1       CD33B     2.31410       11.6110           0  -1.00000       1.30000    
     11090 MEOH     580      MEOH     DC1      DRUD     -2.45410      0.400000           0   0.00000       0.00000    
     11091 MEOH     580      MEOH     O1       OD31H     2.48830       15.5990           0  -1.02800       1.30000    
     11092 MEOH     580      MEOH     DO1      DRUD     -2.48830      0.400000           0   0.00000       0.00000    
     11093 MEOH     580      MEOH     HO1      HDP1A    0.360000       1.00800           0   0.00000       0.00000    
     11094 MEOH     580      MEOH     HO2      DUMH      0.00000       1.00800           0   0.00000       0.00000    
     11095 MEOH     580      MEOH     H1A      HDA3B    0.800000E-01   1.00800           0   0.00000       0.00000    
     11096 MEOH     580      MEOH     H1B      HDA3B    0.800000E-01   1.00800           0   0.00000       0.00000    
     11097 MEOH     580      MEOH     H1C      HDA3B    0.800000E-01   1.00800           0   0.00000       0.00000    
     11098 MEOH     580      MEOH     LP1A     LPD     -0.230000       0.00000          -1   0.00000       0.00000    
     11099 MEOH     580      MEOH     LP1B     LPD     -0.230000       0.00000          -1   0.00000       0.00000    
     11100 MEOH     581      MEOH     C1       CD33B     2.31410       11.6110           0  -1.00000       1.30000    
     11101 MEOH     581      MEOH     DC1      DRUD     -2.45410      0.400000           0   0.00000       0.00000    
     11102 MEOH     581      MEOH     O1       OD31H     2.48830       15.5990           0  -1.02800       1.30000    
     11103 MEOH     581      MEOH     DO1      DRUD     -2.48830      0.400000           0   0.00000       0.00000    
     11104 MEOH     581      MEOH     HO1      HDP1A    0.360000       1.00800           0   0.00000       0.00000    
     11105 MEOH     581      MEOH     HO2      DUMH      0.00000       1.00800           0   0.00000       0.00000    
     11106 MEOH     581      MEOH     H1A      HDA3B    0.800000E-01   1.00800           0   0.00000       0.00000    
     11107 MEOH     581      MEOH     H1B      HDA3B    0.800000E-01   1.00800           0   0.00000       0.00000    
     11108 MEOH     581      MEOH     H1C      HDA3B    0.800000E-01   1.00800           0   0.00000       0.00000    
     11109 MEOH     581      MEOH     LP1A     LPD     -0.230000       0.00000          -1   0.00000       0.00000    
     11110 MEOH     581      MEOH     LP1B     LPD     -0.230000       0.00000          -1   0.00000       0.00000    
     11111 MEOH     582      MEOH     C1       CD33B     2.31410       11.6110           0  -1.00000       1.30000    
     11112 MEOH     582      MEOH     DC1      DRUD     -2.45410      0.400000           0   0.00000       0.00000    
     11113 MEOH     582      MEOH     O1       OD31H     2.48830       15.5990           0  -1.02800       1.30000    
     11114 MEOH     582      MEOH     DO1      DRUD     -2.48830      0.400000           0   0.00000       0.00000    
     11115 MEOH     582      MEOH     HO1      HDP1A    0.360000       1.00800           0   0.00000       0.00000    
     11116 MEOH     582      MEOH     HO2      DUMH      0.00000       1.00800           0   0.00000       0.00000    
     11117 MEOH     582      MEOH     H1A      HDA3B    0.800000E-01   1.00800           0   0.00000       0.00000    
     11118 MEOH     582      MEOH     H1B      HDA3B    0.800000E-01   1.00800           0   0.00000       0.00000    
     11119 MEOH     582      MEOH     H1C      HDA3B    0.800000E-01   1.00800           0   0.00000       0.00000    
     11120 MEOH     582      MEOH     LP1A     LPD     -0.230000       0.00000          -1   0.00000       0.00000    
     11121 MEOH     582      MEOH     LP1B     LPD     -0.230000       0.00000          -1   0.00000       0.00000    
     11122 MEOH     583      MEOH     C1       CD33B     2.31410       11.6110           0  -1.00000       1.30000    
     11123 MEOH     583      MEOH     DC1      DRUD     -2.45410      0.400000           0   0.00000       0.00000    
     11124 MEOH     583      MEOH     O1       OD31H     2.48830       15.5990           0  -1.02800       1.30000    
     11125 MEOH     583      MEOH     DO1      DRUD     -2.48830      0.400000           0   0.00000       0.00000    
     11126 MEOH     583      MEOH     HO1      HDP1A    0.360000       1.00800           0   0.00000       0.00000    
     11127 MEOH     583      MEOH     HO2      DUMH      0.00000       1.00800           0   0.00000       0.00000    
     11128 MEOH     583      MEOH     H1A      HDA3B    0.800000E-01   1.00800           0   0.00000       0.00000    
     11129 MEOH     583      MEOH     H1B      HDA3B    0.800000E-01   1.00800           0   0.00000       0.00000    
     11130 MEOH     583      MEOH     H1C      HDA3B    0.800000E-01   1.00800           0   0.00000       0.00000    
     11131 MEOH     583      MEOH     LP1A     LPD     -0.230000       0.00000          -1   0.00000       0.00000    
     11132 MEOH     583      MEOH     LP1B     LPD     -0.230000       0.00000          -1   0.00000       0.00000    
     11133 MEOH     584      MEOH     C1       CD33B     2.31410       11.6110           0  -1.00000       1.30000    
     11134 MEOH     584      MEOH     DC1      DRUD     -2.45410      0.400000           0   0.00000       0.00000    
     11135 MEOH     584      MEOH     O1       OD31H     2.48830       15.5990           0  -1.02800       1.30000    
     11136 MEOH     584      MEOH     DO1      DRUD     -2.48830      0.400000           0   0.00000       0.00000    
     11137 MEOH     584      MEOH     HO1      HDP1A    0.360000       1.00800           0   0.00000       0.00000    
     11138 MEOH     584      MEOH     HO2      DUMH      0.00000       1.00800           0   0.00000       0.00000    
     11139 MEOH     584      MEOH     H1A      HDA3B    0.800000E-01   1.00800           0   0.00000       0.00000    
     11140 MEOH     584      MEOH     H1B      HDA3B    0.800000E-01   1.00800           0   0.00000       0.00000    
     11141 MEOH     584      MEOH     H1C      HDA3B    0.800000E-01   1.00800           0   0.00000       0.00000    
     11142 MEOH     584      MEOH     LP1A     LPD     -0.230000       0.00000          -1   0.00000       0.00000    
     11143 MEOH     584      MEOH     LP1B     LPD     -0.230000       0.00000          -1   0.00000       0.00000    
     11144 MEOH     585      MEOH     C1       CD33B     2.31410       11.6110           0  -1.00000       1.30000    
     11145 MEOH     585      MEOH     DC1      DRUD     -2.45410      0.400000           0   0.00000       0.00000    
     11146 MEOH     585      MEOH     O1       OD31H     2.48830       15.5990           0  -1.02800       1.30000    
     11147 MEOH     585      MEOH     DO1      DRUD     -2.48830      0.400000           0   0.00000       0.00000    
     11148 MEOH     585      MEOH     HO1      HDP1A    0.360000       1.00800           0   0.00000       0.00000    
     11149 MEOH     585      MEOH     HO2      DUMH      0.00000       1.00800           0   0.00000       0.00000    
     11150 MEOH     585      MEOH     H1A      HDA3B    0.800000E-01   1.00800           0   0.00000       0.00000    
     11151 MEOH     585      MEOH     H1B      HDA3B    0.800000E-01   1.00800           0   0.00000       0.00000    
     11152 MEOH     585      MEOH     H1C      HDA3B    0.800000E-01   1.00800           0   0.00000       0.00000    
     11153 MEOH     585      MEOH     LP1A     LPD     -0.230000       0.00000          -1   0.00000       0.00000    
     11154 MEOH     585      MEOH     LP1B     LPD     -0.230000       0.00000          -1   0.00000       0.00000    
     11155 MEOH     586      MEOH     C1       CD33B     2.31410       11.6110           0  -1.00000       1.30000    
     11156 MEOH     586      MEOH     DC1      DRUD     -2.45410      0.400000           0   0.00000       0.00000    
     11157 MEOH     586      MEOH     O1       OD31H     2.48830       15.5990           0  -1.02800       1.30000    
     11158 MEOH     586      MEOH     DO1      DRUD     -2.48830      0.400000           0   0.00000       0.00000    
     11159 MEOH     586      MEOH     HO1      HDP1A    0.360000       1.00800           0   0.00000       0.00000    
     11160 MEOH     586      MEOH     HO2      DUMH      0.00000       1.00800           0   0.00000       0.00000    
     11161 MEOH     586      MEOH     H1A      HDA3B    0.800000E-01   1.00800           0   0.00000       0.00000    
     11162 MEOH     586      MEOH     H1B      HDA3B    0.800000E-01   1.00800           0   0.00000       0.00000    
     11163 MEOH     586      MEOH     H1C      HDA3B    0.800000E-01   1.00800           0   0.00000       0.00000    
     11164 MEOH     586      MEOH     LP1A     LPD     -0.230000       0.00000          -1   0.00000       0.00000    
     11165 MEOH     586      MEOH     LP1B     LPD     -0.230000       0.00000          -1   0.00000       0.00000    
     11166 MEOH     587      MEOH     C1       CD33B     2.31410       11.6110           0  -1.00000       1.30000    
     11167 MEOH     587      MEOH     DC1      DRUD     -2.45410      0.400000           0   0.00000       0.00000    
     11168 MEOH     587      MEOH     O1       OD31H     2.48830       15.5990           0  -1.02800       1.30000    
     11169 MEOH     587      MEOH     DO1      DRUD     -2.48830      0.400000           0   0.00000       0.00000    
     11170 MEOH     587      MEOH     HO1      HDP1A    0.360000       1.00800           0   0.00000       0.00000    
     11171 MEOH     587      MEOH     HO2      DUMH      0.00000       1.00800           0   0.00000       0.00000    
     11172 MEOH     587      MEOH     H1A      HDA3B    0.800000E-01   1.00800           0   0.00000       0.00000    
     11173 MEOH     587      MEOH     H1B      HDA3B    0.800000E-01   1.00800           0   0.00000       0.00000    
     11174 MEOH     587      MEOH     H1C      HDA3B    0.800000E-01   1.00800           0   0.00000       0.00000    
     11175 MEOH     587      MEOH     LP1A     LPD     -0.230000       0.00000          -1   0.00000       0.00000    
     11176 MEOH     587      MEOH     LP1B     LPD     -0.230000       0.00000          -1   0.00000       0.00000    
     11177 MEOH     588      MEOH     C1       CD33B     2.31410       11.6110           0  -1.00000       1.30000    
     11178 MEOH     588      MEOH     DC1      DRUD     -2.45410      0.400000           0   0.00000       0.00000    
     11179 MEOH     588      MEOH     O1       OD31H     2.48830       15.5990           0  -1.02800       1.30000    
     11180 MEOH     588      MEOH     DO1      DRUD     -2.48830      0.400000           0   0.00000       0.00000    
     11181 MEOH     588      MEOH     HO1      HDP1A    0.360000       1.00800           0   0.00000       0.00000    
     11182 MEOH     588      MEOH     HO2      DUMH      0.00000       1.00800           0   0.00000       0.00000    
     11183 MEOH     588      MEOH     H1A      HDA3B    0.800000E-01   1.00800           0   0.00000       0.00000    
     11184 MEOH     588      MEOH     H1B      HDA3B    0.800000E-01   1.00800           0   0.00000       0.00000    
     11185 MEOH     588      MEOH     H1C      HDA3B    0.800000E-01   1.00800           0   0.00000       0.00000    
     11186 MEOH     588      MEOH     LP1A     LPD     -0.230000       0.00000          -1   0.00000       0.00000    
     11187 MEOH     588      MEOH     LP1B     LPD     -0.230000       0.00000          -1   0.00000       0.00000    
     11188 MEOH     589      MEOH     C1       CD33B     2.31410       11.6110           0  -1.00000       1.30000    
     11189 MEOH     589      MEOH     DC1      DRUD     -2.45410      0.400000           0   0.00000       0.00000    
     11190 MEOH     589      MEOH     O1       OD31H     2.48830       15.5990           0  -1.02800       1.30000    
     11191 MEOH     589      MEOH     DO1      DRUD     -2.48830      0.400000           0   0.00000       0.00000    
     11192 MEOH     589      MEOH     HO1      HDP1A    0.360000       1.00800           0   0.00000       0.00000    
     11193 MEOH     589      MEOH     HO2      DUMH      0.00000       1.00800           0   0.00000       0.00000    
     11194 MEOH     589      MEOH     H1A      HDA3B    0.800000E-01   1.00800           0   0.00000       0.00000    
     11195 MEOH     589      MEOH     H1B      HDA3B    0.800000E-01   1.00800           0   0.00000       0.00000    
     11196 MEOH     589      MEOH     H1C      HDA3B    0.800000E-01   1.00800           0   0.00000       0.00000    
     11197 MEOH     589      MEOH     LP1A     LPD     -0.230000       0.00000          -1   0.00000       0.00000    
     11198 MEOH     589      MEOH     LP1B     LPD     -0.230000       0.00000          -1   0.00000       0.00000    
     11199 MEOH     590      MEOH     C1       CD33B     2.31410       11.6110           0  -1.00000       1.30000    
     11200 MEOH     590      MEOH     DC1      DRUD     -2.45410      0.400000           0   0.00000       0.00000    
     11201 MEOH     590      MEOH     O1       OD31H     2.48830       15.5990           0  -1.02800       1.30000    
     11202 MEOH     590      MEOH     DO1      DRUD     -2.48830      0.400000           0   0.00000       0.00000    
     11203 MEOH     590      MEOH     HO1      HDP1A    0.360000       1.00800           0   0.00000       0.00000    
     11204 MEOH     590      MEOH     HO2      DUMH      0.00000       1.00800           0   0.00000       0.00000    
     11205 MEOH     590      MEOH     H1A      HDA3B    0.800000E-01   1.00800           0   0.00000       0.00000    
     11206 MEOH     590      MEOH     H1B      HDA3B    0.800000E-01   1.00800           0   0.00000       0.00000    
     11207 MEOH     590      MEOH     H1C      HDA3B    0.800000E-01   1.00800           0   0.00000       0.00000    
     11208 MEOH     590      MEOH     LP1A     LPD     -0.230000       0.00000          -1   0.00000       0.00000    
     11209 MEOH     590      MEOH     LP1B     LPD     -0.230000       0.00000          -1   0.00000       0.00000    
     11210 MEOH     591      MEOH     C1       CD33B     2.31410       11.6110           0  -1.00000       1.30000    
     11211 MEOH     591      MEOH     DC1      DRUD     -2.45410      0.400000           0   0.00000       0.00000    
     11212 MEOH     591      MEOH     O1       OD31H     2.48830       15.5990           0  -1.02800       1.30000    
     11213 MEOH     591      MEOH     DO1      DRUD     -2.48830      0.400000           0   0.00000       0.00000    
     11214 MEOH     591      MEOH     HO1      HDP1A    0.360000       1.00800           0   0.00000       0.00000    
     11215 MEOH     591      MEOH     HO2      DUMH      0.00000       1.00800           0   0.00000       0.00000    
     11216 MEOH     591      MEOH     H1A      HDA3B    0.800000E-01   1.00800           0   0.00000       0.00000    
     11217 MEOH     591      MEOH     H1B      HDA3B    0.800000E-01   1.00800           0   0.00000       0.00000    
     11218 MEOH     591      MEOH     H1C      HDA3B    0.800000E-01   1.00800           0   0.00000       0.00000    
     11219 MEOH     591      MEOH     LP1A     LPD     -0.230000       0.00000          -1   0.00000       0.00000    
     11220 MEOH     591      MEOH     LP1B     LPD     -0.230000       0.00000          -1   0.00000       0.00000    
     11221 MEOH     592      MEOH     C1       CD33B     2.31410       11.6110           0  -1.00000       1.30000    
     11222 MEOH     592      MEOH     DC1      DRUD     -2.45410      0.400000           0   0.00000       0.00000    
     11223 MEOH     592      MEOH     O1       OD31H     2.48830       15.5990           0  -1.02800       1.30000    
     11224 MEOH     592      MEOH     DO1      DRUD     -2.48830      0.400000           0   0.00000       0.00000    
     11225 MEOH     592      MEOH     HO1      HDP1A    0.360000       1.00800           0   0.00000       0.00000    
     11226 MEOH     592      MEOH     HO2      DUMH      0.00000       1.00800           0   0.00000       0.00000    
     11227 MEOH     592      MEOH     H1A      HDA3B    0.800000E-01   1.00800           0   0.00000       0.00000    
     11228 MEOH     592      MEOH     H1B      HDA3B    0.800000E-01   1.00800           0   0.00000       0.00000    
     11229 MEOH     592      MEOH     H1C      HDA3B    0.800000E-01   1.00800           0   0.00000       0.00000    
     11230 MEOH     592      MEOH     LP1A     LPD     -0.230000       0.00000          -1   0.00000       0.00000    
     11231 MEOH     592      MEOH     LP1B     LPD     -0.230000       0.00000          -1   0.00000       0.00000    
     11232 MEOH     593      MEOH     C1       CD33B     2.31410       11.6110           0  -1.00000       1.30000    
     11233 MEOH     593      MEOH     DC1      DRUD     -2.45410      0.400000           0   0.00000       0.00000    
     11234 MEOH     593      MEOH     O1       OD31H     2.48830       15.5990           0  -1.02800       1.30000    
     11235 MEOH     593      MEOH     DO1      DRUD     -2.48830      0.400000           0   0.00000       0.00000    
     11236 MEOH     593      MEOH     HO1      HDP1A    0.360000       1.00800           0   0.00000       0.00000    
     11237 MEOH     593      MEOH     HO2      DUMH      0.00000       1.00800           0   0.00000       0.00000    
     11238 MEOH     593      MEOH     H1A      HDA3B    0.800000E-01   1.00800           0   0.00000       0.00000    
     11239 MEOH     593      MEOH     H1B      HDA3B    0.800000E-01   1.00800           0   0.00000       0.00000    
     11240 MEOH     593      MEOH     H1C      HDA3B    0.800000E-01   1.00800           0   0.00000       0.00000    
     11241 MEOH     593      MEOH     LP1A     LPD     -0.230000       0.00000          -1   0.00000       0.00000    
     11242 MEOH     593      MEOH     LP1B     LPD     -0.230000       0.00000          -1   0.00000       0.00000    
     11243 MEOH     594      MEOH     C1       CD33B     2.31410       11.6110           0  -1.00000       1.30000    
     11244 MEOH     594      MEOH     DC1      DRUD     -2.45410      0.400000           0   0.00000       0.00000    
     11245 MEOH     594      MEOH     O1       OD31H     2.48830       15.5990           0  -1.02800       1.30000    
     11246 MEOH     594      MEOH     DO1      DRUD     -2.48830      0.400000           0   0.00000       0.00000    
     11247 MEOH     594      MEOH     HO1      HDP1A    0.360000       1.00800           0   0.00000       0.00000    
     11248 MEOH     594      MEOH     HO2      DUMH      0.00000       1.00800           0   0.00000       0.00000    
     11249 MEOH     594      MEOH     H1A      HDA3B    0.800000E-01   1.00800           0   0.00000       0.00000    
     11250 MEOH     594      MEOH     H1B      HDA3B    0.800000E-01   1.00800           0   0.00000       0.00000    
     11251 MEOH     594      MEOH     H1C      HDA3B    0.800000E-01   1.00800           0   0.00000       0.00000    
     11252 MEOH     594      MEOH     LP1A     LPD     -0.230000       0.00000          -1   0.00000       0.00000    
     11253 MEOH     594      MEOH     LP1B     LPD     -0.230000       0.00000          -1   0.00000       0.00000    
     11254 MEOH     595      MEOH     C1       CD33B     2.31410       11.6110           0  -1.00000       1.30000    
     11255 MEOH     595      MEOH     DC1      DRUD     -2.45410      0.400000           0   0.00000       0.00000    
     11256 MEOH     595      MEOH     O1       OD31H     2.48830       15.5990           0  -1.02800       1.30000    
     11257 MEOH     595      MEOH     DO1      DRUD     -2.48830      0.400000           0   0.00000       0.00000    
     11258 MEOH     595      MEOH     HO1      HDP1A    0.360000       1.00800           0   0.00000       0.00000    
     11259 MEOH     595      MEOH     HO2      DUMH      0.00000       1.00800           0   0.00000       0.00000    
     11260 MEOH     595      MEOH     H1A      HDA3B    0.800000E-01   1.00800           0   0.00000       0.00000    
     11261 MEOH     595      MEOH     H1B      HDA3B    0.800000E-01   1.00800           0   0.00000       0.00000    
     11262 MEOH     595      MEOH     H1C      HDA3B    0.800000E-01   1.00800           0   0.00000       0.00000    
     11263 MEOH     595      MEOH     LP1A     LPD     -0.230000       0.00000          -1   0.00000       0.00000    
     11264 MEOH     595      MEOH     LP1B     LPD     -0.230000       0.00000          -1   0.00000       0.00000    
     11265 MEOH     596      MEOH     C1       CD33B     2.31410       11.6110           0  -1.00000       1.30000    
     11266 MEOH     596      MEOH     DC1      DRUD     -2.45410      0.400000           0   0.00000       0.00000    
     11267 MEOH     596      MEOH     O1       OD31H     2.48830       15.5990           0  -1.02800       1.30000    
     11268 MEOH     596      MEOH     DO1      DRUD     -2.48830      0.400000           0   0.00000       0.00000    
     11269 MEOH     596      MEOH     HO1      HDP1A    0.360000       1.00800           0   0.00000       0.00000    
     11270 MEOH     596      MEOH     HO2      DUMH      0.00000       1.00800           0   0.00000       0.00000    
     11271 MEOH     596      MEOH     H1A      HDA3B    0.800000E-01   1.00800           0   0.00000       0.00000    
     11272 MEOH     596      MEOH     H1B      HDA3B    0.800000E-01   1.00800           0   0.00000       0.00000    
     11273 MEOH     596      MEOH     H1C      HDA3B    0.800000E-01   1.00800           0   0.00000       0.00000    
     11274 MEOH     596      MEOH     LP1A     LPD     -0.230000       0.00000          -1   0.00000       0.00000    
     11275 MEOH     596      MEOH     LP1B     LPD     -0.230000       0.00000          -1   0.00000       0.00000    
     11276 MEOH     597      MEOH     C1       CD33B     2.31410       11.6110           0  -1.00000       1.30000    
     11277 MEOH     597      MEOH     DC1      DRUD     -2.45410      0.400000           0   0.00000       0.00000    
     11278 MEOH     597      MEOH     O1       OD31H     2.48830       15.5990           0  -1.02800       1.30000    
     11279 MEOH     597      MEOH     DO1      DRUD     -2.48830      0.400000           0   0.00000       0.00000    
     11280 MEOH     597      MEOH     HO1      HDP1A    0.360000       1.00800           0   0.00000       0.00000    
     11281 MEOH     597      MEOH     HO2      DUMH      0.00000       1.00800           0   0.00000       0.00000    
     11282 MEOH     597      MEOH     H1A      HDA3B    0.800000E-01   1.00800           0   0.00000       0.00000    
     11283 MEOH     597      MEOH     H1B      HDA3B    0.800000E-01   1.00800           0   0.00000       0.00000    
     11284 MEOH     597      MEOH     H1C      HDA3B    0.800000E-01   1.00800           0   0.00000       0.00000    
     11285 MEOH     597      MEOH     LP1A     LPD     -0.230000       0.00000          -1   0.00000       0.00000    
     11286 MEOH     597      MEOH     LP1B     LPD     -0.230000       0.00000          -1   0.00000       0.00000    
     11287 MEOH     598      MEOH     C1       CD33B     2.31410       11.6110           0  -1.00000       1.30000    
     11288 MEOH     598      MEOH     DC1      DRUD     -2.45410      0.400000           0   0.00000       0.00000    
     11289 MEOH     598      MEOH     O1       OD31H     2.48830       15.5990           0  -1.02800       1.30000    
     11290 MEOH     598      MEOH     DO1      DRUD     -2.48830      0.400000           0   0.00000       0.00000    
     11291 MEOH     598      MEOH     HO1      HDP1A    0.360000       1.00800           0   0.00000       0.00000    
     11292 MEOH     598      MEOH     HO2      DUMH      0.00000       1.00800           0   0.00000       0.00000    
     11293 MEOH     598      MEOH     H1A      HDA3B    0.800000E-01   1.00800           0   0.00000       0.00000    
     11294 MEOH     598      MEOH     H1B      HDA3B    0.800000E-01   1.00800           0   0.00000       0.00000    
     11295 MEOH     598      MEOH     H1C      HDA3B    0.800000E-01   1.00800           0   0.00000       0.00000    
     11296 MEOH     598      MEOH     LP1A     LPD     -0.230000       0.00000          -1   0.00000       0.00000    
     11297 MEOH     598      MEOH     LP1B     LPD     -0.230000       0.00000          -1   0.00000       0.00000    
     11298 MEOH     599      MEOH     C1       CD33B     2.31410       11.6110           0  -1.00000       1.30000    
     11299 MEOH     599      MEOH     DC1      DRUD     -2.45410      0.400000           0   0.00000       0.00000    
     11300 MEOH     599      MEOH     O1       OD31H     2.48830       15.5990           0  -1.02800       1.30000    
     11301 MEOH     599      MEOH     DO1      DRUD     -2.48830      0.400000           0   0.00000       0.00000    
     11302 MEOH     599      MEOH     HO1      HDP1A    0.360000       1.00800           0   0.00000       0.00000    
     11303 MEOH     599      MEOH     HO2      DUMH      0.00000       1.00800           0   0.00000       0.00000    
     11304 MEOH     599      MEOH     H1A      HDA3B    0.800000E-01   1.00800           0   0.00000       0.00000    
     11305 MEOH     599      MEOH     H1B      HDA3B    0.800000E-01   1.00800           0   0.00000       0.00000    
     11306 MEOH     599      MEOH     H1C      HDA3B    0.800000E-01   1.00800           0   0.00000       0.00000    
     11307 MEOH     599      MEOH     LP1A     LPD     -0.230000       0.00000          -1   0.00000       0.00000    
     11308 MEOH     599      MEOH     LP1B     LPD     -0.230000       0.00000          -1   0.00000       0.00000    
     11309 MEOH     600      MEOH     C1       CD33B     2.31410       11.6110           0  -1.00000       1.30000    
     11310 MEOH     600      MEOH     DC1      DRUD     -2.45410      0.400000           0   0.00000       0.00000    
     11311 MEOH     600      MEOH     O1       OD31H     2.48830       15.5990           0  -1.02800       1.30000    
     11312 MEOH     600      MEOH     DO1      DRUD     -2.48830      0.400000           0   0.00000       0.00000    
     11313 MEOH     600      MEOH     HO1      HDP1A    0.360000       1.00800           0   0.00000       0.00000    
     11314 MEOH     600      MEOH     HO2      DUMH      0.00000       1.00800           0   0.00000       0.00000    
     11315 MEOH     600      MEOH     H1A      HDA3B    0.800000E-01   1.00800           0   0.00000       0.00000    
     11316 MEOH     600      MEOH     H1B      HDA3B    0.800000E-01   1.00800           0   0.00000       0.00000    
     11317 MEOH     600      MEOH     H1C      HDA3B    0.800000E-01   1.00800           0   0.00000       0.00000    
     11318 MEOH     600      MEOH     LP1A     LPD     -0.230000       0.00000          -1   0.00000       0.00000    
     11319 MEOH     600      MEOH     LP1B     LPD     -0.230000       0.00000          -1   0.00000       0.00000    
     11320 MEOH     601      MEOH     C1       CD33B     2.31410       11.6110           0  -1.00000       1.30000    
     11321 MEOH     601      MEOH     DC1      DRUD     -2.45410      0.400000           0   0.00000       0.00000    
     11322 MEOH     601      MEOH     O1       OD31H     2.48830       15.5990           0  -1.02800       1.30000    
     11323 MEOH     601      MEOH     DO1      DRUD     -2.48830      0.400000           0   0.00000       0.00000    
     11324 MEOH     601      MEOH     HO1      HDP1A    0.360000       1.00800           0   0.00000       0.00000    
     11325 MEOH     601      MEOH     HO2      DUMH      0.00000       1.00800           0   0.00000       0.00000    
     11326 MEOH     601      MEOH     H1A      HDA3B    0.800000E-01   1.00800           0   0.00000       0.00000    
     11327 MEOH     601      MEOH     H1B      HDA3B    0.800000E-01   1.00800           0   0.00000       0.00000    
     11328 MEOH     601      MEOH     H1C      HDA3B    0.800000E-01   1.00800           0   0.00000       0.00000    
     11329 MEOH     601      MEOH     LP1A     LPD     -0.230000       0.00000          -1   0.00000       0.00000    
     11330 MEOH     601      MEOH     LP1B     LPD     -0.230000       0.00000          -1   0.00000       0.00000    
     11331 MEOH     602      MEOH     C1       CD33B     2.31410       11.6110           0  -1.00000       1.30000    
     11332 MEOH     602      MEOH     DC1      DRUD     -2.45410      0.400000           0   0.00000       0.00000    
     11333 MEOH     602      MEOH     O1       OD31H     2.48830       15.5990           0  -1.02800       1.30000    
     11334 MEOH     602      MEOH     DO1      DRUD     -2.48830      0.400000           0   0.00000       0.00000    
     11335 MEOH     602      MEOH     HO1      HDP1A    0.360000       1.00800           0   0.00000       0.00000    
     11336 MEOH     602      MEOH     HO2      DUMH      0.00000       1.00800           0   0.00000       0.00000    
     11337 MEOH     602      MEOH     H1A      HDA3B    0.800000E-01   1.00800           0   0.00000       0.00000    
     11338 MEOH     602      MEOH     H1B      HDA3B    0.800000E-01   1.00800           0   0.00000       0.00000    
     11339 MEOH     602      MEOH     H1C      HDA3B    0.800000E-01   1.00800           0   0.00000       0.00000    
     11340 MEOH     602      MEOH     LP1A     LPD     -0.230000       0.00000          -1   0.00000       0.00000    
     11341 MEOH     602      MEOH     LP1B     LPD     -0.230000       0.00000          -1   0.00000       0.00000    
     11342 MEOH     603      MEOH     C1       CD33B     2.31410       11.6110           0  -1.00000       1.30000    
     11343 MEOH     603      MEOH     DC1      DRUD     -2.45410      0.400000           0   0.00000       0.00000    
     11344 MEOH     603      MEOH     O1       OD31H     2.48830       15.5990           0  -1.02800       1.30000    
     11345 MEOH     603      MEOH     DO1      DRUD     -2.48830      0.400000           0   0.00000       0.00000    
     11346 MEOH     603      MEOH     HO1      HDP1A    0.360000       1.00800           0   0.00000       0.00000    
     11347 MEOH     603      MEOH     HO2      DUMH      0.00000       1.00800           0   0.00000       0.00000    
     11348 MEOH     603      MEOH     H1A      HDA3B    0.800000E-01   1.00800           0   0.00000       0.00000    
     11349 MEOH     603      MEOH     H1B      HDA3B    0.800000E-01   1.00800           0   0.00000       0.00000    
     11350 MEOH     603      MEOH     H1C      HDA3B    0.800000E-01   1.00800           0   0.00000       0.00000    
     11351 MEOH     603      MEOH     LP1A     LPD     -0.230000       0.00000          -1   0.00000       0.00000    
     11352 MEOH     603      MEOH     LP1B     LPD     -0.230000       0.00000          -1   0.00000       0.00000    
     11353 MEOH     604      MEOH     C1       CD33B     2.31410       11.6110           0  -1.00000       1.30000    
     11354 MEOH     604      MEOH     DC1      DRUD     -2.45410      0.400000           0   0.00000       0.00000    
     11355 MEOH     604      MEOH     O1       OD31H     2.48830       15.5990           0  -1.02800       1.30000    
     11356 MEOH     604      MEOH     DO1      DRUD     -2.48830      0.400000           0   0.00000       0.00000    
     11357 MEOH     604      MEOH     HO1      HDP1A    0.360000       1.00800           0   0.00000       0.00000    
     11358 MEOH     604      MEOH     HO2      DUMH      0.00000       1.00800           0   0.00000       0.00000    
     11359 MEOH     604      MEOH     H1A      HDA3B    0.800000E-01   1.00800           0   0.00000       0.00000    
     11360 MEOH     604      MEOH     H1B      HDA3B    0.800000E-01   1.00800           0   0.00000       0.00000    
     11361 MEOH     604      MEOH     H1C      HDA3B    0.800000E-01   1.00800           0   0.00000       0.00000    
     11362 MEOH     604      MEOH     LP1A     LPD     -0.230000       0.00000          -1   0.00000       0.00000    
     11363 MEOH     604      MEOH     LP1B     LPD     -0.230000       0.00000          -1   0.00000       0.00000    
     11364 MEOH     605      MEOH     C1       CD33B     2.31410       11.6110           0  -1.00000       1.30000    
     11365 MEOH     605      MEOH     DC1      DRUD     -2.45410      0.400000           0   0.00000       0.00000    
     11366 MEOH     605      MEOH     O1       OD31H     2.48830       15.5990           0  -1.02800       1.30000    
     11367 MEOH     605      MEOH     DO1      DRUD     -2.48830      0.400000           0   0.00000       0.00000    
     11368 MEOH     605      MEOH     HO1      HDP1A    0.360000       1.00800           0   0.00000       0.00000    
     11369 MEOH     605      MEOH     HO2      DUMH      0.00000       1.00800           0   0.00000       0.00000    
     11370 MEOH     605      MEOH     H1A      HDA3B    0.800000E-01   1.00800           0   0.00000       0.00000    
     11371 MEOH     605      MEOH     H1B      HDA3B    0.800000E-01   1.00800           0   0.00000       0.00000    
     11372 MEOH     605      MEOH     H1C      HDA3B    0.800000E-01   1.00800           0   0.00000       0.00000    
     11373 MEOH     605      MEOH     LP1A     LPD     -0.230000       0.00000          -1   0.00000       0.00000    
     11374 MEOH     605      MEOH     LP1B     LPD     -0.230000       0.00000          -1   0.00000       0.00000    
     11375 MEOH     606      MEOH     C1       CD33B     2.31410       11.6110           0  -1.00000       1.30000    
     11376 MEOH     606      MEOH     DC1      DRUD     -2.45410      0.400000           0   0.00000       0.00000    
     11377 MEOH     606      MEOH     O1       OD31H     2.48830       15.5990           0  -1.02800       1.30000    
     11378 MEOH     606      MEOH     DO1      DRUD     -2.48830      0.400000           0   0.00000       0.00000    
     11379 MEOH     606      MEOH     HO1      HDP1A    0.360000       1.00800           0   0.00000       0.00000    
     11380 MEOH     606      MEOH     HO2      DUMH      0.00000       1.00800           0   0.00000       0.00000    
     11381 MEOH     606      MEOH     H1A      HDA3B    0.800000E-01   1.00800           0   0.00000       0.00000    
     11382 MEOH     606      MEOH     H1B      HDA3B    0.800000E-01   1.00800           0   0.00000       0.00000    
     11383 MEOH     606      MEOH     H1C      HDA3B    0.800000E-01   1.00800           0   0.00000       0.00000    
     11384 MEOH     606      MEOH     LP1A     LPD     -0.230000       0.00000          -1   0.00000       0.00000    
     11385 MEOH     606      MEOH     LP1B     LPD     -0.230000       0.00000          -1   0.00000       0.00000    
     11386 MEOH     607      MEOH     C1       CD33B     2.31410       11.6110           0  -1.00000       1.30000    
     11387 MEOH     607      MEOH     DC1      DRUD     -2.45410      0.400000           0   0.00000       0.00000    
     11388 MEOH     607      MEOH     O1       OD31H     2.48830       15.5990           0  -1.02800       1.30000    
     11389 MEOH     607      MEOH     DO1      DRUD     -2.48830      0.400000           0   0.00000       0.00000    
     11390 MEOH     607      MEOH     HO1      HDP1A    0.360000       1.00800           0   0.00000       0.00000    
     11391 MEOH     607      MEOH     HO2      DUMH      0.00000       1.00800           0   0.00000       0.00000    
     11392 MEOH     607      MEOH     H1A      HDA3B    0.800000E-01   1.00800           0   0.00000       0.00000    
     11393 MEOH     607      MEOH     H1B      HDA3B    0.800000E-01   1.00800           0   0.00000       0.00000    
     11394 MEOH     607      MEOH     H1C      HDA3B    0.800000E-01   1.00800           0   0.00000       0.00000    
     11395 MEOH     607      MEOH     LP1A     LPD     -0.230000       0.00000          -1   0.00000       0.00000    
     11396 MEOH     607      MEOH     LP1B     LPD     -0.230000       0.00000          -1   0.00000       0.00000    
     11397 MEOH     608      MEOH     C1       CD33B     2.31410       11.6110           0  -1.00000       1.30000    
     11398 MEOH     608      MEOH     DC1      DRUD     -2.45410      0.400000           0   0.00000       0.00000    
     11399 MEOH     608      MEOH     O1       OD31H     2.48830       15.5990           0  -1.02800       1.30000    
     11400 MEOH     608      MEOH     DO1      DRUD     -2.48830      0.400000           0   0.00000       0.00000    
     11401 MEOH     608      MEOH     HO1      HDP1A    0.360000       1.00800           0   0.00000       0.00000    
     11402 MEOH     608      MEOH     HO2      DUMH      0.00000       1.00800           0   0.00000       0.00000    
     11403 MEOH     608      MEOH     H1A      HDA3B    0.800000E-01   1.00800           0   0.00000       0.00000    
     11404 MEOH     608      MEOH     H1B      HDA3B    0.800000E-01   1.00800           0   0.00000       0.00000    
     11405 MEOH     608      MEOH     H1C      HDA3B    0.800000E-01   1.00800           0   0.00000       0.00000    
     11406 MEOH     608      MEOH     LP1A     LPD     -0.230000       0.00000          -1   0.00000       0.00000    
     11407 MEOH     608      MEOH     LP1B     LPD     -0.230000       0.00000          -1   0.00000       0.00000    
     11408 MEOH     609      MEOH     C1       CD33B     2.31410       11.6110           0  -1.00000       1.30000    
     11409 MEOH     609      MEOH     DC1      DRUD     -2.45410      0.400000           0   0.00000       0.00000    
     11410 MEOH     609      MEOH     O1       OD31H     2.48830       15.5990           0  -1.02800       1.30000    
     11411 MEOH     609      MEOH     DO1      DRUD     -2.48830      0.400000           0   0.00000       0.00000    
     11412 MEOH     609      MEOH     HO1      HDP1A    0.360000       1.00800           0   0.00000       0.00000    
     11413 MEOH     609      MEOH     HO2      DUMH      0.00000       1.00800           0   0.00000       0.00000    
     11414 MEOH     609      MEOH     H1A      HDA3B    0.800000E-01   1.00800           0   0.00000       0.00000    
     11415 MEOH     609      MEOH     H1B      HDA3B    0.800000E-01   1.00800           0   0.00000       0.00000    
     11416 MEOH     609      MEOH     H1C      HDA3B    0.800000E-01   1.00800           0   0.00000       0.00000    
     11417 MEOH     609      MEOH     LP1A     LPD     -0.230000       0.00000          -1   0.00000       0.00000    
     11418 MEOH     609      MEOH     LP1B     LPD     -0.230000       0.00000          -1   0.00000       0.00000    
     11419 MEOH     610      MEOH     C1       CD33B     2.31410       11.6110           0  -1.00000       1.30000    
     11420 MEOH     610      MEOH     DC1      DRUD     -2.45410      0.400000           0   0.00000       0.00000    
     11421 MEOH     610      MEOH     O1       OD31H     2.48830       15.5990           0  -1.02800       1.30000    
     11422 MEOH     610      MEOH     DO1      DRUD     -2.48830      0.400000           0   0.00000       0.00000    
     11423 MEOH     610      MEOH     HO1      HDP1A    0.360000       1.00800           0   0.00000       0.00000    
     11424 MEOH     610      MEOH     HO2      DUMH      0.00000       1.00800           0   0.00000       0.00000    
     11425 MEOH     610      MEOH     H1A      HDA3B    0.800000E-01   1.00800           0   0.00000       0.00000    
     11426 MEOH     610      MEOH     H1B      HDA3B    0.800000E-01   1.00800           0   0.00000       0.00000    
     11427 MEOH     610      MEOH     H1C      HDA3B    0.800000E-01   1.00800           0   0.00000       0.00000    
     11428 MEOH     610      MEOH     LP1A     LPD     -0.230000       0.00000          -1   0.00000       0.00000    
     11429 MEOH     610      MEOH     LP1B     LPD     -0.230000       0.00000          -1   0.00000       0.00000    
     11430 MEOH     611      MEOH     C1       CD33B     2.31410       11.6110           0  -1.00000       1.30000    
     11431 MEOH     611      MEOH     DC1      DRUD     -2.45410      0.400000           0   0.00000       0.00000    
     11432 MEOH     611      MEOH     O1       OD31H     2.48830       15.5990           0  -1.02800       1.30000    
     11433 MEOH     611      MEOH     DO1      DRUD     -2.48830      0.400000           0   0.00000       0.00000    
     11434 MEOH     611      MEOH     HO1      HDP1A    0.360000       1.00800           0   0.00000       0.00000    
     11435 MEOH     611      MEOH     HO2      DUMH      0.00000       1.00800           0   0.00000       0.00000    
     11436 MEOH     611      MEOH     H1A      HDA3B    0.800000E-01   1.00800           0   0.00000       0.00000    
     11437 MEOH     611      MEOH     H1B      HDA3B    0.800000E-01   1.00800           0   0.00000       0.00000    
     11438 MEOH     611      MEOH     H1C      HDA3B    0.800000E-01   1.00800           0   0.00000       0.00000    
     11439 MEOH     611      MEOH     LP1A     LPD     -0.230000       0.00000          -1   0.00000       0.00000    
     11440 MEOH     611      MEOH     LP1B     LPD     -0.230000       0.00000          -1   0.00000       0.00000    
     11441 MEOH     612      MEOH     C1       CD33B     2.31410       11.6110           0  -1.00000       1.30000    
     11442 MEOH     612      MEOH     DC1      DRUD     -2.45410      0.400000           0   0.00000       0.00000    
     11443 MEOH     612      MEOH     O1       OD31H     2.48830       15.5990           0  -1.02800       1.30000    
     11444 MEOH     612      MEOH     DO1      DRUD     -2.48830      0.400000           0   0.00000       0.00000    
     11445 MEOH     612      MEOH     HO1      HDP1A    0.360000       1.00800           0   0.00000       0.00000    
     11446 MEOH     612      MEOH     HO2      DUMH      0.00000       1.00800           0   0.00000       0.00000    
     11447 MEOH     612      MEOH     H1A      HDA3B    0.800000E-01   1.00800           0   0.00000       0.00000    
     11448 MEOH     612      MEOH     H1B      HDA3B    0.800000E-01   1.00800           0   0.00000       0.00000    
     11449 MEOH     612      MEOH     H1C      HDA3B    0.800000E-01   1.00800           0   0.00000       0.00000    
     11450 MEOH     612      MEOH     LP1A     LPD     -0.230000       0.00000          -1   0.00000       0.00000    
     11451 MEOH     612      MEOH     LP1B     LPD     -0.230000       0.00000          -1   0.00000       0.00000    
     11452 MEOH     613      MEOH     C1       CD33B     2.31410       11.6110           0  -1.00000       1.30000    
     11453 MEOH     613      MEOH     DC1      DRUD     -2.45410      0.400000           0   0.00000       0.00000    
     11454 MEOH     613      MEOH     O1       OD31H     2.48830       15.5990           0  -1.02800       1.30000    
     11455 MEOH     613      MEOH     DO1      DRUD     -2.48830      0.400000           0   0.00000       0.00000    
     11456 MEOH     613      MEOH     HO1      HDP1A    0.360000       1.00800           0   0.00000       0.00000    
     11457 MEOH     613      MEOH     HO2      DUMH      0.00000       1.00800           0   0.00000       0.00000    
     11458 MEOH     613      MEOH     H1A      HDA3B    0.800000E-01   1.00800           0   0.00000       0.00000    
     11459 MEOH     613      MEOH     H1B      HDA3B    0.800000E-01   1.00800           0   0.00000       0.00000    
     11460 MEOH     613      MEOH     H1C      HDA3B    0.800000E-01   1.00800           0   0.00000       0.00000    
     11461 MEOH     613      MEOH     LP1A     LPD     -0.230000       0.00000          -1   0.00000       0.00000    
     11462 MEOH     613      MEOH     LP1B     LPD     -0.230000       0.00000          -1   0.00000       0.00000    
     11463 MEOH     614      MEOH     C1       CD33B     2.31410       11.6110           0  -1.00000       1.30000    
     11464 MEOH     614      MEOH     DC1      DRUD     -2.45410      0.400000           0   0.00000       0.00000    
     11465 MEOH     614      MEOH     O1       OD31H     2.48830       15.5990           0  -1.02800       1.30000    
     11466 MEOH     614      MEOH     DO1      DRUD     -2.48830      0.400000           0   0.00000       0.00000    
     11467 MEOH     614      MEOH     HO1      HDP1A    0.360000       1.00800           0   0.00000       0.00000    
     11468 MEOH     614      MEOH     HO2      DUMH      0.00000       1.00800           0   0.00000       0.00000    
     11469 MEOH     614      MEOH     H1A      HDA3B    0.800000E-01   1.00800           0   0.00000       0.00000    
     11470 MEOH     614      MEOH     H1B      HDA3B    0.800000E-01   1.00800           0   0.00000       0.00000    
     11471 MEOH     614      MEOH     H1C      HDA3B    0.800000E-01   1.00800           0   0.00000       0.00000    
     11472 MEOH     614      MEOH     LP1A     LPD     -0.230000       0.00000          -1   0.00000       0.00000    
     11473 MEOH     614      MEOH     LP1B     LPD     -0.230000       0.00000          -1   0.00000       0.00000    
     11474 MEOH     615      MEOH     C1       CD33B     2.31410       11.6110           0  -1.00000       1.30000    
     11475 MEOH     615      MEOH     DC1      DRUD     -2.45410      0.400000           0   0.00000       0.00000    
     11476 MEOH     615      MEOH     O1       OD31H     2.48830       15.5990           0  -1.02800       1.30000    
     11477 MEOH     615      MEOH     DO1      DRUD     -2.48830      0.400000           0   0.00000       0.00000    
     11478 MEOH     615      MEOH     HO1      HDP1A    0.360000       1.00800           0   0.00000       0.00000    
     11479 MEOH     615      MEOH     HO2      DUMH      0.00000       1.00800           0   0.00000       0.00000    
     11480 MEOH     615      MEOH     H1A      HDA3B    0.800000E-01   1.00800           0   0.00000       0.00000    
     11481 MEOH     615      MEOH     H1B      HDA3B    0.800000E-01   1.00800           0   0.00000       0.00000    
     11482 MEOH     615      MEOH     H1C      HDA3B    0.800000E-01   1.00800           0   0.00000       0.00000    
     11483 MEOH     615      MEOH     LP1A     LPD     -0.230000       0.00000          -1   0.00000       0.00000    
     11484 MEOH     615      MEOH     LP1B     LPD     -0.230000       0.00000          -1   0.00000       0.00000    
     11485 MEOH     616      MEOH     C1       CD33B     2.31410       11.6110           0  -1.00000       1.30000    
     11486 MEOH     616      MEOH     DC1      DRUD     -2.45410      0.400000           0   0.00000       0.00000    
     11487 MEOH     616      MEOH     O1       OD31H     2.48830       15.5990           0  -1.02800       1.30000    
     11488 MEOH     616      MEOH     DO1      DRUD     -2.48830      0.400000           0   0.00000       0.00000    
     11489 MEOH     616      MEOH     HO1      HDP1A    0.360000       1.00800           0   0.00000       0.00000    
     11490 MEOH     616      MEOH     HO2      DUMH      0.00000       1.00800           0   0.00000       0.00000    
     11491 MEOH     616      MEOH     H1A      HDA3B    0.800000E-01   1.00800           0   0.00000       0.00000    
     11492 MEOH     616      MEOH     H1B      HDA3B    0.800000E-01   1.00800           0   0.00000       0.00000    
     11493 MEOH     616      MEOH     H1C      HDA3B    0.800000E-01   1.00800           0   0.00000       0.00000    
     11494 MEOH     616      MEOH     LP1A     LPD     -0.230000       0.00000          -1   0.00000       0.00000    
     11495 MEOH     616      MEOH     LP1B     LPD     -0.230000       0.00000          -1   0.00000       0.00000    
     11496 MEOH     617      MEOH     C1       CD33B     2.31410       11.6110           0  -1.00000       1.30000    
     11497 MEOH     617      MEOH     DC1      DRUD     -2.45410      0.400000           0   0.00000       0.00000    
     11498 MEOH     617      MEOH     O1       OD31H     2.48830       15.5990           0  -1.02800       1.30000    
     11499 MEOH     617      MEOH     DO1      DRUD     -2.48830      0.400000           0   0.00000       0.00000    
     11500 MEOH     617      MEOH     HO1      HDP1A    0.360000       1.00800           0   0.00000       0.00000    
     11501 MEOH     617      MEOH     HO2      DUMH      0.00000       1.00800           0   0.00000       0.00000    
     11502 MEOH     617      MEOH     H1A      HDA3B    0.800000E-01   1.00800           0   0.00000       0.00000    
     11503 MEOH     617      MEOH     H1B      HDA3B    0.800000E-01   1.00800           0   0.00000       0.00000    
     11504 MEOH     617      MEOH     H1C      HDA3B    0.800000E-01   1.00800           0   0.00000       0.00000    
     11505 MEOH     617      MEOH     LP1A     LPD     -0.230000       0.00000          -1   0.00000       0.00000    
     11506 MEOH     617      MEOH     LP1B     LPD     -0.230000       0.00000          -1   0.00000       0.00000    
     11507 MEOH     618      MEOH     C1       CD33B     2.31410       11.6110           0  -1.00000       1.30000    
     11508 MEOH     618      MEOH     DC1      DRUD     -2.45410      0.400000           0   0.00000       0.00000    
     11509 MEOH     618      MEOH     O1       OD31H     2.48830       15.5990           0  -1.02800       1.30000    
     11510 MEOH     618      MEOH     DO1      DRUD     -2.48830      0.400000           0   0.00000       0.00000    
     11511 MEOH     618      MEOH     HO1      HDP1A    0.360000       1.00800           0   0.00000       0.00000    
     11512 MEOH     618      MEOH     HO2      DUMH      0.00000       1.00800           0   0.00000       0.00000    
     11513 MEOH     618      MEOH     H1A      HDA3B    0.800000E-01   1.00800           0   0.00000       0.00000    
     11514 MEOH     618      MEOH     H1B      HDA3B    0.800000E-01   1.00800           0   0.00000       0.00000    
     11515 MEOH     618      MEOH     H1C      HDA3B    0.800000E-01   1.00800           0   0.00000       0.00000    
     11516 MEOH     618      MEOH     LP1A     LPD     -0.230000       0.00000          -1   0.00000       0.00000    
     11517 MEOH     618      MEOH     LP1B     LPD     -0.230000       0.00000          -1   0.00000       0.00000    
     11518 MEOH     619      MEOH     C1       CD33B     2.31410       11.6110           0  -1.00000       1.30000    
     11519 MEOH     619      MEOH     DC1      DRUD     -2.45410      0.400000           0   0.00000       0.00000    
     11520 MEOH     619      MEOH     O1       OD31H     2.48830       15.5990           0  -1.02800       1.30000    
     11521 MEOH     619      MEOH     DO1      DRUD     -2.48830      0.400000           0   0.00000       0.00000    
     11522 MEOH     619      MEOH     HO1      HDP1A    0.360000       1.00800           0   0.00000       0.00000    
     11523 MEOH     619      MEOH     HO2      DUMH      0.00000       1.00800           0   0.00000       0.00000    
     11524 MEOH     619      MEOH     H1A      HDA3B    0.800000E-01   1.00800           0   0.00000       0.00000    
     11525 MEOH     619      MEOH     H1B      HDA3B    0.800000E-01   1.00800           0   0.00000       0.00000    
     11526 MEOH     619      MEOH     H1C      HDA3B    0.800000E-01   1.00800           0   0.00000       0.00000    
     11527 MEOH     619      MEOH     LP1A     LPD     -0.230000       0.00000          -1   0.00000       0.00000    
     11528 MEOH     619      MEOH     LP1B     LPD     -0.230000       0.00000          -1   0.00000       0.00000    
     11529 MEOH     620      MEOH     C1       CD33B     2.31410       11.6110           0  -1.00000       1.30000    
     11530 MEOH     620      MEOH     DC1      DRUD     -2.45410      0.400000           0   0.00000       0.00000    
     11531 MEOH     620      MEOH     O1       OD31H     2.48830       15.5990           0  -1.02800       1.30000    
     11532 MEOH     620      MEOH     DO1      DRUD     -2.48830      0.400000           0   0.00000       0.00000    
     11533 MEOH     620      MEOH     HO1      HDP1A    0.360000       1.00800           0   0.00000       0.00000    
     11534 MEOH     620      MEOH     HO2      DUMH      0.00000       1.00800           0   0.00000       0.00000    
     11535 MEOH     620      MEOH     H1A      HDA3B    0.800000E-01   1.00800           0   0.00000       0.00000    
     11536 MEOH     620      MEOH     H1B      HDA3B    0.800000E-01   1.00800           0   0.00000       0.00000    
     11537 MEOH     620      MEOH     H1C      HDA3B    0.800000E-01   1.00800           0   0.00000       0.00000    
     11538 MEOH     620      MEOH     LP1A     LPD     -0.230000       0.00000          -1   0.00000       0.00000    
     11539 MEOH     620      MEOH     LP1B     LPD     -0.230000       0.00000          -1   0.00000       0.00000    
     11540 MEOH     621      MEOH     C1       CD33B     2.31410       11.6110           0  -1.00000       1.30000    
     11541 MEOH     621      MEOH     DC1      DRUD     -2.45410      0.400000           0   0.00000       0.00000    
     11542 MEOH     621      MEOH     O1       OD31H     2.48830       15.5990           0  -1.02800       1.30000    
     11543 MEOH     621      MEOH     DO1      DRUD     -2.48830      0.400000           0   0.00000       0.00000    
     11544 MEOH     621      MEOH     HO1      HDP1A    0.360000       1.00800           0   0.00000       0.00000    
     11545 MEOH     621      MEOH     HO2      DUMH      0.00000       1.00800           0   0.00000       0.00000    
     11546 MEOH     621      MEOH     H1A      HDA3B    0.800000E-01   1.00800           0   0.00000       0.00000    
     11547 MEOH     621      MEOH     H1B      HDA3B    0.800000E-01   1.00800           0   0.00000       0.00000    
     11548 MEOH     621      MEOH     H1C      HDA3B    0.800000E-01   1.00800           0   0.00000       0.00000    
     11549 MEOH     621      MEOH     LP1A     LPD     -0.230000       0.00000          -1   0.00000       0.00000    
     11550 MEOH     621      MEOH     LP1B     LPD     -0.230000       0.00000          -1   0.00000       0.00000    
     11551 MEOH     622      MEOH     C1       CD33B     2.31410       11.6110           0  -1.00000       1.30000    
     11552 MEOH     622      MEOH     DC1      DRUD     -2.45410      0.400000           0   0.00000       0.00000    
     11553 MEOH     622      MEOH     O1       OD31H     2.48830       15.5990           0  -1.02800       1.30000    
     11554 MEOH     622      MEOH     DO1      DRUD     -2.48830      0.400000           0   0.00000       0.00000    
     11555 MEOH     622      MEOH     HO1      HDP1A    0.360000       1.00800           0   0.00000       0.00000    
     11556 MEOH     622      MEOH     HO2      DUMH      0.00000       1.00800           0   0.00000       0.00000    
     11557 MEOH     622      MEOH     H1A      HDA3B    0.800000E-01   1.00800           0   0.00000       0.00000    
     11558 MEOH     622      MEOH     H1B      HDA3B    0.800000E-01   1.00800           0   0.00000       0.00000    
     11559 MEOH     622      MEOH     H1C      HDA3B    0.800000E-01   1.00800           0   0.00000       0.00000    
     11560 MEOH     622      MEOH     LP1A     LPD     -0.230000       0.00000          -1   0.00000       0.00000    
     11561 MEOH     622      MEOH     LP1B     LPD     -0.230000       0.00000          -1   0.00000       0.00000    
     11562 MEOH     623      MEOH     C1       CD33B     2.31410       11.6110           0  -1.00000       1.30000    
     11563 MEOH     623      MEOH     DC1      DRUD     -2.45410      0.400000           0   0.00000       0.00000    
     11564 MEOH     623      MEOH     O1       OD31H     2.48830       15.5990           0  -1.02800       1.30000    
     11565 MEOH     623      MEOH     DO1      DRUD     -2.48830      0.400000           0   0.00000       0.00000    
     11566 MEOH     623      MEOH     HO1      HDP1A    0.360000       1.00800           0   0.00000       0.00000    
     11567 MEOH     623      MEOH     HO2      DUMH      0.00000       1.00800           0   0.00000       0.00000    
     11568 MEOH     623      MEOH     H1A      HDA3B    0.800000E-01   1.00800           0   0.00000       0.00000    
     11569 MEOH     623      MEOH     H1B      HDA3B    0.800000E-01   1.00800           0   0.00000       0.00000    
     11570 MEOH     623      MEOH     H1C      HDA3B    0.800000E-01   1.00800           0   0.00000       0.00000    
     11571 MEOH     623      MEOH     LP1A     LPD     -0.230000       0.00000          -1   0.00000       0.00000    
     11572 MEOH     623      MEOH     LP1B     LPD     -0.230000       0.00000          -1   0.00000       0.00000    
     11573 MEOH     624      MEOH     C1       CD33B     2.31410       11.6110           0  -1.00000       1.30000    
     11574 MEOH     624      MEOH     DC1      DRUD     -2.45410      0.400000           0   0.00000       0.00000    
     11575 MEOH     624      MEOH     O1       OD31H     2.48830       15.5990           0  -1.02800       1.30000    
     11576 MEOH     624      MEOH     DO1      DRUD     -2.48830      0.400000           0   0.00000       0.00000    
     11577 MEOH     624      MEOH     HO1      HDP1A    0.360000       1.00800           0   0.00000       0.00000    
     11578 MEOH     624      MEOH     HO2      DUMH      0.00000       1.00800           0   0.00000       0.00000    
     11579 MEOH     624      MEOH     H1A      HDA3B    0.800000E-01   1.00800           0   0.00000       0.00000    
     11580 MEOH     624      MEOH     H1B      HDA3B    0.800000E-01   1.00800           0   0.00000       0.00000    
     11581 MEOH     624      MEOH     H1C      HDA3B    0.800000E-01   1.00800           0   0.00000       0.00000    
     11582 MEOH     624      MEOH     LP1A     LPD     -0.230000       0.00000          -1   0.00000       0.00000    
     11583 MEOH     624      MEOH     LP1B     LPD     -0.230000       0.00000          -1   0.00000       0.00000    
     11584 MEOH     625      MEOH     C1       CD33B     2.31410       11.6110           0  -1.00000       1.30000    
     11585 MEOH     625      MEOH     DC1      DRUD     -2.45410      0.400000           0   0.00000       0.00000    
     11586 MEOH     625      MEOH     O1       OD31H     2.48830       15.5990           0  -1.02800       1.30000    
     11587 MEOH     625      MEOH     DO1      DRUD     -2.48830      0.400000           0   0.00000       0.00000    
     11588 MEOH     625      MEOH     HO1      HDP1A    0.360000       1.00800           0   0.00000       0.00000    
     11589 MEOH     625      MEOH     HO2      DUMH      0.00000       1.00800           0   0.00000       0.00000    
     11590 MEOH     625      MEOH     H1A      HDA3B    0.800000E-01   1.00800           0   0.00000       0.00000    
     11591 MEOH     625      MEOH     H1B      HDA3B    0.800000E-01   1.00800           0   0.00000       0.00000    
     11592 MEOH     625      MEOH     H1C      HDA3B    0.800000E-01   1.00800           0   0.00000       0.00000    
     11593 MEOH     625      MEOH     LP1A     LPD     -0.230000       0.00000          -1   0.00000       0.00000    
     11594 MEOH     625      MEOH     LP1B     LPD     -0.230000       0.00000          -1   0.00000       0.00000    
     11595 MEOH     626      MEOH     C1       CD33B     2.31410       11.6110           0  -1.00000       1.30000    
     11596 MEOH     626      MEOH     DC1      DRUD     -2.45410      0.400000           0   0.00000       0.00000    
     11597 MEOH     626      MEOH     O1       OD31H     2.48830       15.5990           0  -1.02800       1.30000    
     11598 MEOH     626      MEOH     DO1      DRUD     -2.48830      0.400000           0   0.00000       0.00000    
     11599 MEOH     626      MEOH     HO1      HDP1A    0.360000       1.00800           0   0.00000       0.00000    
     11600 MEOH     626      MEOH     HO2      DUMH      0.00000       1.00800           0   0.00000       0.00000    
     11601 MEOH     626      MEOH     H1A      HDA3B    0.800000E-01   1.00800           0   0.00000       0.00000    
     11602 MEOH     626      MEOH     H1B      HDA3B    0.800000E-01   1.00800           0   0.00000       0.00000    
     11603 MEOH     626      MEOH     H1C      HDA3B    0.800000E-01   1.00800           0   0.00000       0.00000    
     11604 MEOH     626      MEOH     LP1A     LPD     -0.230000       0.00000          -1   0.00000       0.00000    
     11605 MEOH     626      MEOH     LP1B     LPD     -0.230000       0.00000          -1   0.00000       0.00000    
     11606 MEOH     627      MEOH     C1       CD33B     2.31410       11.6110           0  -1.00000       1.30000    
     11607 MEOH     627      MEOH     DC1      DRUD     -2.45410      0.400000           0   0.00000       0.00000    
     11608 MEOH     627      MEOH     O1       OD31H     2.48830       15.5990           0  -1.02800       1.30000    
     11609 MEOH     627      MEOH     DO1      DRUD     -2.48830      0.400000           0   0.00000       0.00000    
     11610 MEOH     627      MEOH     HO1      HDP1A    0.360000       1.00800           0   0.00000       0.00000    
     11611 MEOH     627      MEOH     HO2      DUMH      0.00000       1.00800           0   0.00000       0.00000    
     11612 MEOH     627      MEOH     H1A      HDA3B    0.800000E-01   1.00800           0   0.00000       0.00000    
     11613 MEOH     627      MEOH     H1B      HDA3B    0.800000E-01   1.00800           0   0.00000       0.00000    
     11614 MEOH     627      MEOH     H1C      HDA3B    0.800000E-01   1.00800           0   0.00000       0.00000    
     11615 MEOH     627      MEOH     LP1A     LPD     -0.230000       0.00000          -1   0.00000       0.00000    
     11616 MEOH     627      MEOH     LP1B     LPD     -0.230000       0.00000          -1   0.00000       0.00000    
     11617 MEOH     628      MEOH     C1       CD33B     2.31410       11.6110           0  -1.00000       1.30000    
     11618 MEOH     628      MEOH     DC1      DRUD     -2.45410      0.400000           0   0.00000       0.00000    
     11619 MEOH     628      MEOH     O1       OD31H     2.48830       15.5990           0  -1.02800       1.30000    
     11620 MEOH     628      MEOH     DO1      DRUD     -2.48830      0.400000           0   0.00000       0.00000    
     11621 MEOH     628      MEOH     HO1      HDP1A    0.360000       1.00800           0   0.00000       0.00000    
     11622 MEOH     628      MEOH     HO2      DUMH      0.00000       1.00800           0   0.00000       0.00000    
     11623 MEOH     628      MEOH     H1A      HDA3B    0.800000E-01   1.00800           0   0.00000       0.00000    
     11624 MEOH     628      MEOH     H1B      HDA3B    0.800000E-01   1.00800           0   0.00000       0.00000    
     11625 MEOH     628      MEOH     H1C      HDA3B    0.800000E-01   1.00800           0   0.00000       0.00000    
     11626 MEOH     628      MEOH     LP1A     LPD     -0.230000       0.00000          -1   0.00000       0.00000    
     11627 MEOH     628      MEOH     LP1B     LPD     -0.230000       0.00000          -1   0.00000       0.00000    
     11628 MEOH     629      MEOH     C1       CD33B     2.31410       11.6110           0  -1.00000       1.30000    
     11629 MEOH     629      MEOH     DC1      DRUD     -2.45410      0.400000           0   0.00000       0.00000    
     11630 MEOH     629      MEOH     O1       OD31H     2.48830       15.5990           0  -1.02800       1.30000    
     11631 MEOH     629      MEOH     DO1      DRUD     -2.48830      0.400000           0   0.00000       0.00000    
     11632 MEOH     629      MEOH     HO1      HDP1A    0.360000       1.00800           0   0.00000       0.00000    
     11633 MEOH     629      MEOH     HO2      DUMH      0.00000       1.00800           0   0.00000       0.00000    
     11634 MEOH     629      MEOH     H1A      HDA3B    0.800000E-01   1.00800           0   0.00000       0.00000    
     11635 MEOH     629      MEOH     H1B      HDA3B    0.800000E-01   1.00800           0   0.00000       0.00000    
     11636 MEOH     629      MEOH     H1C      HDA3B    0.800000E-01   1.00800           0   0.00000       0.00000    
     11637 MEOH     629      MEOH     LP1A     LPD     -0.230000       0.00000          -1   0.00000       0.00000    
     11638 MEOH     629      MEOH     LP1B     LPD     -0.230000       0.00000          -1   0.00000       0.00000    
     11639 MEOH     630      MEOH     C1       CD33B     2.31410       11.6110           0  -1.00000       1.30000    
     11640 MEOH     630      MEOH     DC1      DRUD     -2.45410      0.400000           0   0.00000       0.00000    
     11641 MEOH     630      MEOH     O1       OD31H     2.48830       15.5990           0  -1.02800       1.30000    
     11642 MEOH     630      MEOH     DO1      DRUD     -2.48830      0.400000           0   0.00000       0.00000    
     11643 MEOH     630      MEOH     HO1      HDP1A    0.360000       1.00800           0   0.00000       0.00000    
     11644 MEOH     630      MEOH     HO2      DUMH      0.00000       1.00800           0   0.00000       0.00000    
     11645 MEOH     630      MEOH     H1A      HDA3B    0.800000E-01   1.00800           0   0.00000       0.00000    
     11646 MEOH     630      MEOH     H1B      HDA3B    0.800000E-01   1.00800           0   0.00000       0.00000    
     11647 MEOH     630      MEOH     H1C      HDA3B    0.800000E-01   1.00800           0   0.00000       0.00000    
     11648 MEOH     630      MEOH     LP1A     LPD     -0.230000       0.00000          -1   0.00000       0.00000    
     11649 MEOH     630      MEOH     LP1B     LPD     -0.230000       0.00000          -1   0.00000       0.00000    
     11650 MEOH     631      MEOH     C1       CD33B     2.31410       11.6110           0  -1.00000       1.30000    
     11651 MEOH     631      MEOH     DC1      DRUD     -2.45410      0.400000           0   0.00000       0.00000    
     11652 MEOH     631      MEOH     O1       OD31H     2.48830       15.5990           0  -1.02800       1.30000    
     11653 MEOH     631      MEOH     DO1      DRUD     -2.48830      0.400000           0   0.00000       0.00000    
     11654 MEOH     631      MEOH     HO1      HDP1A    0.360000       1.00800           0   0.00000       0.00000    
     11655 MEOH     631      MEOH     HO2      DUMH      0.00000       1.00800           0   0.00000       0.00000    
     11656 MEOH     631      MEOH     H1A      HDA3B    0.800000E-01   1.00800           0   0.00000       0.00000    
     11657 MEOH     631      MEOH     H1B      HDA3B    0.800000E-01   1.00800           0   0.00000       0.00000    
     11658 MEOH     631      MEOH     H1C      HDA3B    0.800000E-01   1.00800           0   0.00000       0.00000    
     11659 MEOH     631      MEOH     LP1A     LPD     -0.230000       0.00000          -1   0.00000       0.00000    
     11660 MEOH     631      MEOH     LP1B     LPD     -0.230000       0.00000          -1   0.00000       0.00000    
     11661 MEOH     632      MEOH     C1       CD33B     2.31410       11.6110           0  -1.00000       1.30000    
     11662 MEOH     632      MEOH     DC1      DRUD     -2.45410      0.400000           0   0.00000       0.00000    
     11663 MEOH     632      MEOH     O1       OD31H     2.48830       15.5990           0  -1.02800       1.30000    
     11664 MEOH     632      MEOH     DO1      DRUD     -2.48830      0.400000           0   0.00000       0.00000    
     11665 MEOH     632      MEOH     HO1      HDP1A    0.360000       1.00800           0   0.00000       0.00000    
     11666 MEOH     632      MEOH     HO2      DUMH      0.00000       1.00800           0   0.00000       0.00000    
     11667 MEOH     632      MEOH     H1A      HDA3B    0.800000E-01   1.00800           0   0.00000       0.00000    
     11668 MEOH     632      MEOH     H1B      HDA3B    0.800000E-01   1.00800           0   0.00000       0.00000    
     11669 MEOH     632      MEOH     H1C      HDA3B    0.800000E-01   1.00800           0   0.00000       0.00000    
     11670 MEOH     632      MEOH     LP1A     LPD     -0.230000       0.00000          -1   0.00000       0.00000    
     11671 MEOH     632      MEOH     LP1B     LPD     -0.230000       0.00000          -1   0.00000       0.00000    
     11672 MEOH     633      MEOH     C1       CD33B     2.31410       11.6110           0  -1.00000       1.30000    
     11673 MEOH     633      MEOH     DC1      DRUD     -2.45410      0.400000           0   0.00000       0.00000    
     11674 MEOH     633      MEOH     O1       OD31H     2.48830       15.5990           0  -1.02800       1.30000    
     11675 MEOH     633      MEOH     DO1      DRUD     -2.48830      0.400000           0   0.00000       0.00000    
     11676 MEOH     633      MEOH     HO1      HDP1A    0.360000       1.00800           0   0.00000       0.00000    
     11677 MEOH     633      MEOH     HO2      DUMH      0.00000       1.00800           0   0.00000       0.00000    
     11678 MEOH     633      MEOH     H1A      HDA3B    0.800000E-01   1.00800           0   0.00000       0.00000    
     11679 MEOH     633      MEOH     H1B      HDA3B    0.800000E-01   1.00800           0   0.00000       0.00000    
     11680 MEOH     633      MEOH     H1C      HDA3B    0.800000E-01   1.00800           0   0.00000       0.00000    
     11681 MEOH     633      MEOH     LP1A     LPD     -0.230000       0.00000          -1   0.00000       0.00000    
     11682 MEOH     633      MEOH     LP1B     LPD     -0.230000       0.00000          -1   0.00000       0.00000    
     11683 MEOH     634      MEOH     C1       CD33B     2.31410       11.6110           0  -1.00000       1.30000    
     11684 MEOH     634      MEOH     DC1      DRUD     -2.45410      0.400000           0   0.00000       0.00000    
     11685 MEOH     634      MEOH     O1       OD31H     2.48830       15.5990           0  -1.02800       1.30000    
     11686 MEOH     634      MEOH     DO1      DRUD     -2.48830      0.400000           0   0.00000       0.00000    
     11687 MEOH     634      MEOH     HO1      HDP1A    0.360000       1.00800           0   0.00000       0.00000    
     11688 MEOH     634      MEOH     HO2      DUMH      0.00000       1.00800           0   0.00000       0.00000    
     11689 MEOH     634      MEOH     H1A      HDA3B    0.800000E-01   1.00800           0   0.00000       0.00000    
     11690 MEOH     634      MEOH     H1B      HDA3B    0.800000E-01   1.00800           0   0.00000       0.00000    
     11691 MEOH     634      MEOH     H1C      HDA3B    0.800000E-01   1.00800           0   0.00000       0.00000    
     11692 MEOH     634      MEOH     LP1A     LPD     -0.230000       0.00000          -1   0.00000       0.00000    
     11693 MEOH     634      MEOH     LP1B     LPD     -0.230000       0.00000          -1   0.00000       0.00000    
     11694 MEOH     635      MEOH     C1       CD33B     2.31410       11.6110           0  -1.00000       1.30000    
     11695 MEOH     635      MEOH     DC1      DRUD     -2.45410      0.400000           0   0.00000       0.00000    
     11696 MEOH     635      MEOH     O1       OD31H     2.48830       15.5990           0  -1.02800       1.30000    
     11697 MEOH     635      MEOH     DO1      DRUD     -2.48830      0.400000           0   0.00000       0.00000    
     11698 MEOH     635      MEOH     HO1      HDP1A    0.360000       1.00800           0   0.00000       0.00000    
     11699 MEOH     635      MEOH     HO2      DUMH      0.00000       1.00800           0   0.00000       0.00000    
     11700 MEOH     635      MEOH     H1A      HDA3B    0.800000E-01   1.00800           0   0.00000       0.00000    
     11701 MEOH     635      MEOH     H1B      HDA3B    0.800000E-01   1.00800           0   0.00000       0.00000    
     11702 MEOH     635      MEOH     H1C      HDA3B    0.800000E-01   1.00800           0   0.00000       0.00000    
     11703 MEOH     635      MEOH     LP1A     LPD     -0.230000       0.00000          -1   0.00000       0.00000    
     11704 MEOH     635      MEOH     LP1B     LPD     -0.230000       0.00000          -1   0.00000       0.00000    
     11705 MEOH     636      MEOH     C1       CD33B     2.31410       11.6110           0  -1.00000       1.30000    
     11706 MEOH     636      MEOH     DC1      DRUD     -2.45410      0.400000           0   0.00000       0.00000    
     11707 MEOH     636      MEOH     O1       OD31H     2.48830       15.5990           0  -1.02800       1.30000    
     11708 MEOH     636      MEOH     DO1      DRUD     -2.48830      0.400000           0   0.00000       0.00000    
     11709 MEOH     636      MEOH     HO1      HDP1A    0.360000       1.00800           0   0.00000       0.00000    
     11710 MEOH     636      MEOH     HO2      DUMH      0.00000       1.00800           0   0.00000       0.00000    
     11711 MEOH     636      MEOH     H1A      HDA3B    0.800000E-01   1.00800           0   0.00000       0.00000    
     11712 MEOH     636      MEOH     H1B      HDA3B    0.800000E-01   1.00800           0   0.00000       0.00000    
     11713 MEOH     636      MEOH     H1C      HDA3B    0.800000E-01   1.00800           0   0.00000       0.00000    
     11714 MEOH     636      MEOH     LP1A     LPD     -0.230000       0.00000          -1   0.00000       0.00000    
     11715 MEOH     636      MEOH     LP1B     LPD     -0.230000       0.00000          -1   0.00000       0.00000    
     11716 MEOH     637      MEOH     C1       CD33B     2.31410       11.6110           0  -1.00000       1.30000    
     11717 MEOH     637      MEOH     DC1      DRUD     -2.45410      0.400000           0   0.00000       0.00000    
     11718 MEOH     637      MEOH     O1       OD31H     2.48830       15.5990           0  -1.02800       1.30000    
     11719 MEOH     637      MEOH     DO1      DRUD     -2.48830      0.400000           0   0.00000       0.00000    
     11720 MEOH     637      MEOH     HO1      HDP1A    0.360000       1.00800           0   0.00000       0.00000    
     11721 MEOH     637      MEOH     HO2      DUMH      0.00000       1.00800           0   0.00000       0.00000    
     11722 MEOH     637      MEOH     H1A      HDA3B    0.800000E-01   1.00800           0   0.00000       0.00000    
     11723 MEOH     637      MEOH     H1B      HDA3B    0.800000E-01   1.00800           0   0.00000       0.00000    
     11724 MEOH     637      MEOH     H1C      HDA3B    0.800000E-01   1.00800           0   0.00000       0.00000    
     11725 MEOH     637      MEOH     LP1A     LPD     -0.230000       0.00000          -1   0.00000       0.00000    
     11726 MEOH     637      MEOH     LP1B     LPD     -0.230000       0.00000          -1   0.00000       0.00000    
     11727 MEOH     638      MEOH     C1       CD33B     2.31410       11.6110           0  -1.00000       1.30000    
     11728 MEOH     638      MEOH     DC1      DRUD     -2.45410      0.400000           0   0.00000       0.00000    
     11729 MEOH     638      MEOH     O1       OD31H     2.48830       15.5990           0  -1.02800       1.30000    
     11730 MEOH     638      MEOH     DO1      DRUD     -2.48830      0.400000           0   0.00000       0.00000    
     11731 MEOH     638      MEOH     HO1      HDP1A    0.360000       1.00800           0   0.00000       0.00000    
     11732 MEOH     638      MEOH     HO2      DUMH      0.00000       1.00800           0   0.00000       0.00000    
     11733 MEOH     638      MEOH     H1A      HDA3B    0.800000E-01   1.00800           0   0.00000       0.00000    
     11734 MEOH     638      MEOH     H1B      HDA3B    0.800000E-01   1.00800           0   0.00000       0.00000    
     11735 MEOH     638      MEOH     H1C      HDA3B    0.800000E-01   1.00800           0   0.00000       0.00000    
     11736 MEOH     638      MEOH     LP1A     LPD     -0.230000       0.00000          -1   0.00000       0.00000    
     11737 MEOH     638      MEOH     LP1B     LPD     -0.230000       0.00000          -1   0.00000       0.00000    
     11738 MEOH     639      MEOH     C1       CD33B     2.31410       11.6110           0  -1.00000       1.30000    
     11739 MEOH     639      MEOH     DC1      DRUD     -2.45410      0.400000           0   0.00000       0.00000    
     11740 MEOH     639      MEOH     O1       OD31H     2.48830       15.5990           0  -1.02800       1.30000    
     11741 MEOH     639      MEOH     DO1      DRUD     -2.48830      0.400000           0   0.00000       0.00000    
     11742 MEOH     639      MEOH     HO1      HDP1A    0.360000       1.00800           0   0.00000       0.00000    
     11743 MEOH     639      MEOH     HO2      DUMH      0.00000       1.00800           0   0.00000       0.00000    
     11744 MEOH     639      MEOH     H1A      HDA3B    0.800000E-01   1.00800           0   0.00000       0.00000    
     11745 MEOH     639      MEOH     H1B      HDA3B    0.800000E-01   1.00800           0   0.00000       0.00000    
     11746 MEOH     639      MEOH     H1C      HDA3B    0.800000E-01   1.00800           0   0.00000       0.00000    
     11747 MEOH     639      MEOH     LP1A     LPD     -0.230000       0.00000          -1   0.00000       0.00000    
     11748 MEOH     639      MEOH     LP1B     LPD     -0.230000       0.00000          -1   0.00000       0.00000    
     11749 MEOH     640      MEOH     C1       CD33B     2.31410       11.6110           0  -1.00000       1.30000    
     11750 MEOH     640      MEOH     DC1      DRUD     -2.45410      0.400000           0   0.00000       0.00000    
     11751 MEOH     640      MEOH     O1       OD31H     2.48830       15.5990           0  -1.02800       1.30000    
     11752 MEOH     640      MEOH     DO1      DRUD     -2.48830      0.400000           0   0.00000       0.00000    
     11753 MEOH     640      MEOH     HO1      HDP1A    0.360000       1.00800           0   0.00000       0.00000    
     11754 MEOH     640      MEOH     HO2      DUMH      0.00000       1.00800           0   0.00000       0.00000    
     11755 MEOH     640      MEOH     H1A      HDA3B    0.800000E-01   1.00800           0   0.00000       0.00000    
     11756 MEOH     640      MEOH     H1B      HDA3B    0.800000E-01   1.00800           0   0.00000       0.00000    
     11757 MEOH     640      MEOH     H1C      HDA3B    0.800000E-01   1.00800           0   0.00000       0.00000    
     11758 MEOH     640      MEOH     LP1A     LPD     -0.230000       0.00000          -1   0.00000       0.00000    
     11759 MEOH     640      MEOH     LP1B     LPD     -0.230000       0.00000          -1   0.00000       0.00000    
     11760 MEOH     641      MEOH     C1       CD33B     2.31410       11.6110           0  -1.00000       1.30000    
     11761 MEOH     641      MEOH     DC1      DRUD     -2.45410      0.400000           0   0.00000       0.00000    
     11762 MEOH     641      MEOH     O1       OD31H     2.48830       15.5990           0  -1.02800       1.30000    
     11763 MEOH     641      MEOH     DO1      DRUD     -2.48830      0.400000           0   0.00000       0.00000    
     11764 MEOH     641      MEOH     HO1      HDP1A    0.360000       1.00800           0   0.00000       0.00000    
     11765 MEOH     641      MEOH     HO2      DUMH      0.00000       1.00800           0   0.00000       0.00000    
     11766 MEOH     641      MEOH     H1A      HDA3B    0.800000E-01   1.00800           0   0.00000       0.00000    
     11767 MEOH     641      MEOH     H1B      HDA3B    0.800000E-01   1.00800           0   0.00000       0.00000    
     11768 MEOH     641      MEOH     H1C      HDA3B    0.800000E-01   1.00800           0   0.00000       0.00000    
     11769 MEOH     641      MEOH     LP1A     LPD     -0.230000       0.00000          -1   0.00000       0.00000    
     11770 MEOH     641      MEOH     LP1B     LPD     -0.230000       0.00000          -1   0.00000       0.00000    
     11771 MEOH     642      MEOH     C1       CD33B     2.31410       11.6110           0  -1.00000       1.30000    
     11772 MEOH     642      MEOH     DC1      DRUD     -2.45410      0.400000           0   0.00000       0.00000    
     11773 MEOH     642      MEOH     O1       OD31H     2.48830       15.5990           0  -1.02800       1.30000    
     11774 MEOH     642      MEOH     DO1      DRUD     -2.48830      0.400000           0   0.00000       0.00000    
     11775 MEOH     642      MEOH     HO1      HDP1A    0.360000       1.00800           0   0.00000       0.00000    
     11776 MEOH     642      MEOH     HO2      DUMH      0.00000       1.00800           0   0.00000       0.00000    
     11777 MEOH     642      MEOH     H1A      HDA3B    0.800000E-01   1.00800           0   0.00000       0.00000    
     11778 MEOH     642      MEOH     H1B      HDA3B    0.800000E-01   1.00800           0   0.00000       0.00000    
     11779 MEOH     642      MEOH     H1C      HDA3B    0.800000E-01   1.00800           0   0.00000       0.00000    
     11780 MEOH     642      MEOH     LP1A     LPD     -0.230000       0.00000          -1   0.00000       0.00000    
     11781 MEOH     642      MEOH     LP1B     LPD     -0.230000       0.00000          -1   0.00000       0.00000    
     11782 MEOH     643      MEOH     C1       CD33B     2.31410       11.6110           0  -1.00000       1.30000    
     11783 MEOH     643      MEOH     DC1      DRUD     -2.45410      0.400000           0   0.00000       0.00000    
     11784 MEOH     643      MEOH     O1       OD31H     2.48830       15.5990           0  -1.02800       1.30000    
     11785 MEOH     643      MEOH     DO1      DRUD     -2.48830      0.400000           0   0.00000       0.00000    
     11786 MEOH     643      MEOH     HO1      HDP1A    0.360000       1.00800           0   0.00000       0.00000    
     11787 MEOH     643      MEOH     HO2      DUMH      0.00000       1.00800           0   0.00000       0.00000    
     11788 MEOH     643      MEOH     H1A      HDA3B    0.800000E-01   1.00800           0   0.00000       0.00000    
     11789 MEOH     643      MEOH     H1B      HDA3B    0.800000E-01   1.00800           0   0.00000       0.00000    
     11790 MEOH     643      MEOH     H1C      HDA3B    0.800000E-01   1.00800           0   0.00000       0.00000    
     11791 MEOH     643      MEOH     LP1A     LPD     -0.230000       0.00000          -1   0.00000       0.00000    
     11792 MEOH     643      MEOH     LP1B     LPD     -0.230000       0.00000          -1   0.00000       0.00000    
     11793 MEOH     644      MEOH     C1       CD33B     2.31410       11.6110           0  -1.00000       1.30000    
     11794 MEOH     644      MEOH     DC1      DRUD     -2.45410      0.400000           0   0.00000       0.00000    
     11795 MEOH     644      MEOH     O1       OD31H     2.48830       15.5990           0  -1.02800       1.30000    
     11796 MEOH     644      MEOH     DO1      DRUD     -2.48830      0.400000           0   0.00000       0.00000    
     11797 MEOH     644      MEOH     HO1      HDP1A    0.360000       1.00800           0   0.00000       0.00000    
     11798 MEOH     644      MEOH     HO2      DUMH      0.00000       1.00800           0   0.00000       0.00000    
     11799 MEOH     644      MEOH     H1A      HDA3B    0.800000E-01   1.00800           0   0.00000       0.00000    
     11800 MEOH     644      MEOH     H1B      HDA3B    0.800000E-01   1.00800           0   0.00000       0.00000    
     11801 MEOH     644      MEOH     H1C      HDA3B    0.800000E-01   1.00800           0   0.00000       0.00000    
     11802 MEOH     644      MEOH     LP1A     LPD     -0.230000       0.00000          -1   0.00000       0.00000    
     11803 MEOH     644      MEOH     LP1B     LPD     -0.230000       0.00000          -1   0.00000       0.00000    
     11804 MEOH     645      MEOH     C1       CD33B     2.31410       11.6110           0  -1.00000       1.30000    
     11805 MEOH     645      MEOH     DC1      DRUD     -2.45410      0.400000           0   0.00000       0.00000    
     11806 MEOH     645      MEOH     O1       OD31H     2.48830       15.5990           0  -1.02800       1.30000    
     11807 MEOH     645      MEOH     DO1      DRUD     -2.48830      0.400000           0   0.00000       0.00000    
     11808 MEOH     645      MEOH     HO1      HDP1A    0.360000       1.00800           0   0.00000       0.00000    
     11809 MEOH     645      MEOH     HO2      DUMH      0.00000       1.00800           0   0.00000       0.00000    
     11810 MEOH     645      MEOH     H1A      HDA3B    0.800000E-01   1.00800           0   0.00000       0.00000    
     11811 MEOH     645      MEOH     H1B      HDA3B    0.800000E-01   1.00800           0   0.00000       0.00000    
     11812 MEOH     645      MEOH     H1C      HDA3B    0.800000E-01   1.00800           0   0.00000       0.00000    
     11813 MEOH     645      MEOH     LP1A     LPD     -0.230000       0.00000          -1   0.00000       0.00000    
     11814 MEOH     645      MEOH     LP1B     LPD     -0.230000       0.00000          -1   0.00000       0.00000    
     11815 MEOH     646      MEOH     C1       CD33B     2.31410       11.6110           0  -1.00000       1.30000    
     11816 MEOH     646      MEOH     DC1      DRUD     -2.45410      0.400000           0   0.00000       0.00000    
     11817 MEOH     646      MEOH     O1       OD31H     2.48830       15.5990           0  -1.02800       1.30000    
     11818 MEOH     646      MEOH     DO1      DRUD     -2.48830      0.400000           0   0.00000       0.00000    
     11819 MEOH     646      MEOH     HO1      HDP1A    0.360000       1.00800           0   0.00000       0.00000    
     11820 MEOH     646      MEOH     HO2      DUMH      0.00000       1.00800           0   0.00000       0.00000    
     11821 MEOH     646      MEOH     H1A      HDA3B    0.800000E-01   1.00800           0   0.00000       0.00000    
     11822 MEOH     646      MEOH     H1B      HDA3B    0.800000E-01   1.00800           0   0.00000       0.00000    
     11823 MEOH     646      MEOH     H1C      HDA3B    0.800000E-01   1.00800           0   0.00000       0.00000    
     11824 MEOH     646      MEOH     LP1A     LPD     -0.230000       0.00000          -1   0.00000       0.00000    
     11825 MEOH     646      MEOH     LP1B     LPD     -0.230000       0.00000          -1   0.00000       0.00000    
     11826 MEOH     647      MEOH     C1       CD33B     2.31410       11.6110           0  -1.00000       1.30000    
     11827 MEOH     647      MEOH     DC1      DRUD     -2.45410      0.400000           0   0.00000       0.00000    
     11828 MEOH     647      MEOH     O1       OD31H     2.48830       15.5990           0  -1.02800       1.30000    
     11829 MEOH     647      MEOH     DO1      DRUD     -2.48830      0.400000           0   0.00000       0.00000    
     11830 MEOH     647      MEOH     HO1      HDP1A    0.360000       1.00800           0   0.00000       0.00000    
     11831 MEOH     647      MEOH     HO2      DUMH      0.00000       1.00800           0   0.00000       0.00000    
     11832 MEOH     647      MEOH     H1A      HDA3B    0.800000E-01   1.00800           0   0.00000       0.00000    
     11833 MEOH     647      MEOH     H1B      HDA3B    0.800000E-01   1.00800           0   0.00000       0.00000    
     11834 MEOH     647      MEOH     H1C      HDA3B    0.800000E-01   1.00800           0   0.00000       0.00000    
     11835 MEOH     647      MEOH     LP1A     LPD     -0.230000       0.00000          -1   0.00000       0.00000    
     11836 MEOH     647      MEOH     LP1B     LPD     -0.230000       0.00000          -1   0.00000       0.00000    
     11837 MEOH     648      MEOH     C1       CD33B     2.31410       11.6110           0  -1.00000       1.30000    
     11838 MEOH     648      MEOH     DC1      DRUD     -2.45410      0.400000           0   0.00000       0.00000    
     11839 MEOH     648      MEOH     O1       OD31H     2.48830       15.5990           0  -1.02800       1.30000    
     11840 MEOH     648      MEOH     DO1      DRUD     -2.48830      0.400000           0   0.00000       0.00000    
     11841 MEOH     648      MEOH     HO1      HDP1A    0.360000       1.00800           0   0.00000       0.00000    
     11842 MEOH     648      MEOH     HO2      DUMH      0.00000       1.00800           0   0.00000       0.00000    
     11843 MEOH     648      MEOH     H1A      HDA3B    0.800000E-01   1.00800           0   0.00000       0.00000    
     11844 MEOH     648      MEOH     H1B      HDA3B    0.800000E-01   1.00800           0   0.00000       0.00000    
     11845 MEOH     648      MEOH     H1C      HDA3B    0.800000E-01   1.00800           0   0.00000       0.00000    
     11846 MEOH     648      MEOH     LP1A     LPD     -0.230000       0.00000          -1   0.00000       0.00000    
     11847 MEOH     648      MEOH     LP1B     LPD     -0.230000       0.00000          -1   0.00000       0.00000    
     11848 MEOH     649      MEOH     C1       CD33B     2.31410       11.6110           0  -1.00000       1.30000    
     11849 MEOH     649      MEOH     DC1      DRUD     -2.45410      0.400000           0   0.00000       0.00000    
     11850 MEOH     649      MEOH     O1       OD31H     2.48830       15.5990           0  -1.02800       1.30000    
     11851 MEOH     649      MEOH     DO1      DRUD     -2.48830      0.400000           0   0.00000       0.00000    
     11852 MEOH     649      MEOH     HO1      HDP1A    0.360000       1.00800           0   0.00000       0.00000    
     11853 MEOH     649      MEOH     HO2      DUMH      0.00000       1.00800           0   0.00000       0.00000    
     11854 MEOH     649      MEOH     H1A      HDA3B    0.800000E-01   1.00800           0   0.00000       0.00000    
     11855 MEOH     649      MEOH     H1B      HDA3B    0.800000E-01   1.00800           0   0.00000       0.00000    
     11856 MEOH     649      MEOH     H1C      HDA3B    0.800000E-01   1.00800           0   0.00000       0.00000    
     11857 MEOH     649      MEOH     LP1A     LPD     -0.230000       0.00000          -1   0.00000       0.00000    
     11858 MEOH     649      MEOH     LP1B     LPD     -0.230000       0.00000          -1   0.00000       0.00000    
     11859 MEOH     650      MEOH     C1       CD33B     2.31410       11.6110           0  -1.00000       1.30000    
     11860 MEOH     650      MEOH     DC1      DRUD     -2.45410      0.400000           0   0.00000       0.00000    
     11861 MEOH     650      MEOH     O1       OD31H     2.48830       15.5990           0  -1.02800       1.30000    
     11862 MEOH     650      MEOH     DO1      DRUD     -2.48830      0.400000           0   0.00000       0.00000    
     11863 MEOH     650      MEOH     HO1      HDP1A    0.360000       1.00800           0   0.00000       0.00000    
     11864 MEOH     650      MEOH     HO2      DUMH      0.00000       1.00800           0   0.00000       0.00000    
     11865 MEOH     650      MEOH     H1A      HDA3B    0.800000E-01   1.00800           0   0.00000       0.00000    
     11866 MEOH     650      MEOH     H1B      HDA3B    0.800000E-01   1.00800           0   0.00000       0.00000    
     11867 MEOH     650      MEOH     H1C      HDA3B    0.800000E-01   1.00800           0   0.00000       0.00000    
     11868 MEOH     650      MEOH     LP1A     LPD     -0.230000       0.00000          -1   0.00000       0.00000    
     11869 MEOH     650      MEOH     LP1B     LPD     -0.230000       0.00000          -1   0.00000       0.00000    
     11870 MEOH     651      MEOH     C1       CD33B     2.31410       11.6110           0  -1.00000       1.30000    
     11871 MEOH     651      MEOH     DC1      DRUD     -2.45410      0.400000           0   0.00000       0.00000    
     11872 MEOH     651      MEOH     O1       OD31H     2.48830       15.5990           0  -1.02800       1.30000    
     11873 MEOH     651      MEOH     DO1      DRUD     -2.48830      0.400000           0   0.00000       0.00000    
     11874 MEOH     651      MEOH     HO1      HDP1A    0.360000       1.00800           0   0.00000       0.00000    
     11875 MEOH     651      MEOH     HO2      DUMH      0.00000       1.00800           0   0.00000       0.00000    
     11876 MEOH     651      MEOH     H1A      HDA3B    0.800000E-01   1.00800           0   0.00000       0.00000    
     11877 MEOH     651      MEOH     H1B      HDA3B    0.800000E-01   1.00800           0   0.00000       0.00000    
     11878 MEOH     651      MEOH     H1C      HDA3B    0.800000E-01   1.00800           0   0.00000       0.00000    
     11879 MEOH     651      MEOH     LP1A     LPD     -0.230000       0.00000          -1   0.00000       0.00000    
     11880 MEOH     651      MEOH     LP1B     LPD     -0.230000       0.00000          -1   0.00000       0.00000    
     11881 MEOH     652      MEOH     C1       CD33B     2.31410       11.6110           0  -1.00000       1.30000    
     11882 MEOH     652      MEOH     DC1      DRUD     -2.45410      0.400000           0   0.00000       0.00000    
     11883 MEOH     652      MEOH     O1       OD31H     2.48830       15.5990           0  -1.02800       1.30000    
     11884 MEOH     652      MEOH     DO1      DRUD     -2.48830      0.400000           0   0.00000       0.00000    
     11885 MEOH     652      MEOH     HO1      HDP1A    0.360000       1.00800           0   0.00000       0.00000    
     11886 MEOH     652      MEOH     HO2      DUMH      0.00000       1.00800           0   0.00000       0.00000    
     11887 MEOH     652      MEOH     H1A      HDA3B    0.800000E-01   1.00800           0   0.00000       0.00000    
     11888 MEOH     652      MEOH     H1B      HDA3B    0.800000E-01   1.00800           0   0.00000       0.00000    
     11889 MEOH     652      MEOH     H1C      HDA3B    0.800000E-01   1.00800           0   0.00000       0.00000    
     11890 MEOH     652      MEOH     LP1A     LPD     -0.230000       0.00000          -1   0.00000       0.00000    
     11891 MEOH     652      MEOH     LP1B     LPD     -0.230000       0.00000          -1   0.00000       0.00000    
     11892 MEOH     653      MEOH     C1       CD33B     2.31410       11.6110           0  -1.00000       1.30000    
     11893 MEOH     653      MEOH     DC1      DRUD     -2.45410      0.400000           0   0.00000       0.00000    
     11894 MEOH     653      MEOH     O1       OD31H     2.48830       15.5990           0  -1.02800       1.30000    
     11895 MEOH     653      MEOH     DO1      DRUD     -2.48830      0.400000           0   0.00000       0.00000    
     11896 MEOH     653      MEOH     HO1      HDP1A    0.360000       1.00800           0   0.00000       0.00000    
     11897 MEOH     653      MEOH     HO2      DUMH      0.00000       1.00800           0   0.00000       0.00000    
     11898 MEOH     653      MEOH     H1A      HDA3B    0.800000E-01   1.00800           0   0.00000       0.00000    
     11899 MEOH     653      MEOH     H1B      HDA3B    0.800000E-01   1.00800           0   0.00000       0.00000    
     11900 MEOH     653      MEOH     H1C      HDA3B    0.800000E-01   1.00800           0   0.00000       0.00000    
     11901 MEOH     653      MEOH     LP1A     LPD     -0.230000       0.00000          -1   0.00000       0.00000    
     11902 MEOH     653      MEOH     LP1B     LPD     -0.230000       0.00000          -1   0.00000       0.00000    
     11903 MEOH     654      MEOH     C1       CD33B     2.31410       11.6110           0  -1.00000       1.30000    
     11904 MEOH     654      MEOH     DC1      DRUD     -2.45410      0.400000           0   0.00000       0.00000    
     11905 MEOH     654      MEOH     O1       OD31H     2.48830       15.5990           0  -1.02800       1.30000    
     11906 MEOH     654      MEOH     DO1      DRUD     -2.48830      0.400000           0   0.00000       0.00000    
     11907 MEOH     654      MEOH     HO1      HDP1A    0.360000       1.00800           0   0.00000       0.00000    
     11908 MEOH     654      MEOH     HO2      DUMH      0.00000       1.00800           0   0.00000       0.00000    
     11909 MEOH     654      MEOH     H1A      HDA3B    0.800000E-01   1.00800           0   0.00000       0.00000    
     11910 MEOH     654      MEOH     H1B      HDA3B    0.800000E-01   1.00800           0   0.00000       0.00000    
     11911 MEOH     654      MEOH     H1C      HDA3B    0.800000E-01   1.00800           0   0.00000       0.00000    
     11912 MEOH     654      MEOH     LP1A     LPD     -0.230000       0.00000          -1   0.00000       0.00000    
     11913 MEOH     654      MEOH     LP1B     LPD     -0.230000       0.00000          -1   0.00000       0.00000    
     11914 MEOH     655      MEOH     C1       CD33B     2.31410       11.6110           0  -1.00000       1.30000    
     11915 MEOH     655      MEOH     DC1      DRUD     -2.45410      0.400000           0   0.00000       0.00000    
     11916 MEOH     655      MEOH     O1       OD31H     2.48830       15.5990           0  -1.02800       1.30000    
     11917 MEOH     655      MEOH     DO1      DRUD     -2.48830      0.400000           0   0.00000       0.00000    
     11918 MEOH     655      MEOH     HO1      HDP1A    0.360000       1.00800           0   0.00000       0.00000    
     11919 MEOH     655      MEOH     HO2      DUMH      0.00000       1.00800           0   0.00000       0.00000    
     11920 MEOH     655      MEOH     H1A      HDA3B    0.800000E-01   1.00800           0   0.00000       0.00000    
     11921 MEOH     655      MEOH     H1B      HDA3B    0.800000E-01   1.00800           0   0.00000       0.00000    
     11922 MEOH     655      MEOH     H1C      HDA3B    0.800000E-01   1.00800           0   0.00000       0.00000    
     11923 MEOH     655      MEOH     LP1A     LPD     -0.230000       0.00000          -1   0.00000       0.00000    
     11924 MEOH     655      MEOH     LP1B     LPD     -0.230000       0.00000          -1   0.00000       0.00000    
     11925 MEOH     656      MEOH     C1       CD33B     2.31410       11.6110           0  -1.00000       1.30000    
     11926 MEOH     656      MEOH     DC1      DRUD     -2.45410      0.400000           0   0.00000       0.00000    
     11927 MEOH     656      MEOH     O1       OD31H     2.48830       15.5990           0  -1.02800       1.30000    
     11928 MEOH     656      MEOH     DO1      DRUD     -2.48830      0.400000           0   0.00000       0.00000    
     11929 MEOH     656      MEOH     HO1      HDP1A    0.360000       1.00800           0   0.00000       0.00000    
     11930 MEOH     656      MEOH     HO2      DUMH      0.00000       1.00800           0   0.00000       0.00000    
     11931 MEOH     656      MEOH     H1A      HDA3B    0.800000E-01   1.00800           0   0.00000       0.00000    
     11932 MEOH     656      MEOH     H1B      HDA3B    0.800000E-01   1.00800           0   0.00000       0.00000    
     11933 MEOH     656      MEOH     H1C      HDA3B    0.800000E-01   1.00800           0   0.00000       0.00000    
     11934 MEOH     656      MEOH     LP1A     LPD     -0.230000       0.00000          -1   0.00000       0.00000    
     11935 MEOH     656      MEOH     LP1B     LPD     -0.230000       0.00000          -1   0.00000       0.00000    
     11936 MEOH     657      MEOH     C1       CD33B     2.31410       11.6110           0  -1.00000       1.30000    
     11937 MEOH     657      MEOH     DC1      DRUD     -2.45410      0.400000           0   0.00000       0.00000    
     11938 MEOH     657      MEOH     O1       OD31H     2.48830       15.5990           0  -1.02800       1.30000    
     11939 MEOH     657      MEOH     DO1      DRUD     -2.48830      0.400000           0   0.00000       0.00000    
     11940 MEOH     657      MEOH     HO1      HDP1A    0.360000       1.00800           0   0.00000       0.00000    
     11941 MEOH     657      MEOH     HO2      DUMH      0.00000       1.00800           0   0.00000       0.00000    
     11942 MEOH     657      MEOH     H1A      HDA3B    0.800000E-01   1.00800           0   0.00000       0.00000    
     11943 MEOH     657      MEOH     H1B      HDA3B    0.800000E-01   1.00800           0   0.00000       0.00000    
     11944 MEOH     657      MEOH     H1C      HDA3B    0.800000E-01   1.00800           0   0.00000       0.00000    
     11945 MEOH     657      MEOH     LP1A     LPD     -0.230000       0.00000          -1   0.00000       0.00000    
     11946 MEOH     657      MEOH     LP1B     LPD     -0.230000       0.00000          -1   0.00000       0.00000    
     11947 MEOH     658      MEOH     C1       CD33B     2.31410       11.6110           0  -1.00000       1.30000    
     11948 MEOH     658      MEOH     DC1      DRUD     -2.45410      0.400000           0   0.00000       0.00000    
     11949 MEOH     658      MEOH     O1       OD31H     2.48830       15.5990           0  -1.02800       1.30000    
     11950 MEOH     658      MEOH     DO1      DRUD     -2.48830      0.400000           0   0.00000       0.00000    
     11951 MEOH     658      MEOH     HO1      HDP1A    0.360000       1.00800           0   0.00000       0.00000    
     11952 MEOH     658      MEOH     HO2      DUMH      0.00000       1.00800           0   0.00000       0.00000    
     11953 MEOH     658      MEOH     H1A      HDA3B    0.800000E-01   1.00800           0   0.00000       0.00000    
     11954 MEOH     658      MEOH     H1B      HDA3B    0.800000E-01   1.00800           0   0.00000       0.00000    
     11955 MEOH     658      MEOH     H1C      HDA3B    0.800000E-01   1.00800           0   0.00000       0.00000    
     11956 MEOH     658      MEOH     LP1A     LPD     -0.230000       0.00000          -1   0.00000       0.00000    
     11957 MEOH     658      MEOH     LP1B     LPD     -0.230000       0.00000          -1   0.00000       0.00000    
     11958 MEOH     659      MEOH     C1       CD33B     2.31410       11.6110           0  -1.00000       1.30000    
     11959 MEOH     659      MEOH     DC1      DRUD     -2.45410      0.400000           0   0.00000       0.00000    
     11960 MEOH     659      MEOH     O1       OD31H     2.48830       15.5990           0  -1.02800       1.30000    
     11961 MEOH     659      MEOH     DO1      DRUD     -2.48830      0.400000           0   0.00000       0.00000    
     11962 MEOH     659      MEOH     HO1      HDP1A    0.360000       1.00800           0   0.00000       0.00000    
     11963 MEOH     659      MEOH     HO2      DUMH      0.00000       1.00800           0   0.00000       0.00000    
     11964 MEOH     659      MEOH     H1A      HDA3B    0.800000E-01   1.00800           0   0.00000       0.00000    
     11965 MEOH     659      MEOH     H1B      HDA3B    0.800000E-01   1.00800           0   0.00000       0.00000    
     11966 MEOH     659      MEOH     H1C      HDA3B    0.800000E-01   1.00800           0   0.00000       0.00000    
     11967 MEOH     659      MEOH     LP1A     LPD     -0.230000       0.00000          -1   0.00000       0.00000    
     11968 MEOH     659      MEOH     LP1B     LPD     -0.230000       0.00000          -1   0.00000       0.00000    
     11969 MEOH     660      MEOH     C1       CD33B     2.31410       11.6110           0  -1.00000       1.30000    
     11970 MEOH     660      MEOH     DC1      DRUD     -2.45410      0.400000           0   0.00000       0.00000    
     11971 MEOH     660      MEOH     O1       OD31H     2.48830       15.5990           0  -1.02800       1.30000    
     11972 MEOH     660      MEOH     DO1      DRUD     -2.48830      0.400000           0   0.00000       0.00000    
     11973 MEOH     660      MEOH     HO1      HDP1A    0.360000       1.00800           0   0.00000       0.00000    
     11974 MEOH     660      MEOH     HO2      DUMH      0.00000       1.00800           0   0.00000       0.00000    
     11975 MEOH     660      MEOH     H1A      HDA3B    0.800000E-01   1.00800           0   0.00000       0.00000    
     11976 MEOH     660      MEOH     H1B      HDA3B    0.800000E-01   1.00800           0   0.00000       0.00000    
     11977 MEOH     660      MEOH     H1C      HDA3B    0.800000E-01   1.00800           0   0.00000       0.00000    
     11978 MEOH     660      MEOH     LP1A     LPD     -0.230000       0.00000          -1   0.00000       0.00000    
     11979 MEOH     660      MEOH     LP1B     LPD     -0.230000       0.00000          -1   0.00000       0.00000    
     11980 MEOH     661      MEOH     C1       CD33B     2.31410       11.6110           0  -1.00000       1.30000    
     11981 MEOH     661      MEOH     DC1      DRUD     -2.45410      0.400000           0   0.00000       0.00000    
     11982 MEOH     661      MEOH     O1       OD31H     2.48830       15.5990           0  -1.02800       1.30000    
     11983 MEOH     661      MEOH     DO1      DRUD     -2.48830      0.400000           0   0.00000       0.00000    
     11984 MEOH     661      MEOH     HO1      HDP1A    0.360000       1.00800           0   0.00000       0.00000    
     11985 MEOH     661      MEOH     HO2      DUMH      0.00000       1.00800           0   0.00000       0.00000    
     11986 MEOH     661      MEOH     H1A      HDA3B    0.800000E-01   1.00800           0   0.00000       0.00000    
     11987 MEOH     661      MEOH     H1B      HDA3B    0.800000E-01   1.00800           0   0.00000       0.00000    
     11988 MEOH     661      MEOH     H1C      HDA3B    0.800000E-01   1.00800           0   0.00000       0.00000    
     11989 MEOH     661      MEOH     LP1A     LPD     -0.230000       0.00000          -1   0.00000       0.00000    
     11990 MEOH     661      MEOH     LP1B     LPD     -0.230000       0.00000          -1   0.00000       0.00000    
     11991 MEOH     662      MEOH     C1       CD33B     2.31410       11.6110           0  -1.00000       1.30000    
     11992 MEOH     662      MEOH     DC1      DRUD     -2.45410      0.400000           0   0.00000       0.00000    
     11993 MEOH     662      MEOH     O1       OD31H     2.48830       15.5990           0  -1.02800       1.30000    
     11994 MEOH     662      MEOH     DO1      DRUD     -2.48830      0.400000           0   0.00000       0.00000    
     11995 MEOH     662      MEOH     HO1      HDP1A    0.360000       1.00800           0   0.00000       0.00000    
     11996 MEOH     662      MEOH     HO2      DUMH      0.00000       1.00800           0   0.00000       0.00000    
     11997 MEOH     662      MEOH     H1A      HDA3B    0.800000E-01   1.00800           0   0.00000       0.00000    
     11998 MEOH     662      MEOH     H1B      HDA3B    0.800000E-01   1.00800           0   0.00000       0.00000    
     11999 MEOH     662      MEOH     H1C      HDA3B    0.800000E-01   1.00800           0   0.00000       0.00000    
     12000 MEOH     662      MEOH     LP1A     LPD     -0.230000       0.00000          -1   0.00000       0.00000    
     12001 MEOH     662      MEOH     LP1B     LPD     -0.230000       0.00000          -1   0.00000       0.00000    
     12002 MEOH     663      MEOH     C1       CD33B     2.31410       11.6110           0  -1.00000       1.30000    
     12003 MEOH     663      MEOH     DC1      DRUD     -2.45410      0.400000           0   0.00000       0.00000    
     12004 MEOH     663      MEOH     O1       OD31H     2.48830       15.5990           0  -1.02800       1.30000    
     12005 MEOH     663      MEOH     DO1      DRUD     -2.48830      0.400000           0   0.00000       0.00000    
     12006 MEOH     663      MEOH     HO1      HDP1A    0.360000       1.00800           0   0.00000       0.00000    
     12007 MEOH     663      MEOH     HO2      DUMH      0.00000       1.00800           0   0.00000       0.00000    
     12008 MEOH     663      MEOH     H1A      HDA3B    0.800000E-01   1.00800           0   0.00000       0.00000    
     12009 MEOH     663      MEOH     H1B      HDA3B    0.800000E-01   1.00800           0   0.00000       0.00000    
     12010 MEOH     663      MEOH     H1C      HDA3B    0.800000E-01   1.00800           0   0.00000       0.00000    
     12011 MEOH     663      MEOH     LP1A     LPD     -0.230000       0.00000          -1   0.00000       0.00000    
     12012 MEOH     663      MEOH     LP1B     LPD     -0.230000       0.00000          -1   0.00000       0.00000    
     12013 MEOH     664      MEOH     C1       CD33B     2.31410       11.6110           0  -1.00000       1.30000    
     12014 MEOH     664      MEOH     DC1      DRUD     -2.45410      0.400000           0   0.00000       0.00000    
     12015 MEOH     664      MEOH     O1       OD31H     2.48830       15.5990           0  -1.02800       1.30000    
     12016 MEOH     664      MEOH     DO1      DRUD     -2.48830      0.400000           0   0.00000       0.00000    
     12017 MEOH     664      MEOH     HO1      HDP1A    0.360000       1.00800           0   0.00000       0.00000    
     12018 MEOH     664      MEOH     HO2      DUMH      0.00000       1.00800           0   0.00000       0.00000    
     12019 MEOH     664      MEOH     H1A      HDA3B    0.800000E-01   1.00800           0   0.00000       0.00000    
     12020 MEOH     664      MEOH     H1B      HDA3B    0.800000E-01   1.00800           0   0.00000       0.00000    
     12021 MEOH     664      MEOH     H1C      HDA3B    0.800000E-01   1.00800           0   0.00000       0.00000    
     12022 MEOH     664      MEOH     LP1A     LPD     -0.230000       0.00000          -1   0.00000       0.00000    
     12023 MEOH     664      MEOH     LP1B     LPD     -0.230000       0.00000          -1   0.00000       0.00000    
     12024 MEOH     665      MEOH     C1       CD33B     2.31410       11.6110           0  -1.00000       1.30000    
     12025 MEOH     665      MEOH     DC1      DRUD     -2.45410      0.400000           0   0.00000       0.00000    
     12026 MEOH     665      MEOH     O1       OD31H     2.48830       15.5990           0  -1.02800       1.30000    
     12027 MEOH     665      MEOH     DO1      DRUD     -2.48830      0.400000           0   0.00000       0.00000    
     12028 MEOH     665      MEOH     HO1      HDP1A    0.360000       1.00800           0   0.00000       0.00000    
     12029 MEOH     665      MEOH     HO2      DUMH      0.00000       1.00800           0   0.00000       0.00000    
     12030 MEOH     665      MEOH     H1A      HDA3B    0.800000E-01   1.00800           0   0.00000       0.00000    
     12031 MEOH     665      MEOH     H1B      HDA3B    0.800000E-01   1.00800           0   0.00000       0.00000    
     12032 MEOH     665      MEOH     H1C      HDA3B    0.800000E-01   1.00800           0   0.00000       0.00000    
     12033 MEOH     665      MEOH     LP1A     LPD     -0.230000       0.00000          -1   0.00000       0.00000    
     12034 MEOH     665      MEOH     LP1B     LPD     -0.230000       0.00000          -1   0.00000       0.00000    
     12035 MEOH     666      MEOH     C1       CD33B     2.31410       11.6110           0  -1.00000       1.30000    
     12036 MEOH     666      MEOH     DC1      DRUD     -2.45410      0.400000           0   0.00000       0.00000    
     12037 MEOH     666      MEOH     O1       OD31H     2.48830       15.5990           0  -1.02800       1.30000    
     12038 MEOH     666      MEOH     DO1      DRUD     -2.48830      0.400000           0   0.00000       0.00000    
     12039 MEOH     666      MEOH     HO1      HDP1A    0.360000       1.00800           0   0.00000       0.00000    
     12040 MEOH     666      MEOH     HO2      DUMH      0.00000       1.00800           0   0.00000       0.00000    
     12041 MEOH     666      MEOH     H1A      HDA3B    0.800000E-01   1.00800           0   0.00000       0.00000    
     12042 MEOH     666      MEOH     H1B      HDA3B    0.800000E-01   1.00800           0   0.00000       0.00000    
     12043 MEOH     666      MEOH     H1C      HDA3B    0.800000E-01   1.00800           0   0.00000       0.00000    
     12044 MEOH     666      MEOH     LP1A     LPD     -0.230000       0.00000          -1   0.00000       0.00000    
     12045 MEOH     666      MEOH     LP1B     LPD     -0.230000       0.00000          -1   0.00000       0.00000    
     12046 MEOH     667      MEOH     C1       CD33B     2.31410       11.6110           0  -1.00000       1.30000    
     12047 MEOH     667      MEOH     DC1      DRUD     -2.45410      0.400000           0   0.00000       0.00000    
     12048 MEOH     667      MEOH     O1       OD31H     2.48830       15.5990           0  -1.02800       1.30000    
     12049 MEOH     667      MEOH     DO1      DRUD     -2.48830      0.400000           0   0.00000       0.00000    
     12050 MEOH     667      MEOH     HO1      HDP1A    0.360000       1.00800           0   0.00000       0.00000    
     12051 MEOH     667      MEOH     HO2      DUMH      0.00000       1.00800           0   0.00000       0.00000    
     12052 MEOH     667      MEOH     H1A      HDA3B    0.800000E-01   1.00800           0   0.00000       0.00000    
     12053 MEOH     667      MEOH     H1B      HDA3B    0.800000E-01   1.00800           0   0.00000       0.00000    
     12054 MEOH     667      MEOH     H1C      HDA3B    0.800000E-01   1.00800           0   0.00000       0.00000    
     12055 MEOH     667      MEOH     LP1A     LPD     -0.230000       0.00000          -1   0.00000       0.00000    
     12056 MEOH     667      MEOH     LP1B     LPD     -0.230000       0.00000          -1   0.00000       0.00000    
     12057 MEOH     668      MEOH     C1       CD33B     2.31410       11.6110           0  -1.00000       1.30000    
     12058 MEOH     668      MEOH     DC1      DRUD     -2.45410      0.400000           0   0.00000       0.00000    
     12059 MEOH     668      MEOH     O1       OD31H     2.48830       15.5990           0  -1.02800       1.30000    
     12060 MEOH     668      MEOH     DO1      DRUD     -2.48830      0.400000           0   0.00000       0.00000    
     12061 MEOH     668      MEOH     HO1      HDP1A    0.360000       1.00800           0   0.00000       0.00000    
     12062 MEOH     668      MEOH     HO2      DUMH      0.00000       1.00800           0   0.00000       0.00000    
     12063 MEOH     668      MEOH     H1A      HDA3B    0.800000E-01   1.00800           0   0.00000       0.00000    
     12064 MEOH     668      MEOH     H1B      HDA3B    0.800000E-01   1.00800           0   0.00000       0.00000    
     12065 MEOH     668      MEOH     H1C      HDA3B    0.800000E-01   1.00800           0   0.00000       0.00000    
     12066 MEOH     668      MEOH     LP1A     LPD     -0.230000       0.00000          -1   0.00000       0.00000    
     12067 MEOH     668      MEOH     LP1B     LPD     -0.230000       0.00000          -1   0.00000       0.00000    
     12068 MEOH     669      MEOH     C1       CD33B     2.31410       11.6110           0  -1.00000       1.30000    
     12069 MEOH     669      MEOH     DC1      DRUD     -2.45410      0.400000           0   0.00000       0.00000    
     12070 MEOH     669      MEOH     O1       OD31H     2.48830       15.5990           0  -1.02800       1.30000    
     12071 MEOH     669      MEOH     DO1      DRUD     -2.48830      0.400000           0   0.00000       0.00000    
     12072 MEOH     669      MEOH     HO1      HDP1A    0.360000       1.00800           0   0.00000       0.00000    
     12073 MEOH     669      MEOH     HO2      DUMH      0.00000       1.00800           0   0.00000       0.00000    
     12074 MEOH     669      MEOH     H1A      HDA3B    0.800000E-01   1.00800           0   0.00000       0.00000    
     12075 MEOH     669      MEOH     H1B      HDA3B    0.800000E-01   1.00800           0   0.00000       0.00000    
     12076 MEOH     669      MEOH     H1C      HDA3B    0.800000E-01   1.00800           0   0.00000       0.00000    
     12077 MEOH     669      MEOH     LP1A     LPD     -0.230000       0.00000          -1   0.00000       0.00000    
     12078 MEOH     669      MEOH     LP1B     LPD     -0.230000       0.00000          -1   0.00000       0.00000    
     12079 MEOH     670      MEOH     C1       CD33B     2.31410       11.6110           0  -1.00000       1.30000    
     12080 MEOH     670      MEOH     DC1      DRUD     -2.45410      0.400000           0   0.00000       0.00000    
     12081 MEOH     670      MEOH     O1       OD31H     2.48830       15.5990           0  -1.02800       1.30000    
     12082 MEOH     670      MEOH     DO1      DRUD     -2.48830      0.400000           0   0.00000       0.00000    
     12083 MEOH     670      MEOH     HO1      HDP1A    0.360000       1.00800           0   0.00000       0.00000    
     12084 MEOH     670      MEOH     HO2      DUMH      0.00000       1.00800           0   0.00000       0.00000    
     12085 MEOH     670      MEOH     H1A      HDA3B    0.800000E-01   1.00800           0   0.00000       0.00000    
     12086 MEOH     670      MEOH     H1B      HDA3B    0.800000E-01   1.00800           0   0.00000       0.00000    
     12087 MEOH     670      MEOH     H1C      HDA3B    0.800000E-01   1.00800           0   0.00000       0.00000    
     12088 MEOH     670      MEOH     LP1A     LPD     -0.230000       0.00000          -1   0.00000       0.00000    
     12089 MEOH     670      MEOH     LP1B     LPD     -0.230000       0.00000          -1   0.00000       0.00000    
     12090 MEOH     671      MEOH     C1       CD33B     2.31410       11.6110           0  -1.00000       1.30000    
     12091 MEOH     671      MEOH     DC1      DRUD     -2.45410      0.400000           0   0.00000       0.00000    
     12092 MEOH     671      MEOH     O1       OD31H     2.48830       15.5990           0  -1.02800       1.30000    
     12093 MEOH     671      MEOH     DO1      DRUD     -2.48830      0.400000           0   0.00000       0.00000    
     12094 MEOH     671      MEOH     HO1      HDP1A    0.360000       1.00800           0   0.00000       0.00000    
     12095 MEOH     671      MEOH     HO2      DUMH      0.00000       1.00800           0   0.00000       0.00000    
     12096 MEOH     671      MEOH     H1A      HDA3B    0.800000E-01   1.00800           0   0.00000       0.00000    
     12097 MEOH     671      MEOH     H1B      HDA3B    0.800000E-01   1.00800           0   0.00000       0.00000    
     12098 MEOH     671      MEOH     H1C      HDA3B    0.800000E-01   1.00800           0   0.00000       0.00000    
     12099 MEOH     671      MEOH     LP1A     LPD     -0.230000       0.00000          -1   0.00000       0.00000    
     12100 MEOH     671      MEOH     LP1B     LPD     -0.230000       0.00000          -1   0.00000       0.00000    
     12101 MEOH     672      MEOH     C1       CD33B     2.31410       11.6110           0  -1.00000       1.30000    
     12102 MEOH     672      MEOH     DC1      DRUD     -2.45410      0.400000           0   0.00000       0.00000    
     12103 MEOH     672      MEOH     O1       OD31H     2.48830       15.5990           0  -1.02800       1.30000    
     12104 MEOH     672      MEOH     DO1      DRUD     -2.48830      0.400000           0   0.00000       0.00000    
     12105 MEOH     672      MEOH     HO1      HDP1A    0.360000       1.00800           0   0.00000       0.00000    
     12106 MEOH     672      MEOH     HO2      DUMH      0.00000       1.00800           0   0.00000       0.00000    
     12107 MEOH     672      MEOH     H1A      HDA3B    0.800000E-01   1.00800           0   0.00000       0.00000    
     12108 MEOH     672      MEOH     H1B      HDA3B    0.800000E-01   1.00800           0   0.00000       0.00000    
     12109 MEOH     672      MEOH     H1C      HDA3B    0.800000E-01   1.00800           0   0.00000       0.00000    
     12110 MEOH     672      MEOH     LP1A     LPD     -0.230000       0.00000          -1   0.00000       0.00000    
     12111 MEOH     672      MEOH     LP1B     LPD     -0.230000       0.00000          -1   0.00000       0.00000    
     12112 MEOH     673      MEOH     C1       CD33B     2.31410       11.6110           0  -1.00000       1.30000    
     12113 MEOH     673      MEOH     DC1      DRUD     -2.45410      0.400000           0   0.00000       0.00000    
     12114 MEOH     673      MEOH     O1       OD31H     2.48830       15.5990           0  -1.02800       1.30000    
     12115 MEOH     673      MEOH     DO1      DRUD     -2.48830      0.400000           0   0.00000       0.00000    
     12116 MEOH     673      MEOH     HO1      HDP1A    0.360000       1.00800           0   0.00000       0.00000    
     12117 MEOH     673      MEOH     HO2      DUMH      0.00000       1.00800           0   0.00000       0.00000    
     12118 MEOH     673      MEOH     H1A      HDA3B    0.800000E-01   1.00800           0   0.00000       0.00000    
     12119 MEOH     673      MEOH     H1B      HDA3B    0.800000E-01   1.00800           0   0.00000       0.00000    
     12120 MEOH     673      MEOH     H1C      HDA3B    0.800000E-01   1.00800           0   0.00000       0.00000    
     12121 MEOH     673      MEOH     LP1A     LPD     -0.230000       0.00000          -1   0.00000       0.00000    
     12122 MEOH     673      MEOH     LP1B     LPD     -0.230000       0.00000          -1   0.00000       0.00000    
     12123 MEOH     674      MEOH     C1       CD33B     2.31410       11.6110           0  -1.00000       1.30000    
     12124 MEOH     674      MEOH     DC1      DRUD     -2.45410      0.400000           0   0.00000       0.00000    
     12125 MEOH     674      MEOH     O1       OD31H     2.48830       15.5990           0  -1.02800       1.30000    
     12126 MEOH     674      MEOH     DO1      DRUD     -2.48830      0.400000           0   0.00000       0.00000    
     12127 MEOH     674      MEOH     HO1      HDP1A    0.360000       1.00800           0   0.00000       0.00000    
     12128 MEOH     674      MEOH     HO2      DUMH      0.00000       1.00800           0   0.00000       0.00000    
     12129 MEOH     674      MEOH     H1A      HDA3B    0.800000E-01   1.00800           0   0.00000       0.00000    
     12130 MEOH     674      MEOH     H1B      HDA3B    0.800000E-01   1.00800           0   0.00000       0.00000    
     12131 MEOH     674      MEOH     H1C      HDA3B    0.800000E-01   1.00800           0   0.00000       0.00000    
     12132 MEOH     674      MEOH     LP1A     LPD     -0.230000       0.00000          -1   0.00000       0.00000    
     12133 MEOH     674      MEOH     LP1B     LPD     -0.230000       0.00000          -1   0.00000       0.00000    
     12134 MEOH     675      MEOH     C1       CD33B     2.31410       11.6110           0  -1.00000       1.30000    
     12135 MEOH     675      MEOH     DC1      DRUD     -2.45410      0.400000           0   0.00000       0.00000    
     12136 MEOH     675      MEOH     O1       OD31H     2.48830       15.5990           0  -1.02800       1.30000    
     12137 MEOH     675      MEOH     DO1      DRUD     -2.48830      0.400000           0   0.00000       0.00000    
     12138 MEOH     675      MEOH     HO1      HDP1A    0.360000       1.00800           0   0.00000       0.00000    
     12139 MEOH     675      MEOH     HO2      DUMH      0.00000       1.00800           0   0.00000       0.00000    
     12140 MEOH     675      MEOH     H1A      HDA3B    0.800000E-01   1.00800           0   0.00000       0.00000    
     12141 MEOH     675      MEOH     H1B      HDA3B    0.800000E-01   1.00800           0   0.00000       0.00000    
     12142 MEOH     675      MEOH     H1C      HDA3B    0.800000E-01   1.00800           0   0.00000       0.00000    
     12143 MEOH     675      MEOH     LP1A     LPD     -0.230000       0.00000          -1   0.00000       0.00000    
     12144 MEOH     675      MEOH     LP1B     LPD     -0.230000       0.00000          -1   0.00000       0.00000    
     12145 MEOH     676      MEOH     C1       CD33B     2.31410       11.6110           0  -1.00000       1.30000    
     12146 MEOH     676      MEOH     DC1      DRUD     -2.45410      0.400000           0   0.00000       0.00000    
     12147 MEOH     676      MEOH     O1       OD31H     2.48830       15.5990           0  -1.02800       1.30000    
     12148 MEOH     676      MEOH     DO1      DRUD     -2.48830      0.400000           0   0.00000       0.00000    
     12149 MEOH     676      MEOH     HO1      HDP1A    0.360000       1.00800           0   0.00000       0.00000    
     12150 MEOH     676      MEOH     HO2      DUMH      0.00000       1.00800           0   0.00000       0.00000    
     12151 MEOH     676      MEOH     H1A      HDA3B    0.800000E-01   1.00800           0   0.00000       0.00000    
     12152 MEOH     676      MEOH     H1B      HDA3B    0.800000E-01   1.00800           0   0.00000       0.00000    
     12153 MEOH     676      MEOH     H1C      HDA3B    0.800000E-01   1.00800           0   0.00000       0.00000    
     12154 MEOH     676      MEOH     LP1A     LPD     -0.230000       0.00000          -1   0.00000       0.00000    
     12155 MEOH     676      MEOH     LP1B     LPD     -0.230000       0.00000          -1   0.00000       0.00000    
     12156 MEOH     677      MEOH     C1       CD33B     2.31410       11.6110           0  -1.00000       1.30000    
     12157 MEOH     677      MEOH     DC1      DRUD     -2.45410      0.400000           0   0.00000       0.00000    
     12158 MEOH     677      MEOH     O1       OD31H     2.48830       15.5990           0  -1.02800       1.30000    
     12159 MEOH     677      MEOH     DO1      DRUD     -2.48830      0.400000           0   0.00000       0.00000    
     12160 MEOH     677      MEOH     HO1      HDP1A    0.360000       1.00800           0   0.00000       0.00000    
     12161 MEOH     677      MEOH     HO2      DUMH      0.00000       1.00800           0   0.00000       0.00000    
     12162 MEOH     677      MEOH     H1A      HDA3B    0.800000E-01   1.00800           0   0.00000       0.00000    
     12163 MEOH     677      MEOH     H1B      HDA3B    0.800000E-01   1.00800           0   0.00000       0.00000    
     12164 MEOH     677      MEOH     H1C      HDA3B    0.800000E-01   1.00800           0   0.00000       0.00000    
     12165 MEOH     677      MEOH     LP1A     LPD     -0.230000       0.00000          -1   0.00000       0.00000    
     12166 MEOH     677      MEOH     LP1B     LPD     -0.230000       0.00000          -1   0.00000       0.00000    
     12167 MEOH     678      MEOH     C1       CD33B     2.31410       11.6110           0  -1.00000       1.30000    
     12168 MEOH     678      MEOH     DC1      DRUD     -2.45410      0.400000           0   0.00000       0.00000    
     12169 MEOH     678      MEOH     O1       OD31H     2.48830       15.5990           0  -1.02800       1.30000    
     12170 MEOH     678      MEOH     DO1      DRUD     -2.48830      0.400000           0   0.00000       0.00000    
     12171 MEOH     678      MEOH     HO1      HDP1A    0.360000       1.00800           0   0.00000       0.00000    
     12172 MEOH     678      MEOH     HO2      DUMH      0.00000       1.00800           0   0.00000       0.00000    
     12173 MEOH     678      MEOH     H1A      HDA3B    0.800000E-01   1.00800           0   0.00000       0.00000    
     12174 MEOH     678      MEOH     H1B      HDA3B    0.800000E-01   1.00800           0   0.00000       0.00000    
     12175 MEOH     678      MEOH     H1C      HDA3B    0.800000E-01   1.00800           0   0.00000       0.00000    
     12176 MEOH     678      MEOH     LP1A     LPD     -0.230000       0.00000          -1   0.00000       0.00000    
     12177 MEOH     678      MEOH     LP1B     LPD     -0.230000       0.00000          -1   0.00000       0.00000    
     12178 MEOH     679      MEOH     C1       CD33B     2.31410       11.6110           0  -1.00000       1.30000    
     12179 MEOH     679      MEOH     DC1      DRUD     -2.45410      0.400000           0   0.00000       0.00000    
     12180 MEOH     679      MEOH     O1       OD31H     2.48830       15.5990           0  -1.02800       1.30000    
     12181 MEOH     679      MEOH     DO1      DRUD     -2.48830      0.400000           0   0.00000       0.00000    
     12182 MEOH     679      MEOH     HO1      HDP1A    0.360000       1.00800           0   0.00000       0.00000    
     12183 MEOH     679      MEOH     HO2      DUMH      0.00000       1.00800           0   0.00000       0.00000    
     12184 MEOH     679      MEOH     H1A      HDA3B    0.800000E-01   1.00800           0   0.00000       0.00000    
     12185 MEOH     679      MEOH     H1B      HDA3B    0.800000E-01   1.00800           0   0.00000       0.00000    
     12186 MEOH     679      MEOH     H1C      HDA3B    0.800000E-01   1.00800           0   0.00000       0.00000    
     12187 MEOH     679      MEOH     LP1A     LPD     -0.230000       0.00000          -1   0.00000       0.00000    
     12188 MEOH     679      MEOH     LP1B     LPD     -0.230000       0.00000          -1   0.00000       0.00000    
     12189 MEOH     680      MEOH     C1       CD33B     2.31410       11.6110           0  -1.00000       1.30000    
     12190 MEOH     680      MEOH     DC1      DRUD     -2.45410      0.400000           0   0.00000       0.00000    
     12191 MEOH     680      MEOH     O1       OD31H     2.48830       15.5990           0  -1.02800       1.30000    
     12192 MEOH     680      MEOH     DO1      DRUD     -2.48830      0.400000           0   0.00000       0.00000    
     12193 MEOH     680      MEOH     HO1      HDP1A    0.360000       1.00800           0   0.00000       0.00000    
     12194 MEOH     680      MEOH     HO2      DUMH      0.00000       1.00800           0   0.00000       0.00000    
     12195 MEOH     680      MEOH     H1A      HDA3B    0.800000E-01   1.00800           0   0.00000       0.00000    
     12196 MEOH     680      MEOH     H1B      HDA3B    0.800000E-01   1.00800           0   0.00000       0.00000    
     12197 MEOH     680      MEOH     H1C      HDA3B    0.800000E-01   1.00800           0   0.00000       0.00000    
     12198 MEOH     680      MEOH     LP1A     LPD     -0.230000       0.00000          -1   0.00000       0.00000    
     12199 MEOH     680      MEOH     LP1B     LPD     -0.230000       0.00000          -1   0.00000       0.00000    
     12200 MEOH     681      MEOH     C1       CD33B     2.31410       11.6110           0  -1.00000       1.30000    
     12201 MEOH     681      MEOH     DC1      DRUD     -2.45410      0.400000           0   0.00000       0.00000    
     12202 MEOH     681      MEOH     O1       OD31H     2.48830       15.5990           0  -1.02800       1.30000    
     12203 MEOH     681      MEOH     DO1      DRUD     -2.48830      0.400000           0   0.00000       0.00000    
     12204 MEOH     681      MEOH     HO1      HDP1A    0.360000       1.00800           0   0.00000       0.00000    
     12205 MEOH     681      MEOH     HO2      DUMH      0.00000       1.00800           0   0.00000       0.00000    
     12206 MEOH     681      MEOH     H1A      HDA3B    0.800000E-01   1.00800           0   0.00000       0.00000    
     12207 MEOH     681      MEOH     H1B      HDA3B    0.800000E-01   1.00800           0   0.00000       0.00000    
     12208 MEOH     681      MEOH     H1C      HDA3B    0.800000E-01   1.00800           0   0.00000       0.00000    
     12209 MEOH     681      MEOH     LP1A     LPD     -0.230000       0.00000          -1   0.00000       0.00000    
     12210 MEOH     681      MEOH     LP1B     LPD     -0.230000       0.00000          -1   0.00000       0.00000    
     12211 MEOH     682      MEOH     C1       CD33B     2.31410       11.6110           0  -1.00000       1.30000    
     12212 MEOH     682      MEOH     DC1      DRUD     -2.45410      0.400000           0   0.00000       0.00000    
     12213 MEOH     682      MEOH     O1       OD31H     2.48830       15.5990           0  -1.02800       1.30000    
     12214 MEOH     682      MEOH     DO1      DRUD     -2.48830      0.400000           0   0.00000       0.00000    
     12215 MEOH     682      MEOH     HO1      HDP1A    0.360000       1.00800           0   0.00000       0.00000    
     12216 MEOH     682      MEOH     HO2      DUMH      0.00000       1.00800           0   0.00000       0.00000    
     12217 MEOH     682      MEOH     H1A      HDA3B    0.800000E-01   1.00800           0   0.00000       0.00000    
     12218 MEOH     682      MEOH     H1B      HDA3B    0.800000E-01   1.00800           0   0.00000       0.00000    
     12219 MEOH     682      MEOH     H1C      HDA3B    0.800000E-01   1.00800           0   0.00000       0.00000    
     12220 MEOH     682      MEOH     LP1A     LPD     -0.230000       0.00000          -1   0.00000       0.00000    
     12221 MEOH     682      MEOH     LP1B     LPD     -0.230000       0.00000          -1   0.00000       0.00000    
     12222 MEOH     683      MEOH     C1       CD33B     2.31410       11.6110           0  -1.00000       1.30000    
     12223 MEOH     683      MEOH     DC1      DRUD     -2.45410      0.400000           0   0.00000       0.00000    
     12224 MEOH     683      MEOH     O1       OD31H     2.48830       15.5990           0  -1.02800       1.30000    
     12225 MEOH     683      MEOH     DO1      DRUD     -2.48830      0.400000           0   0.00000       0.00000    
     12226 MEOH     683      MEOH     HO1      HDP1A    0.360000       1.00800           0   0.00000       0.00000    
     12227 MEOH     683      MEOH     HO2      DUMH      0.00000       1.00800           0   0.00000       0.00000    
     12228 MEOH     683      MEOH     H1A      HDA3B    0.800000E-01   1.00800           0   0.00000       0.00000    
     12229 MEOH     683      MEOH     H1B      HDA3B    0.800000E-01   1.00800           0   0.00000       0.00000    
     12230 MEOH     683      MEOH     H1C      HDA3B    0.800000E-01   1.00800           0   0.00000       0.00000    
     12231 MEOH     683      MEOH     LP1A     LPD     -0.230000       0.00000          -1   0.00000       0.00000    
     12232 MEOH     683      MEOH     LP1B     LPD     -0.230000       0.00000          -1   0.00000       0.00000    
     12233 MEOH     684      MEOH     C1       CD33B     2.31410       11.6110           0  -1.00000       1.30000    
     12234 MEOH     684      MEOH     DC1      DRUD     -2.45410      0.400000           0   0.00000       0.00000    
     12235 MEOH     684      MEOH     O1       OD31H     2.48830       15.5990           0  -1.02800       1.30000    
     12236 MEOH     684      MEOH     DO1      DRUD     -2.48830      0.400000           0   0.00000       0.00000    
     12237 MEOH     684      MEOH     HO1      HDP1A    0.360000       1.00800           0   0.00000       0.00000    
     12238 MEOH     684      MEOH     HO2      DUMH      0.00000       1.00800           0   0.00000       0.00000    
     12239 MEOH     684      MEOH     H1A      HDA3B    0.800000E-01   1.00800           0   0.00000       0.00000    
     12240 MEOH     684      MEOH     H1B      HDA3B    0.800000E-01   1.00800           0   0.00000       0.00000    
     12241 MEOH     684      MEOH     H1C      HDA3B    0.800000E-01   1.00800           0   0.00000       0.00000    
     12242 MEOH     684      MEOH     LP1A     LPD     -0.230000       0.00000          -1   0.00000       0.00000    
     12243 MEOH     684      MEOH     LP1B     LPD     -0.230000       0.00000          -1   0.00000       0.00000    
     12244 MEOH     685      MEOH     C1       CD33B     2.31410       11.6110           0  -1.00000       1.30000    
     12245 MEOH     685      MEOH     DC1      DRUD     -2.45410      0.400000           0   0.00000       0.00000    
     12246 MEOH     685      MEOH     O1       OD31H     2.48830       15.5990           0  -1.02800       1.30000    
     12247 MEOH     685      MEOH     DO1      DRUD     -2.48830      0.400000           0   0.00000       0.00000    
     12248 MEOH     685      MEOH     HO1      HDP1A    0.360000       1.00800           0   0.00000       0.00000    
     12249 MEOH     685      MEOH     HO2      DUMH      0.00000       1.00800           0   0.00000       0.00000    
     12250 MEOH     685      MEOH     H1A      HDA3B    0.800000E-01   1.00800           0   0.00000       0.00000    
     12251 MEOH     685      MEOH     H1B      HDA3B    0.800000E-01   1.00800           0   0.00000       0.00000    
     12252 MEOH     685      MEOH     H1C      HDA3B    0.800000E-01   1.00800           0   0.00000       0.00000    
     12253 MEOH     685      MEOH     LP1A     LPD     -0.230000       0.00000          -1   0.00000       0.00000    
     12254 MEOH     685      MEOH     LP1B     LPD     -0.230000       0.00000          -1   0.00000       0.00000    
     12255 MEOH     686      MEOH     C1       CD33B     2.31410       11.6110           0  -1.00000       1.30000    
     12256 MEOH     686      MEOH     DC1      DRUD     -2.45410      0.400000           0   0.00000       0.00000    
     12257 MEOH     686      MEOH     O1       OD31H     2.48830       15.5990           0  -1.02800       1.30000    
     12258 MEOH     686      MEOH     DO1      DRUD     -2.48830      0.400000           0   0.00000       0.00000    
     12259 MEOH     686      MEOH     HO1      HDP1A    0.360000       1.00800           0   0.00000       0.00000    
     12260 MEOH     686      MEOH     HO2      DUMH      0.00000       1.00800           0   0.00000       0.00000    
     12261 MEOH     686      MEOH     H1A      HDA3B    0.800000E-01   1.00800           0   0.00000       0.00000    
     12262 MEOH     686      MEOH     H1B      HDA3B    0.800000E-01   1.00800           0   0.00000       0.00000    
     12263 MEOH     686      MEOH     H1C      HDA3B    0.800000E-01   1.00800           0   0.00000       0.00000    
     12264 MEOH     686      MEOH     LP1A     LPD     -0.230000       0.00000          -1   0.00000       0.00000    
     12265 MEOH     686      MEOH     LP1B     LPD     -0.230000       0.00000          -1   0.00000       0.00000    
     12266 MEOH     687      MEOH     C1       CD33B     2.31410       11.6110           0  -1.00000       1.30000    
     12267 MEOH     687      MEOH     DC1      DRUD     -2.45410      0.400000           0   0.00000       0.00000    
     12268 MEOH     687      MEOH     O1       OD31H     2.48830       15.5990           0  -1.02800       1.30000    
     12269 MEOH     687      MEOH     DO1      DRUD     -2.48830      0.400000           0   0.00000       0.00000    
     12270 MEOH     687      MEOH     HO1      HDP1A    0.360000       1.00800           0   0.00000       0.00000    
     12271 MEOH     687      MEOH     HO2      DUMH      0.00000       1.00800           0   0.00000       0.00000    
     12272 MEOH     687      MEOH     H1A      HDA3B    0.800000E-01   1.00800           0   0.00000       0.00000    
     12273 MEOH     687      MEOH     H1B      HDA3B    0.800000E-01   1.00800           0   0.00000       0.00000    
     12274 MEOH     687      MEOH     H1C      HDA3B    0.800000E-01   1.00800           0   0.00000       0.00000    
     12275 MEOH     687      MEOH     LP1A     LPD     -0.230000       0.00000          -1   0.00000       0.00000    
     12276 MEOH     687      MEOH     LP1B     LPD     -0.230000       0.00000          -1   0.00000       0.00000    
     12277 MEOH     688      MEOH     C1       CD33B     2.31410       11.6110           0  -1.00000       1.30000    
     12278 MEOH     688      MEOH     DC1      DRUD     -2.45410      0.400000           0   0.00000       0.00000    
     12279 MEOH     688      MEOH     O1       OD31H     2.48830       15.5990           0  -1.02800       1.30000    
     12280 MEOH     688      MEOH     DO1      DRUD     -2.48830      0.400000           0   0.00000       0.00000    
     12281 MEOH     688      MEOH     HO1      HDP1A    0.360000       1.00800           0   0.00000       0.00000    
     12282 MEOH     688      MEOH     HO2      DUMH      0.00000       1.00800           0   0.00000       0.00000    
     12283 MEOH     688      MEOH     H1A      HDA3B    0.800000E-01   1.00800           0   0.00000       0.00000    
     12284 MEOH     688      MEOH     H1B      HDA3B    0.800000E-01   1.00800           0   0.00000       0.00000    
     12285 MEOH     688      MEOH     H1C      HDA3B    0.800000E-01   1.00800           0   0.00000       0.00000    
     12286 MEOH     688      MEOH     LP1A     LPD     -0.230000       0.00000          -1   0.00000       0.00000    
     12287 MEOH     688      MEOH     LP1B     LPD     -0.230000       0.00000          -1   0.00000       0.00000    
     12288 MEOH     689      MEOH     C1       CD33B     2.31410       11.6110           0  -1.00000       1.30000    
     12289 MEOH     689      MEOH     DC1      DRUD     -2.45410      0.400000           0   0.00000       0.00000    
     12290 MEOH     689      MEOH     O1       OD31H     2.48830       15.5990           0  -1.02800       1.30000    
     12291 MEOH     689      MEOH     DO1      DRUD     -2.48830      0.400000           0   0.00000       0.00000    
     12292 MEOH     689      MEOH     HO1      HDP1A    0.360000       1.00800           0   0.00000       0.00000    
     12293 MEOH     689      MEOH     HO2      DUMH      0.00000       1.00800           0   0.00000       0.00000    
     12294 MEOH     689      MEOH     H1A      HDA3B    0.800000E-01   1.00800           0   0.00000       0.00000    
     12295 MEOH     689      MEOH     H1B      HDA3B    0.800000E-01   1.00800           0   0.00000       0.00000    
     12296 MEOH     689      MEOH     H1C      HDA3B    0.800000E-01   1.00800           0   0.00000       0.00000    
     12297 MEOH     689      MEOH     LP1A     LPD     -0.230000       0.00000          -1   0.00000       0.00000    
     12298 MEOH     689      MEOH     LP1B     LPD     -0.230000       0.00000          -1   0.00000       0.00000    
     12299 MEOH     690      MEOH     C1       CD33B     2.31410       11.6110           0  -1.00000       1.30000    
     12300 MEOH     690      MEOH     DC1      DRUD     -2.45410      0.400000           0   0.00000       0.00000    
     12301 MEOH     690      MEOH     O1       OD31H     2.48830       15.5990           0  -1.02800       1.30000    
     12302 MEOH     690      MEOH     DO1      DRUD     -2.48830      0.400000           0   0.00000       0.00000    
     12303 MEOH     690      MEOH     HO1      HDP1A    0.360000       1.00800           0   0.00000       0.00000    
     12304 MEOH     690      MEOH     HO2      DUMH      0.00000       1.00800           0   0.00000       0.00000    
     12305 MEOH     690      MEOH     H1A      HDA3B    0.800000E-01   1.00800           0   0.00000       0.00000    
     12306 MEOH     690      MEOH     H1B      HDA3B    0.800000E-01   1.00800           0   0.00000       0.00000    
     12307 MEOH     690      MEOH     H1C      HDA3B    0.800000E-01   1.00800           0   0.00000       0.00000    
     12308 MEOH     690      MEOH     LP1A     LPD     -0.230000       0.00000          -1   0.00000       0.00000    
     12309 MEOH     690      MEOH     LP1B     LPD     -0.230000       0.00000          -1   0.00000       0.00000    
     12310 MEOH     691      MEOH     C1       CD33B     2.31410       11.6110           0  -1.00000       1.30000    
     12311 MEOH     691      MEOH     DC1      DRUD     -2.45410      0.400000           0   0.00000       0.00000    
     12312 MEOH     691      MEOH     O1       OD31H     2.48830       15.5990           0  -1.02800       1.30000    
     12313 MEOH     691      MEOH     DO1      DRUD     -2.48830      0.400000           0   0.00000       0.00000    
     12314 MEOH     691      MEOH     HO1      HDP1A    0.360000       1.00800           0   0.00000       0.00000    
     12315 MEOH     691      MEOH     HO2      DUMH      0.00000       1.00800           0   0.00000       0.00000    
     12316 MEOH     691      MEOH     H1A      HDA3B    0.800000E-01   1.00800           0   0.00000       0.00000    
     12317 MEOH     691      MEOH     H1B      HDA3B    0.800000E-01   1.00800           0   0.00000       0.00000    
     12318 MEOH     691      MEOH     H1C      HDA3B    0.800000E-01   1.00800           0   0.00000       0.00000    
     12319 MEOH     691      MEOH     LP1A     LPD     -0.230000       0.00000          -1   0.00000       0.00000    
     12320 MEOH     691      MEOH     LP1B     LPD     -0.230000       0.00000          -1   0.00000       0.00000    
     12321 MEOH     692      MEOH     C1       CD33B     2.31410       11.6110           0  -1.00000       1.30000    
     12322 MEOH     692      MEOH     DC1      DRUD     -2.45410      0.400000           0   0.00000       0.00000    
     12323 MEOH     692      MEOH     O1       OD31H     2.48830       15.5990           0  -1.02800       1.30000    
     12324 MEOH     692      MEOH     DO1      DRUD     -2.48830      0.400000           0   0.00000       0.00000    
     12325 MEOH     692      MEOH     HO1      HDP1A    0.360000       1.00800           0   0.00000       0.00000    
     12326 MEOH     692      MEOH     HO2      DUMH      0.00000       1.00800           0   0.00000       0.00000    
     12327 MEOH     692      MEOH     H1A      HDA3B    0.800000E-01   1.00800           0   0.00000       0.00000    
     12328 MEOH     692      MEOH     H1B      HDA3B    0.800000E-01   1.00800           0   0.00000       0.00000    
     12329 MEOH     692      MEOH     H1C      HDA3B    0.800000E-01   1.00800           0   0.00000       0.00000    
     12330 MEOH     692      MEOH     LP1A     LPD     -0.230000       0.00000          -1   0.00000       0.00000    
     12331 MEOH     692      MEOH     LP1B     LPD     -0.230000       0.00000          -1   0.00000       0.00000    
     12332 MEOH     693      MEOH     C1       CD33B     2.31410       11.6110           0  -1.00000       1.30000    
     12333 MEOH     693      MEOH     DC1      DRUD     -2.45410      0.400000           0   0.00000       0.00000    
     12334 MEOH     693      MEOH     O1       OD31H     2.48830       15.5990           0  -1.02800       1.30000    
     12335 MEOH     693      MEOH     DO1      DRUD     -2.48830      0.400000           0   0.00000       0.00000    
     12336 MEOH     693      MEOH     HO1      HDP1A    0.360000       1.00800           0   0.00000       0.00000    
     12337 MEOH     693      MEOH     HO2      DUMH      0.00000       1.00800           0   0.00000       0.00000    
     12338 MEOH     693      MEOH     H1A      HDA3B    0.800000E-01   1.00800           0   0.00000       0.00000    
     12339 MEOH     693      MEOH     H1B      HDA3B    0.800000E-01   1.00800           0   0.00000       0.00000    
     12340 MEOH     693      MEOH     H1C      HDA3B    0.800000E-01   1.00800           0   0.00000       0.00000    
     12341 MEOH     693      MEOH     LP1A     LPD     -0.230000       0.00000          -1   0.00000       0.00000    
     12342 MEOH     693      MEOH     LP1B     LPD     -0.230000       0.00000          -1   0.00000       0.00000    
     12343 MEOH     694      MEOH     C1       CD33B     2.31410       11.6110           0  -1.00000       1.30000    
     12344 MEOH     694      MEOH     DC1      DRUD     -2.45410      0.400000           0   0.00000       0.00000    
     12345 MEOH     694      MEOH     O1       OD31H     2.48830       15.5990           0  -1.02800       1.30000    
     12346 MEOH     694      MEOH     DO1      DRUD     -2.48830      0.400000           0   0.00000       0.00000    
     12347 MEOH     694      MEOH     HO1      HDP1A    0.360000       1.00800           0   0.00000       0.00000    
     12348 MEOH     694      MEOH     HO2      DUMH      0.00000       1.00800           0   0.00000       0.00000    
     12349 MEOH     694      MEOH     H1A      HDA3B    0.800000E-01   1.00800           0   0.00000       0.00000    
     12350 MEOH     694      MEOH     H1B      HDA3B    0.800000E-01   1.00800           0   0.00000       0.00000    
     12351 MEOH     694      MEOH     H1C      HDA3B    0.800000E-01   1.00800           0   0.00000       0.00000    
     12352 MEOH     694      MEOH     LP1A     LPD     -0.230000       0.00000          -1   0.00000       0.00000    
     12353 MEOH     694      MEOH     LP1B     LPD     -0.230000       0.00000          -1   0.00000       0.00000    
     12354 MEOH     695      MEOH     C1       CD33B     2.31410       11.6110           0  -1.00000       1.30000    
     12355 MEOH     695      MEOH     DC1      DRUD     -2.45410      0.400000           0   0.00000       0.00000    
     12356 MEOH     695      MEOH     O1       OD31H     2.48830       15.5990           0  -1.02800       1.30000    
     12357 MEOH     695      MEOH     DO1      DRUD     -2.48830      0.400000           0   0.00000       0.00000    
     12358 MEOH     695      MEOH     HO1      HDP1A    0.360000       1.00800           0   0.00000       0.00000    
     12359 MEOH     695      MEOH     HO2      DUMH      0.00000       1.00800           0   0.00000       0.00000    
     12360 MEOH     695      MEOH     H1A      HDA3B    0.800000E-01   1.00800           0   0.00000       0.00000    
     12361 MEOH     695      MEOH     H1B      HDA3B    0.800000E-01   1.00800           0   0.00000       0.00000    
     12362 MEOH     695      MEOH     H1C      HDA3B    0.800000E-01   1.00800           0   0.00000       0.00000    
     12363 MEOH     695      MEOH     LP1A     LPD     -0.230000       0.00000          -1   0.00000       0.00000    
     12364 MEOH     695      MEOH     LP1B     LPD     -0.230000       0.00000          -1   0.00000       0.00000    
     12365 MEOH     696      MEOH     C1       CD33B     2.31410       11.6110           0  -1.00000       1.30000    
     12366 MEOH     696      MEOH     DC1      DRUD     -2.45410      0.400000           0   0.00000       0.00000    
     12367 MEOH     696      MEOH     O1       OD31H     2.48830       15.5990           0  -1.02800       1.30000    
     12368 MEOH     696      MEOH     DO1      DRUD     -2.48830      0.400000           0   0.00000       0.00000    
     12369 MEOH     696      MEOH     HO1      HDP1A    0.360000       1.00800           0   0.00000       0.00000    
     12370 MEOH     696      MEOH     HO2      DUMH      0.00000       1.00800           0   0.00000       0.00000    
     12371 MEOH     696      MEOH     H1A      HDA3B    0.800000E-01   1.00800           0   0.00000       0.00000    
     12372 MEOH     696      MEOH     H1B      HDA3B    0.800000E-01   1.00800           0   0.00000       0.00000    
     12373 MEOH     696      MEOH     H1C      HDA3B    0.800000E-01   1.00800           0   0.00000       0.00000    
     12374 MEOH     696      MEOH     LP1A     LPD     -0.230000       0.00000          -1   0.00000       0.00000    
     12375 MEOH     696      MEOH     LP1B     LPD     -0.230000       0.00000          -1   0.00000       0.00000    
     12376 MEOH     697      MEOH     C1       CD33B     2.31410       11.6110           0  -1.00000       1.30000    
     12377 MEOH     697      MEOH     DC1      DRUD     -2.45410      0.400000           0   0.00000       0.00000    
     12378 MEOH     697      MEOH     O1       OD31H     2.48830       15.5990           0  -1.02800       1.30000    
     12379 MEOH     697      MEOH     DO1      DRUD     -2.48830      0.400000           0   0.00000       0.00000    
     12380 MEOH     697      MEOH     HO1      HDP1A    0.360000       1.00800           0   0.00000       0.00000    
     12381 MEOH     697      MEOH     HO2      DUMH      0.00000       1.00800           0   0.00000       0.00000    
     12382 MEOH     697      MEOH     H1A      HDA3B    0.800000E-01   1.00800           0   0.00000       0.00000    
     12383 MEOH     697      MEOH     H1B      HDA3B    0.800000E-01   1.00800           0   0.00000       0.00000    
     12384 MEOH     697      MEOH     H1C      HDA3B    0.800000E-01   1.00800           0   0.00000       0.00000    
     12385 MEOH     697      MEOH     LP1A     LPD     -0.230000       0.00000          -1   0.00000       0.00000    
     12386 MEOH     697      MEOH     LP1B     LPD     -0.230000       0.00000          -1   0.00000       0.00000    
     12387 MEOH     698      MEOH     C1       CD33B     2.31410       11.6110           0  -1.00000       1.30000    
     12388 MEOH     698      MEOH     DC1      DRUD     -2.45410      0.400000           0   0.00000       0.00000    
     12389 MEOH     698      MEOH     O1       OD31H     2.48830       15.5990           0  -1.02800       1.30000    
     12390 MEOH     698      MEOH     DO1      DRUD     -2.48830      0.400000           0   0.00000       0.00000    
     12391 MEOH     698      MEOH     HO1      HDP1A    0.360000       1.00800           0   0.00000       0.00000    
     12392 MEOH     698      MEOH     HO2      DUMH      0.00000       1.00800           0   0.00000       0.00000    
     12393 MEOH     698      MEOH     H1A      HDA3B    0.800000E-01   1.00800           0   0.00000       0.00000    
     12394 MEOH     698      MEOH     H1B      HDA3B    0.800000E-01   1.00800           0   0.00000       0.00000    
     12395 MEOH     698      MEOH     H1C      HDA3B    0.800000E-01   1.00800           0   0.00000       0.00000    
     12396 MEOH     698      MEOH     LP1A     LPD     -0.230000       0.00000          -1   0.00000       0.00000    
     12397 MEOH     698      MEOH     LP1B     LPD     -0.230000       0.00000          -1   0.00000       0.00000    
     12398 MEOH     699      MEOH     C1       CD33B     2.31410       11.6110           0  -1.00000       1.30000    
     12399 MEOH     699      MEOH     DC1      DRUD     -2.45410      0.400000           0   0.00000       0.00000    
     12400 MEOH     699      MEOH     O1       OD31H     2.48830       15.5990           0  -1.02800       1.30000    
     12401 MEOH     699      MEOH     DO1      DRUD     -2.48830      0.400000           0   0.00000       0.00000    
     12402 MEOH     699      MEOH     HO1      HDP1A    0.360000       1.00800           0   0.00000       0.00000    
     12403 MEOH     699      MEOH     HO2      DUMH      0.00000       1.00800           0   0.00000       0.00000    
     12404 MEOH     699      MEOH     H1A      HDA3B    0.800000E-01   1.00800           0   0.00000       0.00000    
     12405 MEOH     699      MEOH     H1B      HDA3B    0.800000E-01   1.00800           0   0.00000       0.00000    
     12406 MEOH     699      MEOH     H1C      HDA3B    0.800000E-01   1.00800           0   0.00000       0.00000    
     12407 MEOH     699      MEOH     LP1A     LPD     -0.230000       0.00000          -1   0.00000       0.00000    
     12408 MEOH     699      MEOH     LP1B     LPD     -0.230000       0.00000          -1   0.00000       0.00000    
     12409 MEOH     700      MEOH     C1       CD33B     2.31410       11.6110           0  -1.00000       1.30000    
     12410 MEOH     700      MEOH     DC1      DRUD     -2.45410      0.400000           0   0.00000       0.00000    
     12411 MEOH     700      MEOH     O1       OD31H     2.48830       15.5990           0  -1.02800       1.30000    
     12412 MEOH     700      MEOH     DO1      DRUD     -2.48830      0.400000           0   0.00000       0.00000    
     12413 MEOH     700      MEOH     HO1      HDP1A    0.360000       1.00800           0   0.00000       0.00000    
     12414 MEOH     700      MEOH     HO2      DUMH      0.00000       1.00800           0   0.00000       0.00000    
     12415 MEOH     700      MEOH     H1A      HDA3B    0.800000E-01   1.00800           0   0.00000       0.00000    
     12416 MEOH     700      MEOH     H1B      HDA3B    0.800000E-01   1.00800           0   0.00000       0.00000    
     12417 MEOH     700      MEOH     H1C      HDA3B    0.800000E-01   1.00800           0   0.00000       0.00000    
     12418 MEOH     700      MEOH     LP1A     LPD     -0.230000       0.00000          -1   0.00000       0.00000    
     12419 MEOH     700      MEOH     LP1B     LPD     -0.230000       0.00000          -1   0.00000       0.00000    
     12420 MEOH     701      MEOH     C1       CD33B     2.31410       11.6110           0  -1.00000       1.30000    
     12421 MEOH     701      MEOH     DC1      DRUD     -2.45410      0.400000           0   0.00000       0.00000    
     12422 MEOH     701      MEOH     O1       OD31H     2.48830       15.5990           0  -1.02800       1.30000    
     12423 MEOH     701      MEOH     DO1      DRUD     -2.48830      0.400000           0   0.00000       0.00000    
     12424 MEOH     701      MEOH     HO1      HDP1A    0.360000       1.00800           0   0.00000       0.00000    
     12425 MEOH     701      MEOH     HO2      DUMH      0.00000       1.00800           0   0.00000       0.00000    
     12426 MEOH     701      MEOH     H1A      HDA3B    0.800000E-01   1.00800           0   0.00000       0.00000    
     12427 MEOH     701      MEOH     H1B      HDA3B    0.800000E-01   1.00800           0   0.00000       0.00000    
     12428 MEOH     701      MEOH     H1C      HDA3B    0.800000E-01   1.00800           0   0.00000       0.00000    
     12429 MEOH     701      MEOH     LP1A     LPD     -0.230000       0.00000          -1   0.00000       0.00000    
     12430 MEOH     701      MEOH     LP1B     LPD     -0.230000       0.00000          -1   0.00000       0.00000    
     12431 MEOH     702      MEOH     C1       CD33B     2.31410       11.6110           0  -1.00000       1.30000    
     12432 MEOH     702      MEOH     DC1      DRUD     -2.45410      0.400000           0   0.00000       0.00000    
     12433 MEOH     702      MEOH     O1       OD31H     2.48830       15.5990           0  -1.02800       1.30000    
     12434 MEOH     702      MEOH     DO1      DRUD     -2.48830      0.400000           0   0.00000       0.00000    
     12435 MEOH     702      MEOH     HO1      HDP1A    0.360000       1.00800           0   0.00000       0.00000    
     12436 MEOH     702      MEOH     HO2      DUMH      0.00000       1.00800           0   0.00000       0.00000    
     12437 MEOH     702      MEOH     H1A      HDA3B    0.800000E-01   1.00800           0   0.00000       0.00000    
     12438 MEOH     702      MEOH     H1B      HDA3B    0.800000E-01   1.00800           0   0.00000       0.00000    
     12439 MEOH     702      MEOH     H1C      HDA3B    0.800000E-01   1.00800           0   0.00000       0.00000    
     12440 MEOH     702      MEOH     LP1A     LPD     -0.230000       0.00000          -1   0.00000       0.00000    
     12441 MEOH     702      MEOH     LP1B     LPD     -0.230000       0.00000          -1   0.00000       0.00000    
     12442 MEOH     703      MEOH     C1       CD33B     2.31410       11.6110           0  -1.00000       1.30000    
     12443 MEOH     703      MEOH     DC1      DRUD     -2.45410      0.400000           0   0.00000       0.00000    
     12444 MEOH     703      MEOH     O1       OD31H     2.48830       15.5990           0  -1.02800       1.30000    
     12445 MEOH     703      MEOH     DO1      DRUD     -2.48830      0.400000           0   0.00000       0.00000    
     12446 MEOH     703      MEOH     HO1      HDP1A    0.360000       1.00800           0   0.00000       0.00000    
     12447 MEOH     703      MEOH     HO2      DUMH      0.00000       1.00800           0   0.00000       0.00000    
     12448 MEOH     703      MEOH     H1A      HDA3B    0.800000E-01   1.00800           0   0.00000       0.00000    
     12449 MEOH     703      MEOH     H1B      HDA3B    0.800000E-01   1.00800           0   0.00000       0.00000    
     12450 MEOH     703      MEOH     H1C      HDA3B    0.800000E-01   1.00800           0   0.00000       0.00000    
     12451 MEOH     703      MEOH     LP1A     LPD     -0.230000       0.00000          -1   0.00000       0.00000    
     12452 MEOH     703      MEOH     LP1B     LPD     -0.230000       0.00000          -1   0.00000       0.00000    
     12453 MEOH     704      MEOH     C1       CD33B     2.31410       11.6110           0  -1.00000       1.30000    
     12454 MEOH     704      MEOH     DC1      DRUD     -2.45410      0.400000           0   0.00000       0.00000    
     12455 MEOH     704      MEOH     O1       OD31H     2.48830       15.5990           0  -1.02800       1.30000    
     12456 MEOH     704      MEOH     DO1      DRUD     -2.48830      0.400000           0   0.00000       0.00000    
     12457 MEOH     704      MEOH     HO1      HDP1A    0.360000       1.00800           0   0.00000       0.00000    
     12458 MEOH     704      MEOH     HO2      DUMH      0.00000       1.00800           0   0.00000       0.00000    
     12459 MEOH     704      MEOH     H1A      HDA3B    0.800000E-01   1.00800           0   0.00000       0.00000    
     12460 MEOH     704      MEOH     H1B      HDA3B    0.800000E-01   1.00800           0   0.00000       0.00000    
     12461 MEOH     704      MEOH     H1C      HDA3B    0.800000E-01   1.00800           0   0.00000       0.00000    
     12462 MEOH     704      MEOH     LP1A     LPD     -0.230000       0.00000          -1   0.00000       0.00000    
     12463 MEOH     704      MEOH     LP1B     LPD     -0.230000       0.00000          -1   0.00000       0.00000    
     12464 MEOH     705      MEOH     C1       CD33B     2.31410       11.6110           0  -1.00000       1.30000    
     12465 MEOH     705      MEOH     DC1      DRUD     -2.45410      0.400000           0   0.00000       0.00000    
     12466 MEOH     705      MEOH     O1       OD31H     2.48830       15.5990           0  -1.02800       1.30000    
     12467 MEOH     705      MEOH     DO1      DRUD     -2.48830      0.400000           0   0.00000       0.00000    
     12468 MEOH     705      MEOH     HO1      HDP1A    0.360000       1.00800           0   0.00000       0.00000    
     12469 MEOH     705      MEOH     HO2      DUMH      0.00000       1.00800           0   0.00000       0.00000    
     12470 MEOH     705      MEOH     H1A      HDA3B    0.800000E-01   1.00800           0   0.00000       0.00000    
     12471 MEOH     705      MEOH     H1B      HDA3B    0.800000E-01   1.00800           0   0.00000       0.00000    
     12472 MEOH     705      MEOH     H1C      HDA3B    0.800000E-01   1.00800           0   0.00000       0.00000    
     12473 MEOH     705      MEOH     LP1A     LPD     -0.230000       0.00000          -1   0.00000       0.00000    
     12474 MEOH     705      MEOH     LP1B     LPD     -0.230000       0.00000          -1   0.00000       0.00000    
     12475 MEOH     706      MEOH     C1       CD33B     2.31410       11.6110           0  -1.00000       1.30000    
     12476 MEOH     706      MEOH     DC1      DRUD     -2.45410      0.400000           0   0.00000       0.00000    
     12477 MEOH     706      MEOH     O1       OD31H     2.48830       15.5990           0  -1.02800       1.30000    
     12478 MEOH     706      MEOH     DO1      DRUD     -2.48830      0.400000           0   0.00000       0.00000    
     12479 MEOH     706      MEOH     HO1      HDP1A    0.360000       1.00800           0   0.00000       0.00000    
     12480 MEOH     706      MEOH     HO2      DUMH      0.00000       1.00800           0   0.00000       0.00000    
     12481 MEOH     706      MEOH     H1A      HDA3B    0.800000E-01   1.00800           0   0.00000       0.00000    
     12482 MEOH     706      MEOH     H1B      HDA3B    0.800000E-01   1.00800           0   0.00000       0.00000    
     12483 MEOH     706      MEOH     H1C      HDA3B    0.800000E-01   1.00800           0   0.00000       0.00000    
     12484 MEOH     706      MEOH     LP1A     LPD     -0.230000       0.00000          -1   0.00000       0.00000    
     12485 MEOH     706      MEOH     LP1B     LPD     -0.230000       0.00000          -1   0.00000       0.00000    
     12486 MEOH     707      MEOH     C1       CD33B     2.31410       11.6110           0  -1.00000       1.30000    
     12487 MEOH     707      MEOH     DC1      DRUD     -2.45410      0.400000           0   0.00000       0.00000    
     12488 MEOH     707      MEOH     O1       OD31H     2.48830       15.5990           0  -1.02800       1.30000    
     12489 MEOH     707      MEOH     DO1      DRUD     -2.48830      0.400000           0   0.00000       0.00000    
     12490 MEOH     707      MEOH     HO1      HDP1A    0.360000       1.00800           0   0.00000       0.00000    
     12491 MEOH     707      MEOH     HO2      DUMH      0.00000       1.00800           0   0.00000       0.00000    
     12492 MEOH     707      MEOH     H1A      HDA3B    0.800000E-01   1.00800           0   0.00000       0.00000    
     12493 MEOH     707      MEOH     H1B      HDA3B    0.800000E-01   1.00800           0   0.00000       0.00000    
     12494 MEOH     707      MEOH     H1C      HDA3B    0.800000E-01   1.00800           0   0.00000       0.00000    
     12495 MEOH     707      MEOH     LP1A     LPD     -0.230000       0.00000          -1   0.00000       0.00000    
     12496 MEOH     707      MEOH     LP1B     LPD     -0.230000       0.00000          -1   0.00000       0.00000    
     12497 MEOH     708      MEOH     C1       CD33B     2.31410       11.6110           0  -1.00000       1.30000    
     12498 MEOH     708      MEOH     DC1      DRUD     -2.45410      0.400000           0   0.00000       0.00000    
     12499 MEOH     708      MEOH     O1       OD31H     2.48830       15.5990           0  -1.02800       1.30000    
     12500 MEOH     708      MEOH     DO1      DRUD     -2.48830      0.400000           0   0.00000       0.00000    
     12501 MEOH     708      MEOH     HO1      HDP1A    0.360000       1.00800           0   0.00000       0.00000    
     12502 MEOH     708      MEOH     HO2      DUMH      0.00000       1.00800           0   0.00000       0.00000    
     12503 MEOH     708      MEOH     H1A      HDA3B    0.800000E-01   1.00800           0   0.00000       0.00000    
     12504 MEOH     708      MEOH     H1B      HDA3B    0.800000E-01   1.00800           0   0.00000       0.00000    
     12505 MEOH     708      MEOH     H1C      HDA3B    0.800000E-01   1.00800           0   0.00000       0.00000    
     12506 MEOH     708      MEOH     LP1A     LPD     -0.230000       0.00000          -1   0.00000       0.00000    
     12507 MEOH     708      MEOH     LP1B     LPD     -0.230000       0.00000          -1   0.00000       0.00000    
     12508 MEOH     709      MEOH     C1       CD33B     2.31410       11.6110           0  -1.00000       1.30000    
     12509 MEOH     709      MEOH     DC1      DRUD     -2.45410      0.400000           0   0.00000       0.00000    
     12510 MEOH     709      MEOH     O1       OD31H     2.48830       15.5990           0  -1.02800       1.30000    
     12511 MEOH     709      MEOH     DO1      DRUD     -2.48830      0.400000           0   0.00000       0.00000    
     12512 MEOH     709      MEOH     HO1      HDP1A    0.360000       1.00800           0   0.00000       0.00000    
     12513 MEOH     709      MEOH     HO2      DUMH      0.00000       1.00800           0   0.00000       0.00000    
     12514 MEOH     709      MEOH     H1A      HDA3B    0.800000E-01   1.00800           0   0.00000       0.00000    
     12515 MEOH     709      MEOH     H1B      HDA3B    0.800000E-01   1.00800           0   0.00000       0.00000    
     12516 MEOH     709      MEOH     H1C      HDA3B    0.800000E-01   1.00800           0   0.00000       0.00000    
     12517 MEOH     709      MEOH     LP1A     LPD     -0.230000       0.00000          -1   0.00000       0.00000    
     12518 MEOH     709      MEOH     LP1B     LPD     -0.230000       0.00000          -1   0.00000       0.00000    
     12519 MEOH     710      MEOH     C1       CD33B     2.31410       11.6110           0  -1.00000       1.30000    
     12520 MEOH     710      MEOH     DC1      DRUD     -2.45410      0.400000           0   0.00000       0.00000    
     12521 MEOH     710      MEOH     O1       OD31H     2.48830       15.5990           0  -1.02800       1.30000    
     12522 MEOH     710      MEOH     DO1      DRUD     -2.48830      0.400000           0   0.00000       0.00000    
     12523 MEOH     710      MEOH     HO1      HDP1A    0.360000       1.00800           0   0.00000       0.00000    
     12524 MEOH     710      MEOH     HO2      DUMH      0.00000       1.00800           0   0.00000       0.00000    
     12525 MEOH     710      MEOH     H1A      HDA3B    0.800000E-01   1.00800           0   0.00000       0.00000    
     12526 MEOH     710      MEOH     H1B      HDA3B    0.800000E-01   1.00800           0   0.00000       0.00000    
     12527 MEOH     710      MEOH     H1C      HDA3B    0.800000E-01   1.00800           0   0.00000       0.00000    
     12528 MEOH     710      MEOH     LP1A     LPD     -0.230000       0.00000          -1   0.00000       0.00000    
     12529 MEOH     710      MEOH     LP1B     LPD     -0.230000       0.00000          -1   0.00000       0.00000    
     12530 MEOH     711      MEOH     C1       CD33B     2.31410       11.6110           0  -1.00000       1.30000    
     12531 MEOH     711      MEOH     DC1      DRUD     -2.45410      0.400000           0   0.00000       0.00000    
     12532 MEOH     711      MEOH     O1       OD31H     2.48830       15.5990           0  -1.02800       1.30000    
     12533 MEOH     711      MEOH     DO1      DRUD     -2.48830      0.400000           0   0.00000       0.00000    
     12534 MEOH     711      MEOH     HO1      HDP1A    0.360000       1.00800           0   0.00000       0.00000    
     12535 MEOH     711      MEOH     HO2      DUMH      0.00000       1.00800           0   0.00000       0.00000    
     12536 MEOH     711      MEOH     H1A      HDA3B    0.800000E-01   1.00800           0   0.00000       0.00000    
     12537 MEOH     711      MEOH     H1B      HDA3B    0.800000E-01   1.00800           0   0.00000       0.00000    
     12538 MEOH     711      MEOH     H1C      HDA3B    0.800000E-01   1.00800           0   0.00000       0.00000    
     12539 MEOH     711      MEOH     LP1A     LPD     -0.230000       0.00000          -1   0.00000       0.00000    
     12540 MEOH     711      MEOH     LP1B     LPD     -0.230000       0.00000          -1   0.00000       0.00000    
     12541 MEOH     712      MEOH     C1       CD33B     2.31410       11.6110           0  -1.00000       1.30000    
     12542 MEOH     712      MEOH     DC1      DRUD     -2.45410      0.400000           0   0.00000       0.00000    
     12543 MEOH     712      MEOH     O1       OD31H     2.48830       15.5990           0  -1.02800       1.30000    
     12544 MEOH     712      MEOH     DO1      DRUD     -2.48830      0.400000           0   0.00000       0.00000    
     12545 MEOH     712      MEOH     HO1      HDP1A    0.360000       1.00800           0   0.00000       0.00000    
     12546 MEOH     712      MEOH     HO2      DUMH      0.00000       1.00800           0   0.00000       0.00000    
     12547 MEOH     712      MEOH     H1A      HDA3B    0.800000E-01   1.00800           0   0.00000       0.00000    
     12548 MEOH     712      MEOH     H1B      HDA3B    0.800000E-01   1.00800           0   0.00000       0.00000    
     12549 MEOH     712      MEOH     H1C      HDA3B    0.800000E-01   1.00800           0   0.00000       0.00000    
     12550 MEOH     712      MEOH     LP1A     LPD     -0.230000       0.00000          -1   0.00000       0.00000    
     12551 MEOH     712      MEOH     LP1B     LPD     -0.230000       0.00000          -1   0.00000       0.00000    
     12552 MEOH     713      MEOH     C1       CD33B     2.31410       11.6110           0  -1.00000       1.30000    
     12553 MEOH     713      MEOH     DC1      DRUD     -2.45410      0.400000           0   0.00000       0.00000    
     12554 MEOH     713      MEOH     O1       OD31H     2.48830       15.5990           0  -1.02800       1.30000    
     12555 MEOH     713      MEOH     DO1      DRUD     -2.48830      0.400000           0   0.00000       0.00000    
     12556 MEOH     713      MEOH     HO1      HDP1A    0.360000       1.00800           0   0.00000       0.00000    
     12557 MEOH     713      MEOH     HO2      DUMH      0.00000       1.00800           0   0.00000       0.00000    
     12558 MEOH     713      MEOH     H1A      HDA3B    0.800000E-01   1.00800           0   0.00000       0.00000    
     12559 MEOH     713      MEOH     H1B      HDA3B    0.800000E-01   1.00800           0   0.00000       0.00000    
     12560 MEOH     713      MEOH     H1C      HDA3B    0.800000E-01   1.00800           0   0.00000       0.00000    
     12561 MEOH     713      MEOH     LP1A     LPD     -0.230000       0.00000          -1   0.00000       0.00000    
     12562 MEOH     713      MEOH     LP1B     LPD     -0.230000       0.00000          -1   0.00000       0.00000    
     12563 MEOH     714      MEOH     C1       CD33B     2.31410       11.6110           0  -1.00000       1.30000    
     12564 MEOH     714      MEOH     DC1      DRUD     -2.45410      0.400000           0   0.00000       0.00000    
     12565 MEOH     714      MEOH     O1       OD31H     2.48830       15.5990           0  -1.02800       1.30000    
     12566 MEOH     714      MEOH     DO1      DRUD     -2.48830      0.400000           0   0.00000       0.00000    
     12567 MEOH     714      MEOH     HO1      HDP1A    0.360000       1.00800           0   0.00000       0.00000    
     12568 MEOH     714      MEOH     HO2      DUMH      0.00000       1.00800           0   0.00000       0.00000    
     12569 MEOH     714      MEOH     H1A      HDA3B    0.800000E-01   1.00800           0   0.00000       0.00000    
     12570 MEOH     714      MEOH     H1B      HDA3B    0.800000E-01   1.00800           0   0.00000       0.00000    
     12571 MEOH     714      MEOH     H1C      HDA3B    0.800000E-01   1.00800           0   0.00000       0.00000    
     12572 MEOH     714      MEOH     LP1A     LPD     -0.230000       0.00000          -1   0.00000       0.00000    
     12573 MEOH     714      MEOH     LP1B     LPD     -0.230000       0.00000          -1   0.00000       0.00000    
     12574 MEOH     715      MEOH     C1       CD33B     2.31410       11.6110           0  -1.00000       1.30000    
     12575 MEOH     715      MEOH     DC1      DRUD     -2.45410      0.400000           0   0.00000       0.00000    
     12576 MEOH     715      MEOH     O1       OD31H     2.48830       15.5990           0  -1.02800       1.30000    
     12577 MEOH     715      MEOH     DO1      DRUD     -2.48830      0.400000           0   0.00000       0.00000    
     12578 MEOH     715      MEOH     HO1      HDP1A    0.360000       1.00800           0   0.00000       0.00000    
     12579 MEOH     715      MEOH     HO2      DUMH      0.00000       1.00800           0   0.00000       0.00000    
     12580 MEOH     715      MEOH     H1A      HDA3B    0.800000E-01   1.00800           0   0.00000       0.00000    
     12581 MEOH     715      MEOH     H1B      HDA3B    0.800000E-01   1.00800           0   0.00000       0.00000    
     12582 MEOH     715      MEOH     H1C      HDA3B    0.800000E-01   1.00800           0   0.00000       0.00000    
     12583 MEOH     715      MEOH     LP1A     LPD     -0.230000       0.00000          -1   0.00000       0.00000    
     12584 MEOH     715      MEOH     LP1B     LPD     -0.230000       0.00000          -1   0.00000       0.00000    
     12585 MEOH     716      MEOH     C1       CD33B     2.31410       11.6110           0  -1.00000       1.30000    
     12586 MEOH     716      MEOH     DC1      DRUD     -2.45410      0.400000           0   0.00000       0.00000    
     12587 MEOH     716      MEOH     O1       OD31H     2.48830       15.5990           0  -1.02800       1.30000    
     12588 MEOH     716      MEOH     DO1      DRUD     -2.48830      0.400000           0   0.00000       0.00000    
     12589 MEOH     716      MEOH     HO1      HDP1A    0.360000       1.00800           0   0.00000       0.00000    
     12590 MEOH     716      MEOH     HO2      DUMH      0.00000       1.00800           0   0.00000       0.00000    
     12591 MEOH     716      MEOH     H1A      HDA3B    0.800000E-01   1.00800           0   0.00000       0.00000    
     12592 MEOH     716      MEOH     H1B      HDA3B    0.800000E-01   1.00800           0   0.00000       0.00000    
     12593 MEOH     716      MEOH     H1C      HDA3B    0.800000E-01   1.00800           0   0.00000       0.00000    
     12594 MEOH     716      MEOH     LP1A     LPD     -0.230000       0.00000          -1   0.00000       0.00000    
     12595 MEOH     716      MEOH     LP1B     LPD     -0.230000       0.00000          -1   0.00000       0.00000    
     12596 MEOH     717      MEOH     C1       CD33B     2.31410       11.6110           0  -1.00000       1.30000    
     12597 MEOH     717      MEOH     DC1      DRUD     -2.45410      0.400000           0   0.00000       0.00000    
     12598 MEOH     717      MEOH     O1       OD31H     2.48830       15.5990           0  -1.02800       1.30000    
     12599 MEOH     717      MEOH     DO1      DRUD     -2.48830      0.400000           0   0.00000       0.00000    
     12600 MEOH     717      MEOH     HO1      HDP1A    0.360000       1.00800           0   0.00000       0.00000    
     12601 MEOH     717      MEOH     HO2      DUMH      0.00000       1.00800           0   0.00000       0.00000    
     12602 MEOH     717      MEOH     H1A      HDA3B    0.800000E-01   1.00800           0   0.00000       0.00000    
     12603 MEOH     717      MEOH     H1B      HDA3B    0.800000E-01   1.00800           0   0.00000       0.00000    
     12604 MEOH     717      MEOH     H1C      HDA3B    0.800000E-01   1.00800           0   0.00000       0.00000    
     12605 MEOH     717      MEOH     LP1A     LPD     -0.230000       0.00000          -1   0.00000       0.00000    
     12606 MEOH     717      MEOH     LP1B     LPD     -0.230000       0.00000          -1   0.00000       0.00000    
     12607 MEOH     718      MEOH     C1       CD33B     2.31410       11.6110           0  -1.00000       1.30000    
     12608 MEOH     718      MEOH     DC1      DRUD     -2.45410      0.400000           0   0.00000       0.00000    
     12609 MEOH     718      MEOH     O1       OD31H     2.48830       15.5990           0  -1.02800       1.30000    
     12610 MEOH     718      MEOH     DO1      DRUD     -2.48830      0.400000           0   0.00000       0.00000    
     12611 MEOH     718      MEOH     HO1      HDP1A    0.360000       1.00800           0   0.00000       0.00000    
     12612 MEOH     718      MEOH     HO2      DUMH      0.00000       1.00800           0   0.00000       0.00000    
     12613 MEOH     718      MEOH     H1A      HDA3B    0.800000E-01   1.00800           0   0.00000       0.00000    
     12614 MEOH     718      MEOH     H1B      HDA3B    0.800000E-01   1.00800           0   0.00000       0.00000    
     12615 MEOH     718      MEOH     H1C      HDA3B    0.800000E-01   1.00800           0   0.00000       0.00000    
     12616 MEOH     718      MEOH     LP1A     LPD     -0.230000       0.00000          -1   0.00000       0.00000    
     12617 MEOH     718      MEOH     LP1B     LPD     -0.230000       0.00000          -1   0.00000       0.00000    
     12618 MEOH     719      MEOH     C1       CD33B     2.31410       11.6110           0  -1.00000       1.30000    
     12619 MEOH     719      MEOH     DC1      DRUD     -2.45410      0.400000           0   0.00000       0.00000    
     12620 MEOH     719      MEOH     O1       OD31H     2.48830       15.5990           0  -1.02800       1.30000    
     12621 MEOH     719      MEOH     DO1      DRUD     -2.48830      0.400000           0   0.00000       0.00000    
     12622 MEOH     719      MEOH     HO1      HDP1A    0.360000       1.00800           0   0.00000       0.00000    
     12623 MEOH     719      MEOH     HO2      DUMH      0.00000       1.00800           0   0.00000       0.00000    
     12624 MEOH     719      MEOH     H1A      HDA3B    0.800000E-01   1.00800           0   0.00000       0.00000    
     12625 MEOH     719      MEOH     H1B      HDA3B    0.800000E-01   1.00800           0   0.00000       0.00000    
     12626 MEOH     719      MEOH     H1C      HDA3B    0.800000E-01   1.00800           0   0.00000       0.00000    
     12627 MEOH     719      MEOH     LP1A     LPD     -0.230000       0.00000          -1   0.00000       0.00000    
     12628 MEOH     719      MEOH     LP1B     LPD     -0.230000       0.00000          -1   0.00000       0.00000    
     12629 MEOH     720      MEOH     C1       CD33B     2.31410       11.6110           0  -1.00000       1.30000    
     12630 MEOH     720      MEOH     DC1      DRUD     -2.45410      0.400000           0   0.00000       0.00000    
     12631 MEOH     720      MEOH     O1       OD31H     2.48830       15.5990           0  -1.02800       1.30000    
     12632 MEOH     720      MEOH     DO1      DRUD     -2.48830      0.400000           0   0.00000       0.00000    
     12633 MEOH     720      MEOH     HO1      HDP1A    0.360000       1.00800           0   0.00000       0.00000    
     12634 MEOH     720      MEOH     HO2      DUMH      0.00000       1.00800           0   0.00000       0.00000    
     12635 MEOH     720      MEOH     H1A      HDA3B    0.800000E-01   1.00800           0   0.00000       0.00000    
     12636 MEOH     720      MEOH     H1B      HDA3B    0.800000E-01   1.00800           0   0.00000       0.00000    
     12637 MEOH     720      MEOH     H1C      HDA3B    0.800000E-01   1.00800           0   0.00000       0.00000    
     12638 MEOH     720      MEOH     LP1A     LPD     -0.230000       0.00000          -1   0.00000       0.00000    
     12639 MEOH     720      MEOH     LP1B     LPD     -0.230000       0.00000          -1   0.00000       0.00000    
     12640 MEOH     721      MEOH     C1       CD33B     2.31410       11.6110           0  -1.00000       1.30000    
     12641 MEOH     721      MEOH     DC1      DRUD     -2.45410      0.400000           0   0.00000       0.00000    
     12642 MEOH     721      MEOH     O1       OD31H     2.48830       15.5990           0  -1.02800       1.30000    
     12643 MEOH     721      MEOH     DO1      DRUD     -2.48830      0.400000           0   0.00000       0.00000    
     12644 MEOH     721      MEOH     HO1      HDP1A    0.360000       1.00800           0   0.00000       0.00000    
     12645 MEOH     721      MEOH     HO2      DUMH      0.00000       1.00800           0   0.00000       0.00000    
     12646 MEOH     721      MEOH     H1A      HDA3B    0.800000E-01   1.00800           0   0.00000       0.00000    
     12647 MEOH     721      MEOH     H1B      HDA3B    0.800000E-01   1.00800           0   0.00000       0.00000    
     12648 MEOH     721      MEOH     H1C      HDA3B    0.800000E-01   1.00800           0   0.00000       0.00000    
     12649 MEOH     721      MEOH     LP1A     LPD     -0.230000       0.00000          -1   0.00000       0.00000    
     12650 MEOH     721      MEOH     LP1B     LPD     -0.230000       0.00000          -1   0.00000       0.00000    
     12651 MEOH     722      MEOH     C1       CD33B     2.31410       11.6110           0  -1.00000       1.30000    
     12652 MEOH     722      MEOH     DC1      DRUD     -2.45410      0.400000           0   0.00000       0.00000    
     12653 MEOH     722      MEOH     O1       OD31H     2.48830       15.5990           0  -1.02800       1.30000    
     12654 MEOH     722      MEOH     DO1      DRUD     -2.48830      0.400000           0   0.00000       0.00000    
     12655 MEOH     722      MEOH     HO1      HDP1A    0.360000       1.00800           0   0.00000       0.00000    
     12656 MEOH     722      MEOH     HO2      DUMH      0.00000       1.00800           0   0.00000       0.00000    
     12657 MEOH     722      MEOH     H1A      HDA3B    0.800000E-01   1.00800           0   0.00000       0.00000    
     12658 MEOH     722      MEOH     H1B      HDA3B    0.800000E-01   1.00800           0   0.00000       0.00000    
     12659 MEOH     722      MEOH     H1C      HDA3B    0.800000E-01   1.00800           0   0.00000       0.00000    
     12660 MEOH     722      MEOH     LP1A     LPD     -0.230000       0.00000          -1   0.00000       0.00000    
     12661 MEOH     722      MEOH     LP1B     LPD     -0.230000       0.00000          -1   0.00000       0.00000    
     12662 MEOH     723      MEOH     C1       CD33B     2.31410       11.6110           0  -1.00000       1.30000    
     12663 MEOH     723      MEOH     DC1      DRUD     -2.45410      0.400000           0   0.00000       0.00000    
     12664 MEOH     723      MEOH     O1       OD31H     2.48830       15.5990           0  -1.02800       1.30000    
     12665 MEOH     723      MEOH     DO1      DRUD     -2.48830      0.400000           0   0.00000       0.00000    
     12666 MEOH     723      MEOH     HO1      HDP1A    0.360000       1.00800           0   0.00000       0.00000    
     12667 MEOH     723      MEOH     HO2      DUMH      0.00000       1.00800           0   0.00000       0.00000    
     12668 MEOH     723      MEOH     H1A      HDA3B    0.800000E-01   1.00800           0   0.00000       0.00000    
     12669 MEOH     723      MEOH     H1B      HDA3B    0.800000E-01   1.00800           0   0.00000       0.00000    
     12670 MEOH     723      MEOH     H1C      HDA3B    0.800000E-01   1.00800           0   0.00000       0.00000    
     12671 MEOH     723      MEOH     LP1A     LPD     -0.230000       0.00000          -1   0.00000       0.00000    
     12672 MEOH     723      MEOH     LP1B     LPD     -0.230000       0.00000          -1   0.00000       0.00000    
     12673 MEOH     724      MEOH     C1       CD33B     2.31410       11.6110           0  -1.00000       1.30000    
     12674 MEOH     724      MEOH     DC1      DRUD     -2.45410      0.400000           0   0.00000       0.00000    
     12675 MEOH     724      MEOH     O1       OD31H     2.48830       15.5990           0  -1.02800       1.30000    
     12676 MEOH     724      MEOH     DO1      DRUD     -2.48830      0.400000           0   0.00000       0.00000    
     12677 MEOH     724      MEOH     HO1      HDP1A    0.360000       1.00800           0   0.00000       0.00000    
     12678 MEOH     724      MEOH     HO2      DUMH      0.00000       1.00800           0   0.00000       0.00000    
     12679 MEOH     724      MEOH     H1A      HDA3B    0.800000E-01   1.00800           0   0.00000       0.00000    
     12680 MEOH     724      MEOH     H1B      HDA3B    0.800000E-01   1.00800           0   0.00000       0.00000    
     12681 MEOH     724      MEOH     H1C      HDA3B    0.800000E-01   1.00800           0   0.00000       0.00000    
     12682 MEOH     724      MEOH     LP1A     LPD     -0.230000       0.00000          -1   0.00000       0.00000    
     12683 MEOH     724      MEOH     LP1B     LPD     -0.230000       0.00000          -1   0.00000       0.00000    
     12684 MEOH     725      MEOH     C1       CD33B     2.31410       11.6110           0  -1.00000       1.30000    
     12685 MEOH     725      MEOH     DC1      DRUD     -2.45410      0.400000           0   0.00000       0.00000    
     12686 MEOH     725      MEOH     O1       OD31H     2.48830       15.5990           0  -1.02800       1.30000    
     12687 MEOH     725      MEOH     DO1      DRUD     -2.48830      0.400000           0   0.00000       0.00000    
     12688 MEOH     725      MEOH     HO1      HDP1A    0.360000       1.00800           0   0.00000       0.00000    
     12689 MEOH     725      MEOH     HO2      DUMH      0.00000       1.00800           0   0.00000       0.00000    
     12690 MEOH     725      MEOH     H1A      HDA3B    0.800000E-01   1.00800           0   0.00000       0.00000    
     12691 MEOH     725      MEOH     H1B      HDA3B    0.800000E-01   1.00800           0   0.00000       0.00000    
     12692 MEOH     725      MEOH     H1C      HDA3B    0.800000E-01   1.00800           0   0.00000       0.00000    
     12693 MEOH     725      MEOH     LP1A     LPD     -0.230000       0.00000          -1   0.00000       0.00000    
     12694 MEOH     725      MEOH     LP1B     LPD     -0.230000       0.00000          -1   0.00000       0.00000    
     12695 MEOH     726      MEOH     C1       CD33B     2.31410       11.6110           0  -1.00000       1.30000    
     12696 MEOH     726      MEOH     DC1      DRUD     -2.45410      0.400000           0   0.00000       0.00000    
     12697 MEOH     726      MEOH     O1       OD31H     2.48830       15.5990           0  -1.02800       1.30000    
     12698 MEOH     726      MEOH     DO1      DRUD     -2.48830      0.400000           0   0.00000       0.00000    
     12699 MEOH     726      MEOH     HO1      HDP1A    0.360000       1.00800           0   0.00000       0.00000    
     12700 MEOH     726      MEOH     HO2      DUMH      0.00000       1.00800           0   0.00000       0.00000    
     12701 MEOH     726      MEOH     H1A      HDA3B    0.800000E-01   1.00800           0   0.00000       0.00000    
     12702 MEOH     726      MEOH     H1B      HDA3B    0.800000E-01   1.00800           0   0.00000       0.00000    
     12703 MEOH     726      MEOH     H1C      HDA3B    0.800000E-01   1.00800           0   0.00000       0.00000    
     12704 MEOH     726      MEOH     LP1A     LPD     -0.230000       0.00000          -1   0.00000       0.00000    
     12705 MEOH     726      MEOH     LP1B     LPD     -0.230000       0.00000          -1   0.00000       0.00000    
     12706 MEOH     727      MEOH     C1       CD33B     2.31410       11.6110           0  -1.00000       1.30000    
     12707 MEOH     727      MEOH     DC1      DRUD     -2.45410      0.400000           0   0.00000       0.00000    
     12708 MEOH     727      MEOH     O1       OD31H     2.48830       15.5990           0  -1.02800       1.30000    
     12709 MEOH     727      MEOH     DO1      DRUD     -2.48830      0.400000           0   0.00000       0.00000    
     12710 MEOH     727      MEOH     HO1      HDP1A    0.360000       1.00800           0   0.00000       0.00000    
     12711 MEOH     727      MEOH     HO2      DUMH      0.00000       1.00800           0   0.00000       0.00000    
     12712 MEOH     727      MEOH     H1A      HDA3B    0.800000E-01   1.00800           0   0.00000       0.00000    
     12713 MEOH     727      MEOH     H1B      HDA3B    0.800000E-01   1.00800           0   0.00000       0.00000    
     12714 MEOH     727      MEOH     H1C      HDA3B    0.800000E-01   1.00800           0   0.00000       0.00000    
     12715 MEOH     727      MEOH     LP1A     LPD     -0.230000       0.00000          -1   0.00000       0.00000    
     12716 MEOH     727      MEOH     LP1B     LPD     -0.230000       0.00000          -1   0.00000       0.00000    
     12717 MEOH     728      MEOH     C1       CD33B     2.31410       11.6110           0  -1.00000       1.30000    
     12718 MEOH     728      MEOH     DC1      DRUD     -2.45410      0.400000           0   0.00000       0.00000    
     12719 MEOH     728      MEOH     O1       OD31H     2.48830       15.5990           0  -1.02800       1.30000    
     12720 MEOH     728      MEOH     DO1      DRUD     -2.48830      0.400000           0   0.00000       0.00000    
     12721 MEOH     728      MEOH     HO1      HDP1A    0.360000       1.00800           0   0.00000       0.00000    
     12722 MEOH     728      MEOH     HO2      DUMH      0.00000       1.00800           0   0.00000       0.00000    
     12723 MEOH     728      MEOH     H1A      HDA3B    0.800000E-01   1.00800           0   0.00000       0.00000    
     12724 MEOH     728      MEOH     H1B      HDA3B    0.800000E-01   1.00800           0   0.00000       0.00000    
     12725 MEOH     728      MEOH     H1C      HDA3B    0.800000E-01   1.00800           0   0.00000       0.00000    
     12726 MEOH     728      MEOH     LP1A     LPD     -0.230000       0.00000          -1   0.00000       0.00000    
     12727 MEOH     728      MEOH     LP1B     LPD     -0.230000       0.00000          -1   0.00000       0.00000    
     12728 MEOH     729      MEOH     C1       CD33B     2.31410       11.6110           0  -1.00000       1.30000    
     12729 MEOH     729      MEOH     DC1      DRUD     -2.45410      0.400000           0   0.00000       0.00000    
     12730 MEOH     729      MEOH     O1       OD31H     2.48830       15.5990           0  -1.02800       1.30000    
     12731 MEOH     729      MEOH     DO1      DRUD     -2.48830      0.400000           0   0.00000       0.00000    
     12732 MEOH     729      MEOH     HO1      HDP1A    0.360000       1.00800           0   0.00000       0.00000    
     12733 MEOH     729      MEOH     HO2      DUMH      0.00000       1.00800           0   0.00000       0.00000    
     12734 MEOH     729      MEOH     H1A      HDA3B    0.800000E-01   1.00800           0   0.00000       0.00000    
     12735 MEOH     729      MEOH     H1B      HDA3B    0.800000E-01   1.00800           0   0.00000       0.00000    
     12736 MEOH     729      MEOH     H1C      HDA3B    0.800000E-01   1.00800           0   0.00000       0.00000    
     12737 MEOH     729      MEOH     LP1A     LPD     -0.230000       0.00000          -1   0.00000       0.00000    
     12738 MEOH     729      MEOH     LP1B     LPD     -0.230000       0.00000          -1   0.00000       0.00000    
     12739 MEOH     730      MEOH     C1       CD33B     2.31410       11.6110           0  -1.00000       1.30000    
     12740 MEOH     730      MEOH     DC1      DRUD     -2.45410      0.400000           0   0.00000       0.00000    
     12741 MEOH     730      MEOH     O1       OD31H     2.48830       15.5990           0  -1.02800       1.30000    
     12742 MEOH     730      MEOH     DO1      DRUD     -2.48830      0.400000           0   0.00000       0.00000    
     12743 MEOH     730      MEOH     HO1      HDP1A    0.360000       1.00800           0   0.00000       0.00000    
     12744 MEOH     730      MEOH     HO2      DUMH      0.00000       1.00800           0   0.00000       0.00000    
     12745 MEOH     730      MEOH     H1A      HDA3B    0.800000E-01   1.00800           0   0.00000       0.00000    
     12746 MEOH     730      MEOH     H1B      HDA3B    0.800000E-01   1.00800           0   0.00000       0.00000    
     12747 MEOH     730      MEOH     H1C      HDA3B    0.800000E-01   1.00800           0   0.00000       0.00000    
     12748 MEOH     730      MEOH     LP1A     LPD     -0.230000       0.00000          -1   0.00000       0.00000    
     12749 MEOH     730      MEOH     LP1B     LPD     -0.230000       0.00000          -1   0.00000       0.00000    
     12750 MEOH     731      MEOH     C1       CD33B     2.31410       11.6110           0  -1.00000       1.30000    
     12751 MEOH     731      MEOH     DC1      DRUD     -2.45410      0.400000           0   0.00000       0.00000    
     12752 MEOH     731      MEOH     O1       OD31H     2.48830       15.5990           0  -1.02800       1.30000    
     12753 MEOH     731      MEOH     DO1      DRUD     -2.48830      0.400000           0   0.00000       0.00000    
     12754 MEOH     731      MEOH     HO1      HDP1A    0.360000       1.00800           0   0.00000       0.00000    
     12755 MEOH     731      MEOH     HO2      DUMH      0.00000       1.00800           0   0.00000       0.00000    
     12756 MEOH     731      MEOH     H1A      HDA3B    0.800000E-01   1.00800           0   0.00000       0.00000    
     12757 MEOH     731      MEOH     H1B      HDA3B    0.800000E-01   1.00800           0   0.00000       0.00000    
     12758 MEOH     731      MEOH     H1C      HDA3B    0.800000E-01   1.00800           0   0.00000       0.00000    
     12759 MEOH     731      MEOH     LP1A     LPD     -0.230000       0.00000          -1   0.00000       0.00000    
     12760 MEOH     731      MEOH     LP1B     LPD     -0.230000       0.00000          -1   0.00000       0.00000    
     12761 MEOH     732      MEOH     C1       CD33B     2.31410       11.6110           0  -1.00000       1.30000    
     12762 MEOH     732      MEOH     DC1      DRUD     -2.45410      0.400000           0   0.00000       0.00000    
     12763 MEOH     732      MEOH     O1       OD31H     2.48830       15.5990           0  -1.02800       1.30000    
     12764 MEOH     732      MEOH     DO1      DRUD     -2.48830      0.400000           0   0.00000       0.00000    
     12765 MEOH     732      MEOH     HO1      HDP1A    0.360000       1.00800           0   0.00000       0.00000    
     12766 MEOH     732      MEOH     HO2      DUMH      0.00000       1.00800           0   0.00000       0.00000    
     12767 MEOH     732      MEOH     H1A      HDA3B    0.800000E-01   1.00800           0   0.00000       0.00000    
     12768 MEOH     732      MEOH     H1B      HDA3B    0.800000E-01   1.00800           0   0.00000       0.00000    
     12769 MEOH     732      MEOH     H1C      HDA3B    0.800000E-01   1.00800           0   0.00000       0.00000    
     12770 MEOH     732      MEOH     LP1A     LPD     -0.230000       0.00000          -1   0.00000       0.00000    
     12771 MEOH     732      MEOH     LP1B     LPD     -0.230000       0.00000          -1   0.00000       0.00000    
     12772 MEOH     733      MEOH     C1       CD33B     2.31410       11.6110           0  -1.00000       1.30000    
     12773 MEOH     733      MEOH     DC1      DRUD     -2.45410      0.400000           0   0.00000       0.00000    
     12774 MEOH     733      MEOH     O1       OD31H     2.48830       15.5990           0  -1.02800       1.30000    
     12775 MEOH     733      MEOH     DO1      DRUD     -2.48830      0.400000           0   0.00000       0.00000    
     12776 MEOH     733      MEOH     HO1      HDP1A    0.360000       1.00800           0   0.00000       0.00000    
     12777 MEOH     733      MEOH     HO2      DUMH      0.00000       1.00800           0   0.00000       0.00000    
     12778 MEOH     733      MEOH     H1A      HDA3B    0.800000E-01   1.00800           0   0.00000       0.00000    
     12779 MEOH     733      MEOH     H1B      HDA3B    0.800000E-01   1.00800           0   0.00000       0.00000    
     12780 MEOH     733      MEOH     H1C      HDA3B    0.800000E-01   1.00800           0   0.00000       0.00000    
     12781 MEOH     733      MEOH     LP1A     LPD     -0.230000       0.00000          -1   0.00000       0.00000    
     12782 MEOH     733      MEOH     LP1B     LPD     -0.230000       0.00000          -1   0.00000       0.00000    
     12783 MEOH     734      MEOH     C1       CD33B     2.31410       11.6110           0  -1.00000       1.30000    
     12784 MEOH     734      MEOH     DC1      DRUD     -2.45410      0.400000           0   0.00000       0.00000    
     12785 MEOH     734      MEOH     O1       OD31H     2.48830       15.5990           0  -1.02800       1.30000    
     12786 MEOH     734      MEOH     DO1      DRUD     -2.48830      0.400000           0   0.00000       0.00000    
     12787 MEOH     734      MEOH     HO1      HDP1A    0.360000       1.00800           0   0.00000       0.00000    
     12788 MEOH     734      MEOH     HO2      DUMH      0.00000       1.00800           0   0.00000       0.00000    
     12789 MEOH     734      MEOH     H1A      HDA3B    0.800000E-01   1.00800           0   0.00000       0.00000    
     12790 MEOH     734      MEOH     H1B      HDA3B    0.800000E-01   1.00800           0   0.00000       0.00000    
     12791 MEOH     734      MEOH     H1C      HDA3B    0.800000E-01   1.00800           0   0.00000       0.00000    
     12792 MEOH     734      MEOH     LP1A     LPD     -0.230000       0.00000          -1   0.00000       0.00000    
     12793 MEOH     734      MEOH     LP1B     LPD     -0.230000       0.00000          -1   0.00000       0.00000    
     12794 MEOH     735      MEOH     C1       CD33B     2.31410       11.6110           0  -1.00000       1.30000    
     12795 MEOH     735      MEOH     DC1      DRUD     -2.45410      0.400000           0   0.00000       0.00000    
     12796 MEOH     735      MEOH     O1       OD31H     2.48830       15.5990           0  -1.02800       1.30000    
     12797 MEOH     735      MEOH     DO1      DRUD     -2.48830      0.400000           0   0.00000       0.00000    
     12798 MEOH     735      MEOH     HO1      HDP1A    0.360000       1.00800           0   0.00000       0.00000    
     12799 MEOH     735      MEOH     HO2      DUMH      0.00000       1.00800           0   0.00000       0.00000    
     12800 MEOH     735      MEOH     H1A      HDA3B    0.800000E-01   1.00800           0   0.00000       0.00000    
     12801 MEOH     735      MEOH     H1B      HDA3B    0.800000E-01   1.00800           0   0.00000       0.00000    
     12802 MEOH     735      MEOH     H1C      HDA3B    0.800000E-01   1.00800           0   0.00000       0.00000    
     12803 MEOH     735      MEOH     LP1A     LPD     -0.230000       0.00000          -1   0.00000       0.00000    
     12804 MEOH     735      MEOH     LP1B     LPD     -0.230000       0.00000          -1   0.00000       0.00000    
     12805 MEOH     736      MEOH     C1       CD33B     2.31410       11.6110           0  -1.00000       1.30000    
     12806 MEOH     736      MEOH     DC1      DRUD     -2.45410      0.400000           0   0.00000       0.00000    
     12807 MEOH     736      MEOH     O1       OD31H     2.48830       15.5990           0  -1.02800       1.30000    
     12808 MEOH     736      MEOH     DO1      DRUD     -2.48830      0.400000           0   0.00000       0.00000    
     12809 MEOH     736      MEOH     HO1      HDP1A    0.360000       1.00800           0   0.00000       0.00000    
     12810 MEOH     736      MEOH     HO2      DUMH      0.00000       1.00800           0   0.00000       0.00000    
     12811 MEOH     736      MEOH     H1A      HDA3B    0.800000E-01   1.00800           0   0.00000       0.00000    
     12812 MEOH     736      MEOH     H1B      HDA3B    0.800000E-01   1.00800           0   0.00000       0.00000    
     12813 MEOH     736      MEOH     H1C      HDA3B    0.800000E-01   1.00800           0   0.00000       0.00000    
     12814 MEOH     736      MEOH     LP1A     LPD     -0.230000       0.00000          -1   0.00000       0.00000    
     12815 MEOH     736      MEOH     LP1B     LPD     -0.230000       0.00000          -1   0.00000       0.00000    
     12816 MEOH     737      MEOH     C1       CD33B     2.31410       11.6110           0  -1.00000       1.30000    
     12817 MEOH     737      MEOH     DC1      DRUD     -2.45410      0.400000           0   0.00000       0.00000    
     12818 MEOH     737      MEOH     O1       OD31H     2.48830       15.5990           0  -1.02800       1.30000    
     12819 MEOH     737      MEOH     DO1      DRUD     -2.48830      0.400000           0   0.00000       0.00000    
     12820 MEOH     737      MEOH     HO1      HDP1A    0.360000       1.00800           0   0.00000       0.00000    
     12821 MEOH     737      MEOH     HO2      DUMH      0.00000       1.00800           0   0.00000       0.00000    
     12822 MEOH     737      MEOH     H1A      HDA3B    0.800000E-01   1.00800           0   0.00000       0.00000    
     12823 MEOH     737      MEOH     H1B      HDA3B    0.800000E-01   1.00800           0   0.00000       0.00000    
     12824 MEOH     737      MEOH     H1C      HDA3B    0.800000E-01   1.00800           0   0.00000       0.00000    
     12825 MEOH     737      MEOH     LP1A     LPD     -0.230000       0.00000          -1   0.00000       0.00000    
     12826 MEOH     737      MEOH     LP1B     LPD     -0.230000       0.00000          -1   0.00000       0.00000    
     12827 MEOH     738      MEOH     C1       CD33B     2.31410       11.6110           0  -1.00000       1.30000    
     12828 MEOH     738      MEOH     DC1      DRUD     -2.45410      0.400000           0   0.00000       0.00000    
     12829 MEOH     738      MEOH     O1       OD31H     2.48830       15.5990           0  -1.02800       1.30000    
     12830 MEOH     738      MEOH     DO1      DRUD     -2.48830      0.400000           0   0.00000       0.00000    
     12831 MEOH     738      MEOH     HO1      HDP1A    0.360000       1.00800           0   0.00000       0.00000    
     12832 MEOH     738      MEOH     HO2      DUMH      0.00000       1.00800           0   0.00000       0.00000    
     12833 MEOH     738      MEOH     H1A      HDA3B    0.800000E-01   1.00800           0   0.00000       0.00000    
     12834 MEOH     738      MEOH     H1B      HDA3B    0.800000E-01   1.00800           0   0.00000       0.00000    
     12835 MEOH     738      MEOH     H1C      HDA3B    0.800000E-01   1.00800           0   0.00000       0.00000    
     12836 MEOH     738      MEOH     LP1A     LPD     -0.230000       0.00000          -1   0.00000       0.00000    
     12837 MEOH     738      MEOH     LP1B     LPD     -0.230000       0.00000          -1   0.00000       0.00000    
     12838 MEOH     739      MEOH     C1       CD33B     2.31410       11.6110           0  -1.00000       1.30000    
     12839 MEOH     739      MEOH     DC1      DRUD     -2.45410      0.400000           0   0.00000       0.00000    
     12840 MEOH     739      MEOH     O1       OD31H     2.48830       15.5990           0  -1.02800       1.30000    
     12841 MEOH     739      MEOH     DO1      DRUD     -2.48830      0.400000           0   0.00000       0.00000    
     12842 MEOH     739      MEOH     HO1      HDP1A    0.360000       1.00800           0   0.00000       0.00000    
     12843 MEOH     739      MEOH     HO2      DUMH      0.00000       1.00800           0   0.00000       0.00000    
     12844 MEOH     739      MEOH     H1A      HDA3B    0.800000E-01   1.00800           0   0.00000       0.00000    
     12845 MEOH     739      MEOH     H1B      HDA3B    0.800000E-01   1.00800           0   0.00000       0.00000    
     12846 MEOH     739      MEOH     H1C      HDA3B    0.800000E-01   1.00800           0   0.00000       0.00000    
     12847 MEOH     739      MEOH     LP1A     LPD     -0.230000       0.00000          -1   0.00000       0.00000    
     12848 MEOH     739      MEOH     LP1B     LPD     -0.230000       0.00000          -1   0.00000       0.00000    
     12849 MEOH     740      MEOH     C1       CD33B     2.31410       11.6110           0  -1.00000       1.30000    
     12850 MEOH     740      MEOH     DC1      DRUD     -2.45410      0.400000           0   0.00000       0.00000    
     12851 MEOH     740      MEOH     O1       OD31H     2.48830       15.5990           0  -1.02800       1.30000    
     12852 MEOH     740      MEOH     DO1      DRUD     -2.48830      0.400000           0   0.00000       0.00000    
     12853 MEOH     740      MEOH     HO1      HDP1A    0.360000       1.00800           0   0.00000       0.00000    
     12854 MEOH     740      MEOH     HO2      DUMH      0.00000       1.00800           0   0.00000       0.00000    
     12855 MEOH     740      MEOH     H1A      HDA3B    0.800000E-01   1.00800           0   0.00000       0.00000    
     12856 MEOH     740      MEOH     H1B      HDA3B    0.800000E-01   1.00800           0   0.00000       0.00000    
     12857 MEOH     740      MEOH     H1C      HDA3B    0.800000E-01   1.00800           0   0.00000       0.00000    
     12858 MEOH     740      MEOH     LP1A     LPD     -0.230000       0.00000          -1   0.00000       0.00000    
     12859 MEOH     740      MEOH     LP1B     LPD     -0.230000       0.00000          -1   0.00000       0.00000    
     12860 MEOH     741      MEOH     C1       CD33B     2.31410       11.6110           0  -1.00000       1.30000    
     12861 MEOH     741      MEOH     DC1      DRUD     -2.45410      0.400000           0   0.00000       0.00000    
     12862 MEOH     741      MEOH     O1       OD31H     2.48830       15.5990           0  -1.02800       1.30000    
     12863 MEOH     741      MEOH     DO1      DRUD     -2.48830      0.400000           0   0.00000       0.00000    
     12864 MEOH     741      MEOH     HO1      HDP1A    0.360000       1.00800           0   0.00000       0.00000    
     12865 MEOH     741      MEOH     HO2      DUMH      0.00000       1.00800           0   0.00000       0.00000    
     12866 MEOH     741      MEOH     H1A      HDA3B    0.800000E-01   1.00800           0   0.00000       0.00000    
     12867 MEOH     741      MEOH     H1B      HDA3B    0.800000E-01   1.00800           0   0.00000       0.00000    
     12868 MEOH     741      MEOH     H1C      HDA3B    0.800000E-01   1.00800           0   0.00000       0.00000    
     12869 MEOH     741      MEOH     LP1A     LPD     -0.230000       0.00000          -1   0.00000       0.00000    
     12870 MEOH     741      MEOH     LP1B     LPD     -0.230000       0.00000          -1   0.00000       0.00000    
     12871 MEOH     742      MEOH     C1       CD33B     2.31410       11.6110           0  -1.00000       1.30000    
     12872 MEOH     742      MEOH     DC1      DRUD     -2.45410      0.400000           0   0.00000       0.00000    
     12873 MEOH     742      MEOH     O1       OD31H     2.48830       15.5990           0  -1.02800       1.30000    
     12874 MEOH     742      MEOH     DO1      DRUD     -2.48830      0.400000           0   0.00000       0.00000    
     12875 MEOH     742      MEOH     HO1      HDP1A    0.360000       1.00800           0   0.00000       0.00000    
     12876 MEOH     742      MEOH     HO2      DUMH      0.00000       1.00800           0   0.00000       0.00000    
     12877 MEOH     742      MEOH     H1A      HDA3B    0.800000E-01   1.00800           0   0.00000       0.00000    
     12878 MEOH     742      MEOH     H1B      HDA3B    0.800000E-01   1.00800           0   0.00000       0.00000    
     12879 MEOH     742      MEOH     H1C      HDA3B    0.800000E-01   1.00800           0   0.00000       0.00000    
     12880 MEOH     742      MEOH     LP1A     LPD     -0.230000       0.00000          -1   0.00000       0.00000    
     12881 MEOH     742      MEOH     LP1B     LPD     -0.230000       0.00000          -1   0.00000       0.00000    
     12882 MEOH     743      MEOH     C1       CD33B     2.31410       11.6110           0  -1.00000       1.30000    
     12883 MEOH     743      MEOH     DC1      DRUD     -2.45410      0.400000           0   0.00000       0.00000    
     12884 MEOH     743      MEOH     O1       OD31H     2.48830       15.5990           0  -1.02800       1.30000    
     12885 MEOH     743      MEOH     DO1      DRUD     -2.48830      0.400000           0   0.00000       0.00000    
     12886 MEOH     743      MEOH     HO1      HDP1A    0.360000       1.00800           0   0.00000       0.00000    
     12887 MEOH     743      MEOH     HO2      DUMH      0.00000       1.00800           0   0.00000       0.00000    
     12888 MEOH     743      MEOH     H1A      HDA3B    0.800000E-01   1.00800           0   0.00000       0.00000    
     12889 MEOH     743      MEOH     H1B      HDA3B    0.800000E-01   1.00800           0   0.00000       0.00000    
     12890 MEOH     743      MEOH     H1C      HDA3B    0.800000E-01   1.00800           0   0.00000       0.00000    
     12891 MEOH     743      MEOH     LP1A     LPD     -0.230000       0.00000          -1   0.00000       0.00000    
     12892 MEOH     743      MEOH     LP1B     LPD     -0.230000       0.00000          -1   0.00000       0.00000    
     12893 MEOH     744      MEOH     C1       CD33B     2.31410       11.6110           0  -1.00000       1.30000    
     12894 MEOH     744      MEOH     DC1      DRUD     -2.45410      0.400000           0   0.00000       0.00000    
     12895 MEOH     744      MEOH     O1       OD31H     2.48830       15.5990           0  -1.02800       1.30000    
     12896 MEOH     744      MEOH     DO1      DRUD     -2.48830      0.400000           0   0.00000       0.00000    
     12897 MEOH     744      MEOH     HO1      HDP1A    0.360000       1.00800           0   0.00000       0.00000    
     12898 MEOH     744      MEOH     HO2      DUMH      0.00000       1.00800           0   0.00000       0.00000    
     12899 MEOH     744      MEOH     H1A      HDA3B    0.800000E-01   1.00800           0   0.00000       0.00000    
     12900 MEOH     744      MEOH     H1B      HDA3B    0.800000E-01   1.00800           0   0.00000       0.00000    
     12901 MEOH     744      MEOH     H1C      HDA3B    0.800000E-01   1.00800           0   0.00000       0.00000    
     12902 MEOH     744      MEOH     LP1A     LPD     -0.230000       0.00000          -1   0.00000       0.00000    
     12903 MEOH     744      MEOH     LP1B     LPD     -0.230000       0.00000          -1   0.00000       0.00000    
     12904 MEOH     745      MEOH     C1       CD33B     2.31410       11.6110           0  -1.00000       1.30000    
     12905 MEOH     745      MEOH     DC1      DRUD     -2.45410      0.400000           0   0.00000       0.00000    
     12906 MEOH     745      MEOH     O1       OD31H     2.48830       15.5990           0  -1.02800       1.30000    
     12907 MEOH     745      MEOH     DO1      DRUD     -2.48830      0.400000           0   0.00000       0.00000    
     12908 MEOH     745      MEOH     HO1      HDP1A    0.360000       1.00800           0   0.00000       0.00000    
     12909 MEOH     745      MEOH     HO2      DUMH      0.00000       1.00800           0   0.00000       0.00000    
     12910 MEOH     745      MEOH     H1A      HDA3B    0.800000E-01   1.00800           0   0.00000       0.00000    
     12911 MEOH     745      MEOH     H1B      HDA3B    0.800000E-01   1.00800           0   0.00000       0.00000    
     12912 MEOH     745      MEOH     H1C      HDA3B    0.800000E-01   1.00800           0   0.00000       0.00000    
     12913 MEOH     745      MEOH     LP1A     LPD     -0.230000       0.00000          -1   0.00000       0.00000    
     12914 MEOH     745      MEOH     LP1B     LPD     -0.230000       0.00000          -1   0.00000       0.00000    
     12915 MEOH     746      MEOH     C1       CD33B     2.31410       11.6110           0  -1.00000       1.30000    
     12916 MEOH     746      MEOH     DC1      DRUD     -2.45410      0.400000           0   0.00000       0.00000    
     12917 MEOH     746      MEOH     O1       OD31H     2.48830       15.5990           0  -1.02800       1.30000    
     12918 MEOH     746      MEOH     DO1      DRUD     -2.48830      0.400000           0   0.00000       0.00000    
     12919 MEOH     746      MEOH     HO1      HDP1A    0.360000       1.00800           0   0.00000       0.00000    
     12920 MEOH     746      MEOH     HO2      DUMH      0.00000       1.00800           0   0.00000       0.00000    
     12921 MEOH     746      MEOH     H1A      HDA3B    0.800000E-01   1.00800           0   0.00000       0.00000    
     12922 MEOH     746      MEOH     H1B      HDA3B    0.800000E-01   1.00800           0   0.00000       0.00000    
     12923 MEOH     746      MEOH     H1C      HDA3B    0.800000E-01   1.00800           0   0.00000       0.00000    
     12924 MEOH     746      MEOH     LP1A     LPD     -0.230000       0.00000          -1   0.00000       0.00000    
     12925 MEOH     746      MEOH     LP1B     LPD     -0.230000       0.00000          -1   0.00000       0.00000    
     12926 MEOH     747      MEOH     C1       CD33B     2.31410       11.6110           0  -1.00000       1.30000    
     12927 MEOH     747      MEOH     DC1      DRUD     -2.45410      0.400000           0   0.00000       0.00000    
     12928 MEOH     747      MEOH     O1       OD31H     2.48830       15.5990           0  -1.02800       1.30000    
     12929 MEOH     747      MEOH     DO1      DRUD     -2.48830      0.400000           0   0.00000       0.00000    
     12930 MEOH     747      MEOH     HO1      HDP1A    0.360000       1.00800           0   0.00000       0.00000    
     12931 MEOH     747      MEOH     HO2      DUMH      0.00000       1.00800           0   0.00000       0.00000    
     12932 MEOH     747      MEOH     H1A      HDA3B    0.800000E-01   1.00800           0   0.00000       0.00000    
     12933 MEOH     747      MEOH     H1B      HDA3B    0.800000E-01   1.00800           0   0.00000       0.00000    
     12934 MEOH     747      MEOH     H1C      HDA3B    0.800000E-01   1.00800           0   0.00000       0.00000    
     12935 MEOH     747      MEOH     LP1A     LPD     -0.230000       0.00000          -1   0.00000       0.00000    
     12936 MEOH     747      MEOH     LP1B     LPD     -0.230000       0.00000          -1   0.00000       0.00000    
     12937 MEOH     748      MEOH     C1       CD33B     2.31410       11.6110           0  -1.00000       1.30000    
     12938 MEOH     748      MEOH     DC1      DRUD     -2.45410      0.400000           0   0.00000       0.00000    
     12939 MEOH     748      MEOH     O1       OD31H     2.48830       15.5990           0  -1.02800       1.30000    
     12940 MEOH     748      MEOH     DO1      DRUD     -2.48830      0.400000           0   0.00000       0.00000    
     12941 MEOH     748      MEOH     HO1      HDP1A    0.360000       1.00800           0   0.00000       0.00000    
     12942 MEOH     748      MEOH     HO2      DUMH      0.00000       1.00800           0   0.00000       0.00000    
     12943 MEOH     748      MEOH     H1A      HDA3B    0.800000E-01   1.00800           0   0.00000       0.00000    
     12944 MEOH     748      MEOH     H1B      HDA3B    0.800000E-01   1.00800           0   0.00000       0.00000    
     12945 MEOH     748      MEOH     H1C      HDA3B    0.800000E-01   1.00800           0   0.00000       0.00000    
     12946 MEOH     748      MEOH     LP1A     LPD     -0.230000       0.00000          -1   0.00000       0.00000    
     12947 MEOH     748      MEOH     LP1B     LPD     -0.230000       0.00000          -1   0.00000       0.00000    
     12948 MEOH     749      MEOH     C1       CD33B     2.31410       11.6110           0  -1.00000       1.30000    
     12949 MEOH     749      MEOH     DC1      DRUD     -2.45410      0.400000           0   0.00000       0.00000    
     12950 MEOH     749      MEOH     O1       OD31H     2.48830       15.5990           0  -1.02800       1.30000    
     12951 MEOH     749      MEOH     DO1      DRUD     -2.48830      0.400000           0   0.00000       0.00000    
     12952 MEOH     749      MEOH     HO1      HDP1A    0.360000       1.00800           0   0.00000       0.00000    
     12953 MEOH     749      MEOH     HO2      DUMH      0.00000       1.00800           0   0.00000       0.00000    
     12954 MEOH     749      MEOH     H1A      HDA3B    0.800000E-01   1.00800           0   0.00000       0.00000    
     12955 MEOH     749      MEOH     H1B      HDA3B    0.800000E-01   1.00800           0   0.00000       0.00000    
     12956 MEOH     749      MEOH     H1C      HDA3B    0.800000E-01   1.00800           0   0.00000       0.00000    
     12957 MEOH     749      MEOH     LP1A     LPD     -0.230000       0.00000          -1   0.00000       0.00000    
     12958 MEOH     749      MEOH     LP1B     LPD     -0.230000       0.00000          -1   0.00000       0.00000    
     12959 MEOH     750      MEOH     C1       CD33B     2.31410       11.6110           0  -1.00000       1.30000    
     12960 MEOH     750      MEOH     DC1      DRUD     -2.45410      0.400000           0   0.00000       0.00000    
     12961 MEOH     750      MEOH     O1       OD31H     2.48830       15.5990           0  -1.02800       1.30000    
     12962 MEOH     750      MEOH     DO1      DRUD     -2.48830      0.400000           0   0.00000       0.00000    
     12963 MEOH     750      MEOH     HO1      HDP1A    0.360000       1.00800           0   0.00000       0.00000    
     12964 MEOH     750      MEOH     HO2      DUMH      0.00000       1.00800           0   0.00000       0.00000    
     12965 MEOH     750      MEOH     H1A      HDA3B    0.800000E-01   1.00800           0   0.00000       0.00000    
     12966 MEOH     750      MEOH     H1B      HDA3B    0.800000E-01   1.00800           0   0.00000       0.00000    
     12967 MEOH     750      MEOH     H1C      HDA3B    0.800000E-01   1.00800           0   0.00000       0.00000    
     12968 MEOH     750      MEOH     LP1A     LPD     -0.230000       0.00000          -1   0.00000       0.00000    
     12969 MEOH     750      MEOH     LP1B     LPD     -0.230000       0.00000          -1   0.00000       0.00000    
     12970 MEOH     751      MEOH     C1       CD33B     2.31410       11.6110           0  -1.00000       1.30000    
     12971 MEOH     751      MEOH     DC1      DRUD     -2.45410      0.400000           0   0.00000       0.00000    
     12972 MEOH     751      MEOH     O1       OD31H     2.48830       15.5990           0  -1.02800       1.30000    
     12973 MEOH     751      MEOH     DO1      DRUD     -2.48830      0.400000           0   0.00000       0.00000    
     12974 MEOH     751      MEOH     HO1      HDP1A    0.360000       1.00800           0   0.00000       0.00000    
     12975 MEOH     751      MEOH     HO2      DUMH      0.00000       1.00800           0   0.00000       0.00000    
     12976 MEOH     751      MEOH     H1A      HDA3B    0.800000E-01   1.00800           0   0.00000       0.00000    
     12977 MEOH     751      MEOH     H1B      HDA3B    0.800000E-01   1.00800           0   0.00000       0.00000    
     12978 MEOH     751      MEOH     H1C      HDA3B    0.800000E-01   1.00800           0   0.00000       0.00000    
     12979 MEOH     751      MEOH     LP1A     LPD     -0.230000       0.00000          -1   0.00000       0.00000    
     12980 MEOH     751      MEOH     LP1B     LPD     -0.230000       0.00000          -1   0.00000       0.00000    
     12981 MEOH     752      MEOH     C1       CD33B     2.31410       11.6110           0  -1.00000       1.30000    
     12982 MEOH     752      MEOH     DC1      DRUD     -2.45410      0.400000           0   0.00000       0.00000    
     12983 MEOH     752      MEOH     O1       OD31H     2.48830       15.5990           0  -1.02800       1.30000    
     12984 MEOH     752      MEOH     DO1      DRUD     -2.48830      0.400000           0   0.00000       0.00000    
     12985 MEOH     752      MEOH     HO1      HDP1A    0.360000       1.00800           0   0.00000       0.00000    
     12986 MEOH     752      MEOH     HO2      DUMH      0.00000       1.00800           0   0.00000       0.00000    
     12987 MEOH     752      MEOH     H1A      HDA3B    0.800000E-01   1.00800           0   0.00000       0.00000    
     12988 MEOH     752      MEOH     H1B      HDA3B    0.800000E-01   1.00800           0   0.00000       0.00000    
     12989 MEOH     752      MEOH     H1C      HDA3B    0.800000E-01   1.00800           0   0.00000       0.00000    
     12990 MEOH     752      MEOH     LP1A     LPD     -0.230000       0.00000          -1   0.00000       0.00000    
     12991 MEOH     752      MEOH     LP1B     LPD     -0.230000       0.00000          -1   0.00000       0.00000    
     12992 MEOH     753      MEOH     C1       CD33B     2.31410       11.6110           0  -1.00000       1.30000    
     12993 MEOH     753      MEOH     DC1      DRUD     -2.45410      0.400000           0   0.00000       0.00000    
     12994 MEOH     753      MEOH     O1       OD31H     2.48830       15.5990           0  -1.02800       1.30000    
     12995 MEOH     753      MEOH     DO1      DRUD     -2.48830      0.400000           0   0.00000       0.00000    
     12996 MEOH     753      MEOH     HO1      HDP1A    0.360000       1.00800           0   0.00000       0.00000    
     12997 MEOH     753      MEOH     HO2      DUMH      0.00000       1.00800           0   0.00000       0.00000    
     12998 MEOH     753      MEOH     H1A      HDA3B    0.800000E-01   1.00800           0   0.00000       0.00000    
     12999 MEOH     753      MEOH     H1B      HDA3B    0.800000E-01   1.00800           0   0.00000       0.00000    
     13000 MEOH     753      MEOH     H1C      HDA3B    0.800000E-01   1.00800           0   0.00000       0.00000    
     13001 MEOH     753      MEOH     LP1A     LPD     -0.230000       0.00000          -1   0.00000       0.00000    
     13002 MEOH     753      MEOH     LP1B     LPD     -0.230000       0.00000          -1   0.00000       0.00000    
     13003 MEOH     754      MEOH     C1       CD33B     2.31410       11.6110           0  -1.00000       1.30000    
     13004 MEOH     754      MEOH     DC1      DRUD     -2.45410      0.400000           0   0.00000       0.00000    
     13005 MEOH     754      MEOH     O1       OD31H     2.48830       15.5990           0  -1.02800       1.30000    
     13006 MEOH     754      MEOH     DO1      DRUD     -2.48830      0.400000           0   0.00000       0.00000    
     13007 MEOH     754      MEOH     HO1      HDP1A    0.360000       1.00800           0   0.00000       0.00000    
     13008 MEOH     754      MEOH     HO2      DUMH      0.00000       1.00800           0   0.00000       0.00000    
     13009 MEOH     754      MEOH     H1A      HDA3B    0.800000E-01   1.00800           0   0.00000       0.00000    
     13010 MEOH     754      MEOH     H1B      HDA3B    0.800000E-01   1.00800           0   0.00000       0.00000    
     13011 MEOH     754      MEOH     H1C      HDA3B    0.800000E-01   1.00800           0   0.00000       0.00000    
     13012 MEOH     754      MEOH     LP1A     LPD     -0.230000       0.00000          -1   0.00000       0.00000    
     13013 MEOH     754      MEOH     LP1B     LPD     -0.230000       0.00000          -1   0.00000       0.00000    
     13014 MEOH     755      MEOH     C1       CD33B     2.31410       11.6110           0  -1.00000       1.30000    
     13015 MEOH     755      MEOH     DC1      DRUD     -2.45410      0.400000           0   0.00000       0.00000    
     13016 MEOH     755      MEOH     O1       OD31H     2.48830       15.5990           0  -1.02800       1.30000    
     13017 MEOH     755      MEOH     DO1      DRUD     -2.48830      0.400000           0   0.00000       0.00000    
     13018 MEOH     755      MEOH     HO1      HDP1A    0.360000       1.00800           0   0.00000       0.00000    
     13019 MEOH     755      MEOH     HO2      DUMH      0.00000       1.00800           0   0.00000       0.00000    
     13020 MEOH     755      MEOH     H1A      HDA3B    0.800000E-01   1.00800           0   0.00000       0.00000    
     13021 MEOH     755      MEOH     H1B      HDA3B    0.800000E-01   1.00800           0   0.00000       0.00000    
     13022 MEOH     755      MEOH     H1C      HDA3B    0.800000E-01   1.00800           0   0.00000       0.00000    
     13023 MEOH     755      MEOH     LP1A     LPD     -0.230000       0.00000          -1   0.00000       0.00000    
     13024 MEOH     755      MEOH     LP1B     LPD     -0.230000       0.00000          -1   0.00000       0.00000    
     13025 MEOH     756      MEOH     C1       CD33B     2.31410       11.6110           0  -1.00000       1.30000    
     13026 MEOH     756      MEOH     DC1      DRUD     -2.45410      0.400000           0   0.00000       0.00000    
     13027 MEOH     756      MEOH     O1       OD31H     2.48830       15.5990           0  -1.02800       1.30000    
     13028 MEOH     756      MEOH     DO1      DRUD     -2.48830      0.400000           0   0.00000       0.00000    
     13029 MEOH     756      MEOH     HO1      HDP1A    0.360000       1.00800           0   0.00000       0.00000    
     13030 MEOH     756      MEOH     HO2      DUMH      0.00000       1.00800           0   0.00000       0.00000    
     13031 MEOH     756      MEOH     H1A      HDA3B    0.800000E-01   1.00800           0   0.00000       0.00000    
     13032 MEOH     756      MEOH     H1B      HDA3B    0.800000E-01   1.00800           0   0.00000       0.00000    
     13033 MEOH     756      MEOH     H1C      HDA3B    0.800000E-01   1.00800           0   0.00000       0.00000    
     13034 MEOH     756      MEOH     LP1A     LPD     -0.230000       0.00000          -1   0.00000       0.00000    
     13035 MEOH     756      MEOH     LP1B     LPD     -0.230000       0.00000          -1   0.00000       0.00000    
     13036 MEOH     757      MEOH     C1       CD33B     2.31410       11.6110           0  -1.00000       1.30000    
     13037 MEOH     757      MEOH     DC1      DRUD     -2.45410      0.400000           0   0.00000       0.00000    
     13038 MEOH     757      MEOH     O1       OD31H     2.48830       15.5990           0  -1.02800       1.30000    
     13039 MEOH     757      MEOH     DO1      DRUD     -2.48830      0.400000           0   0.00000       0.00000    
     13040 MEOH     757      MEOH     HO1      HDP1A    0.360000       1.00800           0   0.00000       0.00000    
     13041 MEOH     757      MEOH     HO2      DUMH      0.00000       1.00800           0   0.00000       0.00000    
     13042 MEOH     757      MEOH     H1A      HDA3B    0.800000E-01   1.00800           0   0.00000       0.00000    
     13043 MEOH     757      MEOH     H1B      HDA3B    0.800000E-01   1.00800           0   0.00000       0.00000    
     13044 MEOH     757      MEOH     H1C      HDA3B    0.800000E-01   1.00800           0   0.00000       0.00000    
     13045 MEOH     757      MEOH     LP1A     LPD     -0.230000       0.00000          -1   0.00000       0.00000    
     13046 MEOH     757      MEOH     LP1B     LPD     -0.230000       0.00000          -1   0.00000       0.00000    
     13047 MEOH     758      MEOH     C1       CD33B     2.31410       11.6110           0  -1.00000       1.30000    
     13048 MEOH     758      MEOH     DC1      DRUD     -2.45410      0.400000           0   0.00000       0.00000    
     13049 MEOH     758      MEOH     O1       OD31H     2.48830       15.5990           0  -1.02800       1.30000    
     13050 MEOH     758      MEOH     DO1      DRUD     -2.48830      0.400000           0   0.00000       0.00000    
     13051 MEOH     758      MEOH     HO1      HDP1A    0.360000       1.00800           0   0.00000       0.00000    
     13052 MEOH     758      MEOH     HO2      DUMH      0.00000       1.00800           0   0.00000       0.00000    
     13053 MEOH     758      MEOH     H1A      HDA3B    0.800000E-01   1.00800           0   0.00000       0.00000    
     13054 MEOH     758      MEOH     H1B      HDA3B    0.800000E-01   1.00800           0   0.00000       0.00000    
     13055 MEOH     758      MEOH     H1C      HDA3B    0.800000E-01   1.00800           0   0.00000       0.00000    
     13056 MEOH     758      MEOH     LP1A     LPD     -0.230000       0.00000          -1   0.00000       0.00000    
     13057 MEOH     758      MEOH     LP1B     LPD     -0.230000       0.00000          -1   0.00000       0.00000    
     13058 MEOH     759      MEOH     C1       CD33B     2.31410       11.6110           0  -1.00000       1.30000    
     13059 MEOH     759      MEOH     DC1      DRUD     -2.45410      0.400000           0   0.00000       0.00000    
     13060 MEOH     759      MEOH     O1       OD31H     2.48830       15.5990           0  -1.02800       1.30000    
     13061 MEOH     759      MEOH     DO1      DRUD     -2.48830      0.400000           0   0.00000       0.00000    
     13062 MEOH     759      MEOH     HO1      HDP1A    0.360000       1.00800           0   0.00000       0.00000    
     13063 MEOH     759      MEOH     HO2      DUMH      0.00000       1.00800           0   0.00000       0.00000    
     13064 MEOH     759      MEOH     H1A      HDA3B    0.800000E-01   1.00800           0   0.00000       0.00000    
     13065 MEOH     759      MEOH     H1B      HDA3B    0.800000E-01   1.00800           0   0.00000       0.00000    
     13066 MEOH     759      MEOH     H1C      HDA3B    0.800000E-01   1.00800           0   0.00000       0.00000    
     13067 MEOH     759      MEOH     LP1A     LPD     -0.230000       0.00000          -1   0.00000       0.00000    
     13068 MEOH     759      MEOH     LP1B     LPD     -0.230000       0.00000          -1   0.00000       0.00000    
     13069 MEOH     760      MEOH     C1       CD33B     2.31410       11.6110           0  -1.00000       1.30000    
     13070 MEOH     760      MEOH     DC1      DRUD     -2.45410      0.400000           0   0.00000       0.00000    
     13071 MEOH     760      MEOH     O1       OD31H     2.48830       15.5990           0  -1.02800       1.30000    
     13072 MEOH     760      MEOH     DO1      DRUD     -2.48830      0.400000           0   0.00000       0.00000    
     13073 MEOH     760      MEOH     HO1      HDP1A    0.360000       1.00800           0   0.00000       0.00000    
     13074 MEOH     760      MEOH     HO2      DUMH      0.00000       1.00800           0   0.00000       0.00000    
     13075 MEOH     760      MEOH     H1A      HDA3B    0.800000E-01   1.00800           0   0.00000       0.00000    
     13076 MEOH     760      MEOH     H1B      HDA3B    0.800000E-01   1.00800           0   0.00000       0.00000    
     13077 MEOH     760      MEOH     H1C      HDA3B    0.800000E-01   1.00800           0   0.00000       0.00000    
     13078 MEOH     760      MEOH     LP1A     LPD     -0.230000       0.00000          -1   0.00000       0.00000    
     13079 MEOH     760      MEOH     LP1B     LPD     -0.230000       0.00000          -1   0.00000       0.00000    
     13080 MEOH     761      MEOH     C1       CD33B     2.31410       11.6110           0  -1.00000       1.30000    
     13081 MEOH     761      MEOH     DC1      DRUD     -2.45410      0.400000           0   0.00000       0.00000    
     13082 MEOH     761      MEOH     O1       OD31H     2.48830       15.5990           0  -1.02800       1.30000    
     13083 MEOH     761      MEOH     DO1      DRUD     -2.48830      0.400000           0   0.00000       0.00000    
     13084 MEOH     761      MEOH     HO1      HDP1A    0.360000       1.00800           0   0.00000       0.00000    
     13085 MEOH     761      MEOH     HO2      DUMH      0.00000       1.00800           0   0.00000       0.00000    
     13086 MEOH     761      MEOH     H1A      HDA3B    0.800000E-01   1.00800           0   0.00000       0.00000    
     13087 MEOH     761      MEOH     H1B      HDA3B    0.800000E-01   1.00800           0   0.00000       0.00000    
     13088 MEOH     761      MEOH     H1C      HDA3B    0.800000E-01   1.00800           0   0.00000       0.00000    
     13089 MEOH     761      MEOH     LP1A     LPD     -0.230000       0.00000          -1   0.00000       0.00000    
     13090 MEOH     761      MEOH     LP1B     LPD     -0.230000       0.00000          -1   0.00000       0.00000    
     13091 MEOH     762      MEOH     C1       CD33B     2.31410       11.6110           0  -1.00000       1.30000    
     13092 MEOH     762      MEOH     DC1      DRUD     -2.45410      0.400000           0   0.00000       0.00000    
     13093 MEOH     762      MEOH     O1       OD31H     2.48830       15.5990           0  -1.02800       1.30000    
     13094 MEOH     762      MEOH     DO1      DRUD     -2.48830      0.400000           0   0.00000       0.00000    
     13095 MEOH     762      MEOH     HO1      HDP1A    0.360000       1.00800           0   0.00000       0.00000    
     13096 MEOH     762      MEOH     HO2      DUMH      0.00000       1.00800           0   0.00000       0.00000    
     13097 MEOH     762      MEOH     H1A      HDA3B    0.800000E-01   1.00800           0   0.00000       0.00000    
     13098 MEOH     762      MEOH     H1B      HDA3B    0.800000E-01   1.00800           0   0.00000       0.00000    
     13099 MEOH     762      MEOH     H1C      HDA3B    0.800000E-01   1.00800           0   0.00000       0.00000    
     13100 MEOH     762      MEOH     LP1A     LPD     -0.230000       0.00000          -1   0.00000       0.00000    
     13101 MEOH     762      MEOH     LP1B     LPD     -0.230000       0.00000          -1   0.00000       0.00000    
     13102 MEOH     763      MEOH     C1       CD33B     2.31410       11.6110           0  -1.00000       1.30000    
     13103 MEOH     763      MEOH     DC1      DRUD     -2.45410      0.400000           0   0.00000       0.00000    
     13104 MEOH     763      MEOH     O1       OD31H     2.48830       15.5990           0  -1.02800       1.30000    
     13105 MEOH     763      MEOH     DO1      DRUD     -2.48830      0.400000           0   0.00000       0.00000    
     13106 MEOH     763      MEOH     HO1      HDP1A    0.360000       1.00800           0   0.00000       0.00000    
     13107 MEOH     763      MEOH     HO2      DUMH      0.00000       1.00800           0   0.00000       0.00000    
     13108 MEOH     763      MEOH     H1A      HDA3B    0.800000E-01   1.00800           0   0.00000       0.00000    
     13109 MEOH     763      MEOH     H1B      HDA3B    0.800000E-01   1.00800           0   0.00000       0.00000    
     13110 MEOH     763      MEOH     H1C      HDA3B    0.800000E-01   1.00800           0   0.00000       0.00000    
     13111 MEOH     763      MEOH     LP1A     LPD     -0.230000       0.00000          -1   0.00000       0.00000    
     13112 MEOH     763      MEOH     LP1B     LPD     -0.230000       0.00000          -1   0.00000       0.00000    
     13113 MEOH     764      MEOH     C1       CD33B     2.31410       11.6110           0  -1.00000       1.30000    
     13114 MEOH     764      MEOH     DC1      DRUD     -2.45410      0.400000           0   0.00000       0.00000    
     13115 MEOH     764      MEOH     O1       OD31H     2.48830       15.5990           0  -1.02800       1.30000    
     13116 MEOH     764      MEOH     DO1      DRUD     -2.48830      0.400000           0   0.00000       0.00000    
     13117 MEOH     764      MEOH     HO1      HDP1A    0.360000       1.00800           0   0.00000       0.00000    
     13118 MEOH     764      MEOH     HO2      DUMH      0.00000       1.00800           0   0.00000       0.00000    
     13119 MEOH     764      MEOH     H1A      HDA3B    0.800000E-01   1.00800           0   0.00000       0.00000    
     13120 MEOH     764      MEOH     H1B      HDA3B    0.800000E-01   1.00800           0   0.00000       0.00000    
     13121 MEOH     764      MEOH     H1C      HDA3B    0.800000E-01   1.00800           0   0.00000       0.00000    
     13122 MEOH     764      MEOH     LP1A     LPD     -0.230000       0.00000          -1   0.00000       0.00000    
     13123 MEOH     764      MEOH     LP1B     LPD     -0.230000       0.00000          -1   0.00000       0.00000    
     13124 MEOH     765      MEOH     C1       CD33B     2.31410       11.6110           0  -1.00000       1.30000    
     13125 MEOH     765      MEOH     DC1      DRUD     -2.45410      0.400000           0   0.00000       0.00000    
     13126 MEOH     765      MEOH     O1       OD31H     2.48830       15.5990           0  -1.02800       1.30000    
     13127 MEOH     765      MEOH     DO1      DRUD     -2.48830      0.400000           0   0.00000       0.00000    
     13128 MEOH     765      MEOH     HO1      HDP1A    0.360000       1.00800           0   0.00000       0.00000    
     13129 MEOH     765      MEOH     HO2      DUMH      0.00000       1.00800           0   0.00000       0.00000    
     13130 MEOH     765      MEOH     H1A      HDA3B    0.800000E-01   1.00800           0   0.00000       0.00000    
     13131 MEOH     765      MEOH     H1B      HDA3B    0.800000E-01   1.00800           0   0.00000       0.00000    
     13132 MEOH     765      MEOH     H1C      HDA3B    0.800000E-01   1.00800           0   0.00000       0.00000    
     13133 MEOH     765      MEOH     LP1A     LPD     -0.230000       0.00000          -1   0.00000       0.00000    
     13134 MEOH     765      MEOH     LP1B     LPD     -0.230000       0.00000          -1   0.00000       0.00000    
     13135 MEOH     766      MEOH     C1       CD33B     2.31410       11.6110           0  -1.00000       1.30000    
     13136 MEOH     766      MEOH     DC1      DRUD     -2.45410      0.400000           0   0.00000       0.00000    
     13137 MEOH     766      MEOH     O1       OD31H     2.48830       15.5990           0  -1.02800       1.30000    
     13138 MEOH     766      MEOH     DO1      DRUD     -2.48830      0.400000           0   0.00000       0.00000    
     13139 MEOH     766      MEOH     HO1      HDP1A    0.360000       1.00800           0   0.00000       0.00000    
     13140 MEOH     766      MEOH     HO2      DUMH      0.00000       1.00800           0   0.00000       0.00000    
     13141 MEOH     766      MEOH     H1A      HDA3B    0.800000E-01   1.00800           0   0.00000       0.00000    
     13142 MEOH     766      MEOH     H1B      HDA3B    0.800000E-01   1.00800           0   0.00000       0.00000    
     13143 MEOH     766      MEOH     H1C      HDA3B    0.800000E-01   1.00800           0   0.00000       0.00000    
     13144 MEOH     766      MEOH     LP1A     LPD     -0.230000       0.00000          -1   0.00000       0.00000    
     13145 MEOH     766      MEOH     LP1B     LPD     -0.230000       0.00000          -1   0.00000       0.00000    
     13146 MEOH     767      MEOH     C1       CD33B     2.31410       11.6110           0  -1.00000       1.30000    
     13147 MEOH     767      MEOH     DC1      DRUD     -2.45410      0.400000           0   0.00000       0.00000    
     13148 MEOH     767      MEOH     O1       OD31H     2.48830       15.5990           0  -1.02800       1.30000    
     13149 MEOH     767      MEOH     DO1      DRUD     -2.48830      0.400000           0   0.00000       0.00000    
     13150 MEOH     767      MEOH     HO1      HDP1A    0.360000       1.00800           0   0.00000       0.00000    
     13151 MEOH     767      MEOH     HO2      DUMH      0.00000       1.00800           0   0.00000       0.00000    
     13152 MEOH     767      MEOH     H1A      HDA3B    0.800000E-01   1.00800           0   0.00000       0.00000    
     13153 MEOH     767      MEOH     H1B      HDA3B    0.800000E-01   1.00800           0   0.00000       0.00000    
     13154 MEOH     767      MEOH     H1C      HDA3B    0.800000E-01   1.00800           0   0.00000       0.00000    
     13155 MEOH     767      MEOH     LP1A     LPD     -0.230000       0.00000          -1   0.00000       0.00000    
     13156 MEOH     767      MEOH     LP1B     LPD     -0.230000       0.00000          -1   0.00000       0.00000    
     13157 MEOH     768      MEOH     C1       CD33B     2.31410       11.6110           0  -1.00000       1.30000    
     13158 MEOH     768      MEOH     DC1      DRUD     -2.45410      0.400000           0   0.00000       0.00000    
     13159 MEOH     768      MEOH     O1       OD31H     2.48830       15.5990           0  -1.02800       1.30000    
     13160 MEOH     768      MEOH     DO1      DRUD     -2.48830      0.400000           0   0.00000       0.00000    
     13161 MEOH     768      MEOH     HO1      HDP1A    0.360000       1.00800           0   0.00000       0.00000    
     13162 MEOH     768      MEOH     HO2      DUMH      0.00000       1.00800           0   0.00000       0.00000    
     13163 MEOH     768      MEOH     H1A      HDA3B    0.800000E-01   1.00800           0   0.00000       0.00000    
     13164 MEOH     768      MEOH     H1B      HDA3B    0.800000E-01   1.00800           0   0.00000       0.00000    
     13165 MEOH     768      MEOH     H1C      HDA3B    0.800000E-01   1.00800           0   0.00000       0.00000    
     13166 MEOH     768      MEOH     LP1A     LPD     -0.230000       0.00000          -1   0.00000       0.00000    
     13167 MEOH     768      MEOH     LP1B     LPD     -0.230000       0.00000          -1   0.00000       0.00000    
     13168 MEOH     769      MEOH     C1       CD33B     2.31410       11.6110           0  -1.00000       1.30000    
     13169 MEOH     769      MEOH     DC1      DRUD     -2.45410      0.400000           0   0.00000       0.00000    
     13170 MEOH     769      MEOH     O1       OD31H     2.48830       15.5990           0  -1.02800       1.30000    
     13171 MEOH     769      MEOH     DO1      DRUD     -2.48830      0.400000           0   0.00000       0.00000    
     13172 MEOH     769      MEOH     HO1      HDP1A    0.360000       1.00800           0   0.00000       0.00000    
     13173 MEOH     769      MEOH     HO2      DUMH      0.00000       1.00800           0   0.00000       0.00000    
     13174 MEOH     769      MEOH     H1A      HDA3B    0.800000E-01   1.00800           0   0.00000       0.00000    
     13175 MEOH     769      MEOH     H1B      HDA3B    0.800000E-01   1.00800           0   0.00000       0.00000    
     13176 MEOH     769      MEOH     H1C      HDA3B    0.800000E-01   1.00800           0   0.00000       0.00000    
     13177 MEOH     769      MEOH     LP1A     LPD     -0.230000       0.00000          -1   0.00000       0.00000    
     13178 MEOH     769      MEOH     LP1B     LPD     -0.230000       0.00000          -1   0.00000       0.00000    
     13179 MEOH     770      MEOH     C1       CD33B     2.31410       11.6110           0  -1.00000       1.30000    
     13180 MEOH     770      MEOH     DC1      DRUD     -2.45410      0.400000           0   0.00000       0.00000    
     13181 MEOH     770      MEOH     O1       OD31H     2.48830       15.5990           0  -1.02800       1.30000    
     13182 MEOH     770      MEOH     DO1      DRUD     -2.48830      0.400000           0   0.00000       0.00000    
     13183 MEOH     770      MEOH     HO1      HDP1A    0.360000       1.00800           0   0.00000       0.00000    
     13184 MEOH     770      MEOH     HO2      DUMH      0.00000       1.00800           0   0.00000       0.00000    
     13185 MEOH     770      MEOH     H1A      HDA3B    0.800000E-01   1.00800           0   0.00000       0.00000    
     13186 MEOH     770      MEOH     H1B      HDA3B    0.800000E-01   1.00800           0   0.00000       0.00000    
     13187 MEOH     770      MEOH     H1C      HDA3B    0.800000E-01   1.00800           0   0.00000       0.00000    
     13188 MEOH     770      MEOH     LP1A     LPD     -0.230000       0.00000          -1   0.00000       0.00000    
     13189 MEOH     770      MEOH     LP1B     LPD     -0.230000       0.00000          -1   0.00000       0.00000    
     13190 MEOH     771      MEOH     C1       CD33B     2.31410       11.6110           0  -1.00000       1.30000    
     13191 MEOH     771      MEOH     DC1      DRUD     -2.45410      0.400000           0   0.00000       0.00000    
     13192 MEOH     771      MEOH     O1       OD31H     2.48830       15.5990           0  -1.02800       1.30000    
     13193 MEOH     771      MEOH     DO1      DRUD     -2.48830      0.400000           0   0.00000       0.00000    
     13194 MEOH     771      MEOH     HO1      HDP1A    0.360000       1.00800           0   0.00000       0.00000    
     13195 MEOH     771      MEOH     HO2      DUMH      0.00000       1.00800           0   0.00000       0.00000    
     13196 MEOH     771      MEOH     H1A      HDA3B    0.800000E-01   1.00800           0   0.00000       0.00000    
     13197 MEOH     771      MEOH     H1B      HDA3B    0.800000E-01   1.00800           0   0.00000       0.00000    
     13198 MEOH     771      MEOH     H1C      HDA3B    0.800000E-01   1.00800           0   0.00000       0.00000    
     13199 MEOH     771      MEOH     LP1A     LPD     -0.230000       0.00000          -1   0.00000       0.00000    
     13200 MEOH     771      MEOH     LP1B     LPD     -0.230000       0.00000          -1   0.00000       0.00000    
     13201 MEOH     772      MEOH     C1       CD33B     2.31410       11.6110           0  -1.00000       1.30000    
     13202 MEOH     772      MEOH     DC1      DRUD     -2.45410      0.400000           0   0.00000       0.00000    
     13203 MEOH     772      MEOH     O1       OD31H     2.48830       15.5990           0  -1.02800       1.30000    
     13204 MEOH     772      MEOH     DO1      DRUD     -2.48830      0.400000           0   0.00000       0.00000    
     13205 MEOH     772      MEOH     HO1      HDP1A    0.360000       1.00800           0   0.00000       0.00000    
     13206 MEOH     772      MEOH     HO2      DUMH      0.00000       1.00800           0   0.00000       0.00000    
     13207 MEOH     772      MEOH     H1A      HDA3B    0.800000E-01   1.00800           0   0.00000       0.00000    
     13208 MEOH     772      MEOH     H1B      HDA3B    0.800000E-01   1.00800           0   0.00000       0.00000    
     13209 MEOH     772      MEOH     H1C      HDA3B    0.800000E-01   1.00800           0   0.00000       0.00000    
     13210 MEOH     772      MEOH     LP1A     LPD     -0.230000       0.00000          -1   0.00000       0.00000    
     13211 MEOH     772      MEOH     LP1B     LPD     -0.230000       0.00000          -1   0.00000       0.00000    
     13212 MEOH     773      MEOH     C1       CD33B     2.31410       11.6110           0  -1.00000       1.30000    
     13213 MEOH     773      MEOH     DC1      DRUD     -2.45410      0.400000           0   0.00000       0.00000    
     13214 MEOH     773      MEOH     O1       OD31H     2.48830       15.5990           0  -1.02800       1.30000    
     13215 MEOH     773      MEOH     DO1      DRUD     -2.48830      0.400000           0   0.00000       0.00000    
     13216 MEOH     773      MEOH     HO1      HDP1A    0.360000       1.00800           0   0.00000       0.00000    
     13217 MEOH     773      MEOH     HO2      DUMH      0.00000       1.00800           0   0.00000       0.00000    
     13218 MEOH     773      MEOH     H1A      HDA3B    0.800000E-01   1.00800           0   0.00000       0.00000    
     13219 MEOH     773      MEOH     H1B      HDA3B    0.800000E-01   1.00800           0   0.00000       0.00000    
     13220 MEOH     773      MEOH     H1C      HDA3B    0.800000E-01   1.00800           0   0.00000       0.00000    
     13221 MEOH     773      MEOH     LP1A     LPD     -0.230000       0.00000          -1   0.00000       0.00000    
     13222 MEOH     773      MEOH     LP1B     LPD     -0.230000       0.00000          -1   0.00000       0.00000    
     13223 MEOH     774      MEOH     C1       CD33B     2.31410       11.6110           0  -1.00000       1.30000    
     13224 MEOH     774      MEOH     DC1      DRUD     -2.45410      0.400000           0   0.00000       0.00000    
     13225 MEOH     774      MEOH     O1       OD31H     2.48830       15.5990           0  -1.02800       1.30000    
     13226 MEOH     774      MEOH     DO1      DRUD     -2.48830      0.400000           0   0.00000       0.00000    
     13227 MEOH     774      MEOH     HO1      HDP1A    0.360000       1.00800           0   0.00000       0.00000    
     13228 MEOH     774      MEOH     HO2      DUMH      0.00000       1.00800           0   0.00000       0.00000    
     13229 MEOH     774      MEOH     H1A      HDA3B    0.800000E-01   1.00800           0   0.00000       0.00000    
     13230 MEOH     774      MEOH     H1B      HDA3B    0.800000E-01   1.00800           0   0.00000       0.00000    
     13231 MEOH     774      MEOH     H1C      HDA3B    0.800000E-01   1.00800           0   0.00000       0.00000    
     13232 MEOH     774      MEOH     LP1A     LPD     -0.230000       0.00000          -1   0.00000       0.00000    
     13233 MEOH     774      MEOH     LP1B     LPD     -0.230000       0.00000          -1   0.00000       0.00000    
     13234 MEOH     775      MEOH     C1       CD33B     2.31410       11.6110           0  -1.00000       1.30000    
     13235 MEOH     775      MEOH     DC1      DRUD     -2.45410      0.400000           0   0.00000       0.00000    
     13236 MEOH     775      MEOH     O1       OD31H     2.48830       15.5990           0  -1.02800       1.30000    
     13237 MEOH     775      MEOH     DO1      DRUD     -2.48830      0.400000           0   0.00000       0.00000    
     13238 MEOH     775      MEOH     HO1      HDP1A    0.360000       1.00800           0   0.00000       0.00000    
     13239 MEOH     775      MEOH     HO2      DUMH      0.00000       1.00800           0   0.00000       0.00000    
     13240 MEOH     775      MEOH     H1A      HDA3B    0.800000E-01   1.00800           0   0.00000       0.00000    
     13241 MEOH     775      MEOH     H1B      HDA3B    0.800000E-01   1.00800           0   0.00000       0.00000    
     13242 MEOH     775      MEOH     H1C      HDA3B    0.800000E-01   1.00800           0   0.00000       0.00000    
     13243 MEOH     775      MEOH     LP1A     LPD     -0.230000       0.00000          -1   0.00000       0.00000    
     13244 MEOH     775      MEOH     LP1B     LPD     -0.230000       0.00000          -1   0.00000       0.00000    
     13245 MEOH     776      MEOH     C1       CD33B     2.31410       11.6110           0  -1.00000       1.30000    
     13246 MEOH     776      MEOH     DC1      DRUD     -2.45410      0.400000           0   0.00000       0.00000    
     13247 MEOH     776      MEOH     O1       OD31H     2.48830       15.5990           0  -1.02800       1.30000    
     13248 MEOH     776      MEOH     DO1      DRUD     -2.48830      0.400000           0   0.00000       0.00000    
     13249 MEOH     776      MEOH     HO1      HDP1A    0.360000       1.00800           0   0.00000       0.00000    
     13250 MEOH     776      MEOH     HO2      DUMH      0.00000       1.00800           0   0.00000       0.00000    
     13251 MEOH     776      MEOH     H1A      HDA3B    0.800000E-01   1.00800           0   0.00000       0.00000    
     13252 MEOH     776      MEOH     H1B      HDA3B    0.800000E-01   1.00800           0   0.00000       0.00000    
     13253 MEOH     776      MEOH     H1C      HDA3B    0.800000E-01   1.00800           0   0.00000       0.00000    
     13254 MEOH     776      MEOH     LP1A     LPD     -0.230000       0.00000          -1   0.00000       0.00000    
     13255 MEOH     776      MEOH     LP1B     LPD     -0.230000       0.00000          -1   0.00000       0.00000    
     13256 MEOH     777      MEOH     C1       CD33B     2.31410       11.6110           0  -1.00000       1.30000    
     13257 MEOH     777      MEOH     DC1      DRUD     -2.45410      0.400000           0   0.00000       0.00000    
     13258 MEOH     777      MEOH     O1       OD31H     2.48830       15.5990           0  -1.02800       1.30000    
     13259 MEOH     777      MEOH     DO1      DRUD     -2.48830      0.400000           0   0.00000       0.00000    
     13260 MEOH     777      MEOH     HO1      HDP1A    0.360000       1.00800           0   0.00000       0.00000    
     13261 MEOH     777      MEOH     HO2      DUMH      0.00000       1.00800           0   0.00000       0.00000    
     13262 MEOH     777      MEOH     H1A      HDA3B    0.800000E-01   1.00800           0   0.00000       0.00000    
     13263 MEOH     777      MEOH     H1B      HDA3B    0.800000E-01   1.00800           0   0.00000       0.00000    
     13264 MEOH     777      MEOH     H1C      HDA3B    0.800000E-01   1.00800           0   0.00000       0.00000    
     13265 MEOH     777      MEOH     LP1A     LPD     -0.230000       0.00000          -1   0.00000       0.00000    
     13266 MEOH     777      MEOH     LP1B     LPD     -0.230000       0.00000          -1   0.00000       0.00000    
     13267 MEOH     778      MEOH     C1       CD33B     2.31410       11.6110           0  -1.00000       1.30000    
     13268 MEOH     778      MEOH     DC1      DRUD     -2.45410      0.400000           0   0.00000       0.00000    
     13269 MEOH     778      MEOH     O1       OD31H     2.48830       15.5990           0  -1.02800       1.30000    
     13270 MEOH     778      MEOH     DO1      DRUD     -2.48830      0.400000           0   0.00000       0.00000    
     13271 MEOH     778      MEOH     HO1      HDP1A    0.360000       1.00800           0   0.00000       0.00000    
     13272 MEOH     778      MEOH     HO2      DUMH      0.00000       1.00800           0   0.00000       0.00000    
     13273 MEOH     778      MEOH     H1A      HDA3B    0.800000E-01   1.00800           0   0.00000       0.00000    
     13274 MEOH     778      MEOH     H1B      HDA3B    0.800000E-01   1.00800           0   0.00000       0.00000    
     13275 MEOH     778      MEOH     H1C      HDA3B    0.800000E-01   1.00800           0   0.00000       0.00000    
     13276 MEOH     778      MEOH     LP1A     LPD     -0.230000       0.00000          -1   0.00000       0.00000    
     13277 MEOH     778      MEOH     LP1B     LPD     -0.230000       0.00000          -1   0.00000       0.00000    
     13278 MEOH     779      MEOH     C1       CD33B     2.31410       11.6110           0  -1.00000       1.30000    
     13279 MEOH     779      MEOH     DC1      DRUD     -2.45410      0.400000           0   0.00000       0.00000    
     13280 MEOH     779      MEOH     O1       OD31H     2.48830       15.5990           0  -1.02800       1.30000    
     13281 MEOH     779      MEOH     DO1      DRUD     -2.48830      0.400000           0   0.00000       0.00000    
     13282 MEOH     779      MEOH     HO1      HDP1A    0.360000       1.00800           0   0.00000       0.00000    
     13283 MEOH     779      MEOH     HO2      DUMH      0.00000       1.00800           0   0.00000       0.00000    
     13284 MEOH     779      MEOH     H1A      HDA3B    0.800000E-01   1.00800           0   0.00000       0.00000    
     13285 MEOH     779      MEOH     H1B      HDA3B    0.800000E-01   1.00800           0   0.00000       0.00000    
     13286 MEOH     779      MEOH     H1C      HDA3B    0.800000E-01   1.00800           0   0.00000       0.00000    
     13287 MEOH     779      MEOH     LP1A     LPD     -0.230000       0.00000          -1   0.00000       0.00000    
     13288 MEOH     779      MEOH     LP1B     LPD     -0.230000       0.00000          -1   0.00000       0.00000    
     13289 MEOH     780      MEOH     C1       CD33B     2.31410       11.6110           0  -1.00000       1.30000    
     13290 MEOH     780      MEOH     DC1      DRUD     -2.45410      0.400000           0   0.00000       0.00000    
     13291 MEOH     780      MEOH     O1       OD31H     2.48830       15.5990           0  -1.02800       1.30000    
     13292 MEOH     780      MEOH     DO1      DRUD     -2.48830      0.400000           0   0.00000       0.00000    
     13293 MEOH     780      MEOH     HO1      HDP1A    0.360000       1.00800           0   0.00000       0.00000    
     13294 MEOH     780      MEOH     HO2      DUMH      0.00000       1.00800           0   0.00000       0.00000    
     13295 MEOH     780      MEOH     H1A      HDA3B    0.800000E-01   1.00800           0   0.00000       0.00000    
     13296 MEOH     780      MEOH     H1B      HDA3B    0.800000E-01   1.00800           0   0.00000       0.00000    
     13297 MEOH     780      MEOH     H1C      HDA3B    0.800000E-01   1.00800           0   0.00000       0.00000    
     13298 MEOH     780      MEOH     LP1A     LPD     -0.230000       0.00000          -1   0.00000       0.00000    
     13299 MEOH     780      MEOH     LP1B     LPD     -0.230000       0.00000          -1   0.00000       0.00000    
     13300 MEOH     781      MEOH     C1       CD33B     2.31410       11.6110           0  -1.00000       1.30000    
     13301 MEOH     781      MEOH     DC1      DRUD     -2.45410      0.400000           0   0.00000       0.00000    
     13302 MEOH     781      MEOH     O1       OD31H     2.48830       15.5990           0  -1.02800       1.30000    
     13303 MEOH     781      MEOH     DO1      DRUD     -2.48830      0.400000           0   0.00000       0.00000    
     13304 MEOH     781      MEOH     HO1      HDP1A    0.360000       1.00800           0   0.00000       0.00000    
     13305 MEOH     781      MEOH     HO2      DUMH      0.00000       1.00800           0   0.00000       0.00000    
     13306 MEOH     781      MEOH     H1A      HDA3B    0.800000E-01   1.00800           0   0.00000       0.00000    
     13307 MEOH     781      MEOH     H1B      HDA3B    0.800000E-01   1.00800           0   0.00000       0.00000    
     13308 MEOH     781      MEOH     H1C      HDA3B    0.800000E-01   1.00800           0   0.00000       0.00000    
     13309 MEOH     781      MEOH     LP1A     LPD     -0.230000       0.00000          -1   0.00000       0.00000    
     13310 MEOH     781      MEOH     LP1B     LPD     -0.230000       0.00000          -1   0.00000       0.00000    
     13311 MEOH     782      MEOH     C1       CD33B     2.31410       11.6110           0  -1.00000       1.30000    
     13312 MEOH     782      MEOH     DC1      DRUD     -2.45410      0.400000           0   0.00000       0.00000    
     13313 MEOH     782      MEOH     O1       OD31H     2.48830       15.5990           0  -1.02800       1.30000    
     13314 MEOH     782      MEOH     DO1      DRUD     -2.48830      0.400000           0   0.00000       0.00000    
     13315 MEOH     782      MEOH     HO1      HDP1A    0.360000       1.00800           0   0.00000       0.00000    
     13316 MEOH     782      MEOH     HO2      DUMH      0.00000       1.00800           0   0.00000       0.00000    
     13317 MEOH     782      MEOH     H1A      HDA3B    0.800000E-01   1.00800           0   0.00000       0.00000    
     13318 MEOH     782      MEOH     H1B      HDA3B    0.800000E-01   1.00800           0   0.00000       0.00000    
     13319 MEOH     782      MEOH     H1C      HDA3B    0.800000E-01   1.00800           0   0.00000       0.00000    
     13320 MEOH     782      MEOH     LP1A     LPD     -0.230000       0.00000          -1   0.00000       0.00000    
     13321 MEOH     782      MEOH     LP1B     LPD     -0.230000       0.00000          -1   0.00000       0.00000    
     13322 MEOH     783      MEOH     C1       CD33B     2.31410       11.6110           0  -1.00000       1.30000    
     13323 MEOH     783      MEOH     DC1      DRUD     -2.45410      0.400000           0   0.00000       0.00000    
     13324 MEOH     783      MEOH     O1       OD31H     2.48830       15.5990           0  -1.02800       1.30000    
     13325 MEOH     783      MEOH     DO1      DRUD     -2.48830      0.400000           0   0.00000       0.00000    
     13326 MEOH     783      MEOH     HO1      HDP1A    0.360000       1.00800           0   0.00000       0.00000    
     13327 MEOH     783      MEOH     HO2      DUMH      0.00000       1.00800           0   0.00000       0.00000    
     13328 MEOH     783      MEOH     H1A      HDA3B    0.800000E-01   1.00800           0   0.00000       0.00000    
     13329 MEOH     783      MEOH     H1B      HDA3B    0.800000E-01   1.00800           0   0.00000       0.00000    
     13330 MEOH     783      MEOH     H1C      HDA3B    0.800000E-01   1.00800           0   0.00000       0.00000    
     13331 MEOH     783      MEOH     LP1A     LPD     -0.230000       0.00000          -1   0.00000       0.00000    
     13332 MEOH     783      MEOH     LP1B     LPD     -0.230000       0.00000          -1   0.00000       0.00000    
     13333 MEOH     784      MEOH     C1       CD33B     2.31410       11.6110           0  -1.00000       1.30000    
     13334 MEOH     784      MEOH     DC1      DRUD     -2.45410      0.400000           0   0.00000       0.00000    
     13335 MEOH     784      MEOH     O1       OD31H     2.48830       15.5990           0  -1.02800       1.30000    
     13336 MEOH     784      MEOH     DO1      DRUD     -2.48830      0.400000           0   0.00000       0.00000    
     13337 MEOH     784      MEOH     HO1      HDP1A    0.360000       1.00800           0   0.00000       0.00000    
     13338 MEOH     784      MEOH     HO2      DUMH      0.00000       1.00800           0   0.00000       0.00000    
     13339 MEOH     784      MEOH     H1A      HDA3B    0.800000E-01   1.00800           0   0.00000       0.00000    
     13340 MEOH     784      MEOH     H1B      HDA3B    0.800000E-01   1.00800           0   0.00000       0.00000    
     13341 MEOH     784      MEOH     H1C      HDA3B    0.800000E-01   1.00800           0   0.00000       0.00000    
     13342 MEOH     784      MEOH     LP1A     LPD     -0.230000       0.00000          -1   0.00000       0.00000    
     13343 MEOH     784      MEOH     LP1B     LPD     -0.230000       0.00000          -1   0.00000       0.00000    
     13344 MEOH     785      MEOH     C1       CD33B     2.31410       11.6110           0  -1.00000       1.30000    
     13345 MEOH     785      MEOH     DC1      DRUD     -2.45410      0.400000           0   0.00000       0.00000    
     13346 MEOH     785      MEOH     O1       OD31H     2.48830       15.5990           0  -1.02800       1.30000    
     13347 MEOH     785      MEOH     DO1      DRUD     -2.48830      0.400000           0   0.00000       0.00000    
     13348 MEOH     785      MEOH     HO1      HDP1A    0.360000       1.00800           0   0.00000       0.00000    
     13349 MEOH     785      MEOH     HO2      DUMH      0.00000       1.00800           0   0.00000       0.00000    
     13350 MEOH     785      MEOH     H1A      HDA3B    0.800000E-01   1.00800           0   0.00000       0.00000    
     13351 MEOH     785      MEOH     H1B      HDA3B    0.800000E-01   1.00800           0   0.00000       0.00000    
     13352 MEOH     785      MEOH     H1C      HDA3B    0.800000E-01   1.00800           0   0.00000       0.00000    
     13353 MEOH     785      MEOH     LP1A     LPD     -0.230000       0.00000          -1   0.00000       0.00000    
     13354 MEOH     785      MEOH     LP1B     LPD     -0.230000       0.00000          -1   0.00000       0.00000    
     13355 MEOH     786      MEOH     C1       CD33B     2.31410       11.6110           0  -1.00000       1.30000    
     13356 MEOH     786      MEOH     DC1      DRUD     -2.45410      0.400000           0   0.00000       0.00000    
     13357 MEOH     786      MEOH     O1       OD31H     2.48830       15.5990           0  -1.02800       1.30000    
     13358 MEOH     786      MEOH     DO1      DRUD     -2.48830      0.400000           0   0.00000       0.00000    
     13359 MEOH     786      MEOH     HO1      HDP1A    0.360000       1.00800           0   0.00000       0.00000    
     13360 MEOH     786      MEOH     HO2      DUMH      0.00000       1.00800           0   0.00000       0.00000    
     13361 MEOH     786      MEOH     H1A      HDA3B    0.800000E-01   1.00800           0   0.00000       0.00000    
     13362 MEOH     786      MEOH     H1B      HDA3B    0.800000E-01   1.00800           0   0.00000       0.00000    
     13363 MEOH     786      MEOH     H1C      HDA3B    0.800000E-01   1.00800           0   0.00000       0.00000    
     13364 MEOH     786      MEOH     LP1A     LPD     -0.230000       0.00000          -1   0.00000       0.00000    
     13365 MEOH     786      MEOH     LP1B     LPD     -0.230000       0.00000          -1   0.00000       0.00000    
     13366 MEOH     787      MEOH     C1       CD33B     2.31410       11.6110           0  -1.00000       1.30000    
     13367 MEOH     787      MEOH     DC1      DRUD     -2.45410      0.400000           0   0.00000       0.00000    
     13368 MEOH     787      MEOH     O1       OD31H     2.48830       15.5990           0  -1.02800       1.30000    
     13369 MEOH     787      MEOH     DO1      DRUD     -2.48830      0.400000           0   0.00000       0.00000    
     13370 MEOH     787      MEOH     HO1      HDP1A    0.360000       1.00800           0   0.00000       0.00000    
     13371 MEOH     787      MEOH     HO2      DUMH      0.00000       1.00800           0   0.00000       0.00000    
     13372 MEOH     787      MEOH     H1A      HDA3B    0.800000E-01   1.00800           0   0.00000       0.00000    
     13373 MEOH     787      MEOH     H1B      HDA3B    0.800000E-01   1.00800           0   0.00000       0.00000    
     13374 MEOH     787      MEOH     H1C      HDA3B    0.800000E-01   1.00800           0   0.00000       0.00000    
     13375 MEOH     787      MEOH     LP1A     LPD     -0.230000       0.00000          -1   0.00000       0.00000    
     13376 MEOH     787      MEOH     LP1B     LPD     -0.230000       0.00000          -1   0.00000       0.00000    
     13377 MEOH     788      MEOH     C1       CD33B     2.31410       11.6110           0  -1.00000       1.30000    
     13378 MEOH     788      MEOH     DC1      DRUD     -2.45410      0.400000           0   0.00000       0.00000    
     13379 MEOH     788      MEOH     O1       OD31H     2.48830       15.5990           0  -1.02800       1.30000    
     13380 MEOH     788      MEOH     DO1      DRUD     -2.48830      0.400000           0   0.00000       0.00000    
     13381 MEOH     788      MEOH     HO1      HDP1A    0.360000       1.00800           0   0.00000       0.00000    
     13382 MEOH     788      MEOH     HO2      DUMH      0.00000       1.00800           0   0.00000       0.00000    
     13383 MEOH     788      MEOH     H1A      HDA3B    0.800000E-01   1.00800           0   0.00000       0.00000    
     13384 MEOH     788      MEOH     H1B      HDA3B    0.800000E-01   1.00800           0   0.00000       0.00000    
     13385 MEOH     788      MEOH     H1C      HDA3B    0.800000E-01   1.00800           0   0.00000       0.00000    
     13386 MEOH     788      MEOH     LP1A     LPD     -0.230000       0.00000          -1   0.00000       0.00000    
     13387 MEOH     788      MEOH     LP1B     LPD     -0.230000       0.00000          -1   0.00000       0.00000    
     13388 MEOH     789      MEOH     C1       CD33B     2.31410       11.6110           0  -1.00000       1.30000    
     13389 MEOH     789      MEOH     DC1      DRUD     -2.45410      0.400000           0   0.00000       0.00000    
     13390 MEOH     789      MEOH     O1       OD31H     2.48830       15.5990           0  -1.02800       1.30000    
     13391 MEOH     789      MEOH     DO1      DRUD     -2.48830      0.400000           0   0.00000       0.00000    
     13392 MEOH     789      MEOH     HO1      HDP1A    0.360000       1.00800           0   0.00000       0.00000    
     13393 MEOH     789      MEOH     HO2      DUMH      0.00000       1.00800           0   0.00000       0.00000    
     13394 MEOH     789      MEOH     H1A      HDA3B    0.800000E-01   1.00800           0   0.00000       0.00000    
     13395 MEOH     789      MEOH     H1B      HDA3B    0.800000E-01   1.00800           0   0.00000       0.00000    
     13396 MEOH     789      MEOH     H1C      HDA3B    0.800000E-01   1.00800           0   0.00000       0.00000    
     13397 MEOH     789      MEOH     LP1A     LPD     -0.230000       0.00000          -1   0.00000       0.00000    
     13398 MEOH     789      MEOH     LP1B     LPD     -0.230000       0.00000          -1   0.00000       0.00000    
     13399 MEOH     790      MEOH     C1       CD33B     2.31410       11.6110           0  -1.00000       1.30000    
     13400 MEOH     790      MEOH     DC1      DRUD     -2.45410      0.400000           0   0.00000       0.00000    
     13401 MEOH     790      MEOH     O1       OD31H     2.48830       15.5990           0  -1.02800       1.30000    
     13402 MEOH     790      MEOH     DO1      DRUD     -2.48830      0.400000           0   0.00000       0.00000    
     13403 MEOH     790      MEOH     HO1      HDP1A    0.360000       1.00800           0   0.00000       0.00000    
     13404 MEOH     790      MEOH     HO2      DUMH      0.00000       1.00800           0   0.00000       0.00000    
     13405 MEOH     790      MEOH     H1A      HDA3B    0.800000E-01   1.00800           0   0.00000       0.00000    
     13406 MEOH     790      MEOH     H1B      HDA3B    0.800000E-01   1.00800           0   0.00000       0.00000    
     13407 MEOH     790      MEOH     H1C      HDA3B    0.800000E-01   1.00800           0   0.00000       0.00000    
     13408 MEOH     790      MEOH     LP1A     LPD     -0.230000       0.00000          -1   0.00000       0.00000    
     13409 MEOH     790      MEOH     LP1B     LPD     -0.230000       0.00000          -1   0.00000       0.00000    
     13410 MEOH     791      MEOH     C1       CD33B     2.31410       11.6110           0  -1.00000       1.30000    
     13411 MEOH     791      MEOH     DC1      DRUD     -2.45410      0.400000           0   0.00000       0.00000    
     13412 MEOH     791      MEOH     O1       OD31H     2.48830       15.5990           0  -1.02800       1.30000    
     13413 MEOH     791      MEOH     DO1      DRUD     -2.48830      0.400000           0   0.00000       0.00000    
     13414 MEOH     791      MEOH     HO1      HDP1A    0.360000       1.00800           0   0.00000       0.00000    
     13415 MEOH     791      MEOH     HO2      DUMH      0.00000       1.00800           0   0.00000       0.00000    
     13416 MEOH     791      MEOH     H1A      HDA3B    0.800000E-01   1.00800           0   0.00000       0.00000    
     13417 MEOH     791      MEOH     H1B      HDA3B    0.800000E-01   1.00800           0   0.00000       0.00000    
     13418 MEOH     791      MEOH     H1C      HDA3B    0.800000E-01   1.00800           0   0.00000       0.00000    
     13419 MEOH     791      MEOH     LP1A     LPD     -0.230000       0.00000          -1   0.00000       0.00000    
     13420 MEOH     791      MEOH     LP1B     LPD     -0.230000       0.00000          -1   0.00000       0.00000    
     13421 MEOH     792      MEOH     C1       CD33B     2.31410       11.6110           0  -1.00000       1.30000    
     13422 MEOH     792      MEOH     DC1      DRUD     -2.45410      0.400000           0   0.00000       0.00000    
     13423 MEOH     792      MEOH     O1       OD31H     2.48830       15.5990           0  -1.02800       1.30000    
     13424 MEOH     792      MEOH     DO1      DRUD     -2.48830      0.400000           0   0.00000       0.00000    
     13425 MEOH     792      MEOH     HO1      HDP1A    0.360000       1.00800           0   0.00000       0.00000    
     13426 MEOH     792      MEOH     HO2      DUMH      0.00000       1.00800           0   0.00000       0.00000    
     13427 MEOH     792      MEOH     H1A      HDA3B    0.800000E-01   1.00800           0   0.00000       0.00000    
     13428 MEOH     792      MEOH     H1B      HDA3B    0.800000E-01   1.00800           0   0.00000       0.00000    
     13429 MEOH     792      MEOH     H1C      HDA3B    0.800000E-01   1.00800           0   0.00000       0.00000    
     13430 MEOH     792      MEOH     LP1A     LPD     -0.230000       0.00000          -1   0.00000       0.00000    
     13431 MEOH     792      MEOH     LP1B     LPD     -0.230000       0.00000          -1   0.00000       0.00000    
     13432 MEOH     793      MEOH     C1       CD33B     2.31410       11.6110           0  -1.00000       1.30000    
     13433 MEOH     793      MEOH     DC1      DRUD     -2.45410      0.400000           0   0.00000       0.00000    
     13434 MEOH     793      MEOH     O1       OD31H     2.48830       15.5990           0  -1.02800       1.30000    
     13435 MEOH     793      MEOH     DO1      DRUD     -2.48830      0.400000           0   0.00000       0.00000    
     13436 MEOH     793      MEOH     HO1      HDP1A    0.360000       1.00800           0   0.00000       0.00000    
     13437 MEOH     793      MEOH     HO2      DUMH      0.00000       1.00800           0   0.00000       0.00000    
     13438 MEOH     793      MEOH     H1A      HDA3B    0.800000E-01   1.00800           0   0.00000       0.00000    
     13439 MEOH     793      MEOH     H1B      HDA3B    0.800000E-01   1.00800           0   0.00000       0.00000    
     13440 MEOH     793      MEOH     H1C      HDA3B    0.800000E-01   1.00800           0   0.00000       0.00000    
     13441 MEOH     793      MEOH     LP1A     LPD     -0.230000       0.00000          -1   0.00000       0.00000    
     13442 MEOH     793      MEOH     LP1B     LPD     -0.230000       0.00000          -1   0.00000       0.00000    
     13443 MEOH     794      MEOH     C1       CD33B     2.31410       11.6110           0  -1.00000       1.30000    
     13444 MEOH     794      MEOH     DC1      DRUD     -2.45410      0.400000           0   0.00000       0.00000    
     13445 MEOH     794      MEOH     O1       OD31H     2.48830       15.5990           0  -1.02800       1.30000    
     13446 MEOH     794      MEOH     DO1      DRUD     -2.48830      0.400000           0   0.00000       0.00000    
     13447 MEOH     794      MEOH     HO1      HDP1A    0.360000       1.00800           0   0.00000       0.00000    
     13448 MEOH     794      MEOH     HO2      DUMH      0.00000       1.00800           0   0.00000       0.00000    
     13449 MEOH     794      MEOH     H1A      HDA3B    0.800000E-01   1.00800           0   0.00000       0.00000    
     13450 MEOH     794      MEOH     H1B      HDA3B    0.800000E-01   1.00800           0   0.00000       0.00000    
     13451 MEOH     794      MEOH     H1C      HDA3B    0.800000E-01   1.00800           0   0.00000       0.00000    
     13452 MEOH     794      MEOH     LP1A     LPD     -0.230000       0.00000          -1   0.00000       0.00000    
     13453 MEOH     794      MEOH     LP1B     LPD     -0.230000       0.00000          -1   0.00000       0.00000    
     13454 MEOH     795      MEOH     C1       CD33B     2.31410       11.6110           0  -1.00000       1.30000    
     13455 MEOH     795      MEOH     DC1      DRUD     -2.45410      0.400000           0   0.00000       0.00000    
     13456 MEOH     795      MEOH     O1       OD31H     2.48830       15.5990           0  -1.02800       1.30000    
     13457 MEOH     795      MEOH     DO1      DRUD     -2.48830      0.400000           0   0.00000       0.00000    
     13458 MEOH     795      MEOH     HO1      HDP1A    0.360000       1.00800           0   0.00000       0.00000    
     13459 MEOH     795      MEOH     HO2      DUMH      0.00000       1.00800           0   0.00000       0.00000    
     13460 MEOH     795      MEOH     H1A      HDA3B    0.800000E-01   1.00800           0   0.00000       0.00000    
     13461 MEOH     795      MEOH     H1B      HDA3B    0.800000E-01   1.00800           0   0.00000       0.00000    
     13462 MEOH     795      MEOH     H1C      HDA3B    0.800000E-01   1.00800           0   0.00000       0.00000    
     13463 MEOH     795      MEOH     LP1A     LPD     -0.230000       0.00000          -1   0.00000       0.00000    
     13464 MEOH     795      MEOH     LP1B     LPD     -0.230000       0.00000          -1   0.00000       0.00000    
     13465 MEOH     796      MEOH     C1       CD33B     2.31410       11.6110           0  -1.00000       1.30000    
     13466 MEOH     796      MEOH     DC1      DRUD     -2.45410      0.400000           0   0.00000       0.00000    
     13467 MEOH     796      MEOH     O1       OD31H     2.48830       15.5990           0  -1.02800       1.30000    
     13468 MEOH     796      MEOH     DO1      DRUD     -2.48830      0.400000           0   0.00000       0.00000    
     13469 MEOH     796      MEOH     HO1      HDP1A    0.360000       1.00800           0   0.00000       0.00000    
     13470 MEOH     796      MEOH     HO2      DUMH      0.00000       1.00800           0   0.00000       0.00000    
     13471 MEOH     796      MEOH     H1A      HDA3B    0.800000E-01   1.00800           0   0.00000       0.00000    
     13472 MEOH     796      MEOH     H1B      HDA3B    0.800000E-01   1.00800           0   0.00000       0.00000    
     13473 MEOH     796      MEOH     H1C      HDA3B    0.800000E-01   1.00800           0   0.00000       0.00000    
     13474 MEOH     796      MEOH     LP1A     LPD     -0.230000       0.00000          -1   0.00000       0.00000    
     13475 MEOH     796      MEOH     LP1B     LPD     -0.230000       0.00000          -1   0.00000       0.00000    
     13476 MEOH     797      MEOH     C1       CD33B     2.31410       11.6110           0  -1.00000       1.30000    
     13477 MEOH     797      MEOH     DC1      DRUD     -2.45410      0.400000           0   0.00000       0.00000    
     13478 MEOH     797      MEOH     O1       OD31H     2.48830       15.5990           0  -1.02800       1.30000    
     13479 MEOH     797      MEOH     DO1      DRUD     -2.48830      0.400000           0   0.00000       0.00000    
     13480 MEOH     797      MEOH     HO1      HDP1A    0.360000       1.00800           0   0.00000       0.00000    
     13481 MEOH     797      MEOH     HO2      DUMH      0.00000       1.00800           0   0.00000       0.00000    
     13482 MEOH     797      MEOH     H1A      HDA3B    0.800000E-01   1.00800           0   0.00000       0.00000    
     13483 MEOH     797      MEOH     H1B      HDA3B    0.800000E-01   1.00800           0   0.00000       0.00000    
     13484 MEOH     797      MEOH     H1C      HDA3B    0.800000E-01   1.00800           0   0.00000       0.00000    
     13485 MEOH     797      MEOH     LP1A     LPD     -0.230000       0.00000          -1   0.00000       0.00000    
     13486 MEOH     797      MEOH     LP1B     LPD     -0.230000       0.00000          -1   0.00000       0.00000    
     13487 MEOH     798      MEOH     C1       CD33B     2.31410       11.6110           0  -1.00000       1.30000    
     13488 MEOH     798      MEOH     DC1      DRUD     -2.45410      0.400000           0   0.00000       0.00000    
     13489 MEOH     798      MEOH     O1       OD31H     2.48830       15.5990           0  -1.02800       1.30000    
     13490 MEOH     798      MEOH     DO1      DRUD     -2.48830      0.400000           0   0.00000       0.00000    
     13491 MEOH     798      MEOH     HO1      HDP1A    0.360000       1.00800           0   0.00000       0.00000    
     13492 MEOH     798      MEOH     HO2      DUMH      0.00000       1.00800           0   0.00000       0.00000    
     13493 MEOH     798      MEOH     H1A      HDA3B    0.800000E-01   1.00800           0   0.00000       0.00000    
     13494 MEOH     798      MEOH     H1B      HDA3B    0.800000E-01   1.00800           0   0.00000       0.00000    
     13495 MEOH     798      MEOH     H1C      HDA3B    0.800000E-01   1.00800           0   0.00000       0.00000    
     13496 MEOH     798      MEOH     LP1A     LPD     -0.230000       0.00000          -1   0.00000       0.00000    
     13497 MEOH     798      MEOH     LP1B     LPD     -0.230000       0.00000          -1   0.00000       0.00000    
     13498 MEOH     799      MEOH     C1       CD33B     2.31410       11.6110           0  -1.00000       1.30000    
     13499 MEOH     799      MEOH     DC1      DRUD     -2.45410      0.400000           0   0.00000       0.00000    
     13500 MEOH     799      MEOH     O1       OD31H     2.48830       15.5990           0  -1.02800       1.30000    
     13501 MEOH     799      MEOH     DO1      DRUD     -2.48830      0.400000           0   0.00000       0.00000    
     13502 MEOH     799      MEOH     HO1      HDP1A    0.360000       1.00800           0   0.00000       0.00000    
     13503 MEOH     799      MEOH     HO2      DUMH      0.00000       1.00800           0   0.00000       0.00000    
     13504 MEOH     799      MEOH     H1A      HDA3B    0.800000E-01   1.00800           0   0.00000       0.00000    
     13505 MEOH     799      MEOH     H1B      HDA3B    0.800000E-01   1.00800           0   0.00000       0.00000    
     13506 MEOH     799      MEOH     H1C      HDA3B    0.800000E-01   1.00800           0   0.00000       0.00000    
     13507 MEOH     799      MEOH     LP1A     LPD     -0.230000       0.00000          -1   0.00000       0.00000    
     13508 MEOH     799      MEOH     LP1B     LPD     -0.230000       0.00000          -1   0.00000       0.00000    
     13509 MEOH     800      MEOH     C1       CD33B     2.31410       11.6110           0  -1.00000       1.30000    
     13510 MEOH     800      MEOH     DC1      DRUD     -2.45410      0.400000           0   0.00000       0.00000    
     13511 MEOH     800      MEOH     O1       OD31H     2.48830       15.5990           0  -1.02800       1.30000    
     13512 MEOH     800      MEOH     DO1      DRUD     -2.48830      0.400000           0   0.00000       0.00000    
     13513 MEOH     800      MEOH     HO1      HDP1A    0.360000       1.00800           0   0.00000       0.00000    
     13514 MEOH     800      MEOH     HO2      DUMH      0.00000       1.00800           0   0.00000       0.00000    
     13515 MEOH     800      MEOH     H1A      HDA3B    0.800000E-01   1.00800           0   0.00000       0.00000    
     13516 MEOH     800      MEOH     H1B      HDA3B    0.800000E-01   1.00800           0   0.00000       0.00000    
     13517 MEOH     800      MEOH     H1C      HDA3B    0.800000E-01   1.00800           0   0.00000       0.00000    
     13518 MEOH     800      MEOH     LP1A     LPD     -0.230000       0.00000          -1   0.00000       0.00000    
     13519 MEOH     800      MEOH     LP1B     LPD     -0.230000       0.00000          -1   0.00000       0.00000    
     13520 MEOH     801      MEOH     C1       CD33B     2.31410       11.6110           0  -1.00000       1.30000    
     13521 MEOH     801      MEOH     DC1      DRUD     -2.45410      0.400000           0   0.00000       0.00000    
     13522 MEOH     801      MEOH     O1       OD31H     2.48830       15.5990           0  -1.02800       1.30000    
     13523 MEOH     801      MEOH     DO1      DRUD     -2.48830      0.400000           0   0.00000       0.00000    
     13524 MEOH     801      MEOH     HO1      HDP1A    0.360000       1.00800           0   0.00000       0.00000    
     13525 MEOH     801      MEOH     HO2      DUMH      0.00000       1.00800           0   0.00000       0.00000    
     13526 MEOH     801      MEOH     H1A      HDA3B    0.800000E-01   1.00800           0   0.00000       0.00000    
     13527 MEOH     801      MEOH     H1B      HDA3B    0.800000E-01   1.00800           0   0.00000       0.00000    
     13528 MEOH     801      MEOH     H1C      HDA3B    0.800000E-01   1.00800           0   0.00000       0.00000    
     13529 MEOH     801      MEOH     LP1A     LPD     -0.230000       0.00000          -1   0.00000       0.00000    
     13530 MEOH     801      MEOH     LP1B     LPD     -0.230000       0.00000          -1   0.00000       0.00000    
     13531 MEOH     802      MEOH     C1       CD33B     2.31410       11.6110           0  -1.00000       1.30000    
     13532 MEOH     802      MEOH     DC1      DRUD     -2.45410      0.400000           0   0.00000       0.00000    
     13533 MEOH     802      MEOH     O1       OD31H     2.48830       15.5990           0  -1.02800       1.30000    
     13534 MEOH     802      MEOH     DO1      DRUD     -2.48830      0.400000           0   0.00000       0.00000    
     13535 MEOH     802      MEOH     HO1      HDP1A    0.360000       1.00800           0   0.00000       0.00000    
     13536 MEOH     802      MEOH     HO2      DUMH      0.00000       1.00800           0   0.00000       0.00000    
     13537 MEOH     802      MEOH     H1A      HDA3B    0.800000E-01   1.00800           0   0.00000       0.00000    
     13538 MEOH     802      MEOH     H1B      HDA3B    0.800000E-01   1.00800           0   0.00000       0.00000    
     13539 MEOH     802      MEOH     H1C      HDA3B    0.800000E-01   1.00800           0   0.00000       0.00000    
     13540 MEOH     802      MEOH     LP1A     LPD     -0.230000       0.00000          -1   0.00000       0.00000    
     13541 MEOH     802      MEOH     LP1B     LPD     -0.230000       0.00000          -1   0.00000       0.00000    
     13542 MEOH     803      MEOH     C1       CD33B     2.31410       11.6110           0  -1.00000       1.30000    
     13543 MEOH     803      MEOH     DC1      DRUD     -2.45410      0.400000           0   0.00000       0.00000    
     13544 MEOH     803      MEOH     O1       OD31H     2.48830       15.5990           0  -1.02800       1.30000    
     13545 MEOH     803      MEOH     DO1      DRUD     -2.48830      0.400000           0   0.00000       0.00000    
     13546 MEOH     803      MEOH     HO1      HDP1A    0.360000       1.00800           0   0.00000       0.00000    
     13547 MEOH     803      MEOH     HO2      DUMH      0.00000       1.00800           0   0.00000       0.00000    
     13548 MEOH     803      MEOH     H1A      HDA3B    0.800000E-01   1.00800           0   0.00000       0.00000    
     13549 MEOH     803      MEOH     H1B      HDA3B    0.800000E-01   1.00800           0   0.00000       0.00000    
     13550 MEOH     803      MEOH     H1C      HDA3B    0.800000E-01   1.00800           0   0.00000       0.00000    
     13551 MEOH     803      MEOH     LP1A     LPD     -0.230000       0.00000          -1   0.00000       0.00000    
     13552 MEOH     803      MEOH     LP1B     LPD     -0.230000       0.00000          -1   0.00000       0.00000    
     13553 MEOH     804      MEOH     C1       CD33B     2.31410       11.6110           0  -1.00000       1.30000    
     13554 MEOH     804      MEOH     DC1      DRUD     -2.45410      0.400000           0   0.00000       0.00000    
     13555 MEOH     804      MEOH     O1       OD31H     2.48830       15.5990           0  -1.02800       1.30000    
     13556 MEOH     804      MEOH     DO1      DRUD     -2.48830      0.400000           0   0.00000       0.00000    
     13557 MEOH     804      MEOH     HO1      HDP1A    0.360000       1.00800           0   0.00000       0.00000    
     13558 MEOH     804      MEOH     HO2      DUMH      0.00000       1.00800           0   0.00000       0.00000    
     13559 MEOH     804      MEOH     H1A      HDA3B    0.800000E-01   1.00800           0   0.00000       0.00000    
     13560 MEOH     804      MEOH     H1B      HDA3B    0.800000E-01   1.00800           0   0.00000       0.00000    
     13561 MEOH     804      MEOH     H1C      HDA3B    0.800000E-01   1.00800           0   0.00000       0.00000    
     13562 MEOH     804      MEOH     LP1A     LPD     -0.230000       0.00000          -1   0.00000       0.00000    
     13563 MEOH     804      MEOH     LP1B     LPD     -0.230000       0.00000          -1   0.00000       0.00000    
     13564 MEOH     805      MEOH     C1       CD33B     2.31410       11.6110           0  -1.00000       1.30000    
     13565 MEOH     805      MEOH     DC1      DRUD     -2.45410      0.400000           0   0.00000       0.00000    
     13566 MEOH     805      MEOH     O1       OD31H     2.48830       15.5990           0  -1.02800       1.30000    
     13567 MEOH     805      MEOH     DO1      DRUD     -2.48830      0.400000           0   0.00000       0.00000    
     13568 MEOH     805      MEOH     HO1      HDP1A    0.360000       1.00800           0   0.00000       0.00000    
     13569 MEOH     805      MEOH     HO2      DUMH      0.00000       1.00800           0   0.00000       0.00000    
     13570 MEOH     805      MEOH     H1A      HDA3B    0.800000E-01   1.00800           0   0.00000       0.00000    
     13571 MEOH     805      MEOH     H1B      HDA3B    0.800000E-01   1.00800           0   0.00000       0.00000    
     13572 MEOH     805      MEOH     H1C      HDA3B    0.800000E-01   1.00800           0   0.00000       0.00000    
     13573 MEOH     805      MEOH     LP1A     LPD     -0.230000       0.00000          -1   0.00000       0.00000    
     13574 MEOH     805      MEOH     LP1B     LPD     -0.230000       0.00000          -1   0.00000       0.00000    
     13575 MEOH     806      MEOH     C1       CD33B     2.31410       11.6110           0  -1.00000       1.30000    
     13576 MEOH     806      MEOH     DC1      DRUD     -2.45410      0.400000           0   0.00000       0.00000    
     13577 MEOH     806      MEOH     O1       OD31H     2.48830       15.5990           0  -1.02800       1.30000    
     13578 MEOH     806      MEOH     DO1      DRUD     -2.48830      0.400000           0   0.00000       0.00000    
     13579 MEOH     806      MEOH     HO1      HDP1A    0.360000       1.00800           0   0.00000       0.00000    
     13580 MEOH     806      MEOH     HO2      DUMH      0.00000       1.00800           0   0.00000       0.00000    
     13581 MEOH     806      MEOH     H1A      HDA3B    0.800000E-01   1.00800           0   0.00000       0.00000    
     13582 MEOH     806      MEOH     H1B      HDA3B    0.800000E-01   1.00800           0   0.00000       0.00000    
     13583 MEOH     806      MEOH     H1C      HDA3B    0.800000E-01   1.00800           0   0.00000       0.00000    
     13584 MEOH     806      MEOH     LP1A     LPD     -0.230000       0.00000          -1   0.00000       0.00000    
     13585 MEOH     806      MEOH     LP1B     LPD     -0.230000       0.00000          -1   0.00000       0.00000    
     13586 MEOH     807      MEOH     C1       CD33B     2.31410       11.6110           0  -1.00000       1.30000    
     13587 MEOH     807      MEOH     DC1      DRUD     -2.45410      0.400000           0   0.00000       0.00000    
     13588 MEOH     807      MEOH     O1       OD31H     2.48830       15.5990           0  -1.02800       1.30000    
     13589 MEOH     807      MEOH     DO1      DRUD     -2.48830      0.400000           0   0.00000       0.00000    
     13590 MEOH     807      MEOH     HO1      HDP1A    0.360000       1.00800           0   0.00000       0.00000    
     13591 MEOH     807      MEOH     HO2      DUMH      0.00000       1.00800           0   0.00000       0.00000    
     13592 MEOH     807      MEOH     H1A      HDA3B    0.800000E-01   1.00800           0   0.00000       0.00000    
     13593 MEOH     807      MEOH     H1B      HDA3B    0.800000E-01   1.00800           0   0.00000       0.00000    
     13594 MEOH     807      MEOH     H1C      HDA3B    0.800000E-01   1.00800           0   0.00000       0.00000    
     13595 MEOH     807      MEOH     LP1A     LPD     -0.230000       0.00000          -1   0.00000       0.00000    
     13596 MEOH     807      MEOH     LP1B     LPD     -0.230000       0.00000          -1   0.00000       0.00000    
     13597 MEOH     808      MEOH     C1       CD33B     2.31410       11.6110           0  -1.00000       1.30000    
     13598 MEOH     808      MEOH     DC1      DRUD     -2.45410      0.400000           0   0.00000       0.00000    
     13599 MEOH     808      MEOH     O1       OD31H     2.48830       15.5990           0  -1.02800       1.30000    
     13600 MEOH     808      MEOH     DO1      DRUD     -2.48830      0.400000           0   0.00000       0.00000    
     13601 MEOH     808      MEOH     HO1      HDP1A    0.360000       1.00800           0   0.00000       0.00000    
     13602 MEOH     808      MEOH     HO2      DUMH      0.00000       1.00800           0   0.00000       0.00000    
     13603 MEOH     808      MEOH     H1A      HDA3B    0.800000E-01   1.00800           0   0.00000       0.00000    
     13604 MEOH     808      MEOH     H1B      HDA3B    0.800000E-01   1.00800           0   0.00000       0.00000    
     13605 MEOH     808      MEOH     H1C      HDA3B    0.800000E-01   1.00800           0   0.00000       0.00000    
     13606 MEOH     808      MEOH     LP1A     LPD     -0.230000       0.00000          -1   0.00000       0.00000    
     13607 MEOH     808      MEOH     LP1B     LPD     -0.230000       0.00000          -1   0.00000       0.00000    
     13608 MEOH     809      MEOH     C1       CD33B     2.31410       11.6110           0  -1.00000       1.30000    
     13609 MEOH     809      MEOH     DC1      DRUD     -2.45410      0.400000           0   0.00000       0.00000    
     13610 MEOH     809      MEOH     O1       OD31H     2.48830       15.5990           0  -1.02800       1.30000    
     13611 MEOH     809      MEOH     DO1      DRUD     -2.48830      0.400000           0   0.00000       0.00000    
     13612 MEOH     809      MEOH     HO1      HDP1A    0.360000       1.00800           0   0.00000       0.00000    
     13613 MEOH     809      MEOH     HO2      DUMH      0.00000       1.00800           0   0.00000       0.00000    
     13614 MEOH     809      MEOH     H1A      HDA3B    0.800000E-01   1.00800           0   0.00000       0.00000    
     13615 MEOH     809      MEOH     H1B      HDA3B    0.800000E-01   1.00800           0   0.00000       0.00000    
     13616 MEOH     809      MEOH     H1C      HDA3B    0.800000E-01   1.00800           0   0.00000       0.00000    
     13617 MEOH     809      MEOH     LP1A     LPD     -0.230000       0.00000          -1   0.00000       0.00000    
     13618 MEOH     809      MEOH     LP1B     LPD     -0.230000       0.00000          -1   0.00000       0.00000    
     13619 MEOH     810      MEOH     C1       CD33B     2.31410       11.6110           0  -1.00000       1.30000    
     13620 MEOH     810      MEOH     DC1      DRUD     -2.45410      0.400000           0   0.00000       0.00000    
     13621 MEOH     810      MEOH     O1       OD31H     2.48830       15.5990           0  -1.02800       1.30000    
     13622 MEOH     810      MEOH     DO1      DRUD     -2.48830      0.400000           0   0.00000       0.00000    
     13623 MEOH     810      MEOH     HO1      HDP1A    0.360000       1.00800           0   0.00000       0.00000    
     13624 MEOH     810      MEOH     HO2      DUMH      0.00000       1.00800           0   0.00000       0.00000    
     13625 MEOH     810      MEOH     H1A      HDA3B    0.800000E-01   1.00800           0   0.00000       0.00000    
     13626 MEOH     810      MEOH     H1B      HDA3B    0.800000E-01   1.00800           0   0.00000       0.00000    
     13627 MEOH     810      MEOH     H1C      HDA3B    0.800000E-01   1.00800           0   0.00000       0.00000    
     13628 MEOH     810      MEOH     LP1A     LPD     -0.230000       0.00000          -1   0.00000       0.00000    
     13629 MEOH     810      MEOH     LP1B     LPD     -0.230000       0.00000          -1   0.00000       0.00000    
     13630 MEOH     811      MEOH     C1       CD33B     2.31410       11.6110           0  -1.00000       1.30000    
     13631 MEOH     811      MEOH     DC1      DRUD     -2.45410      0.400000           0   0.00000       0.00000    
     13632 MEOH     811      MEOH     O1       OD31H     2.48830       15.5990           0  -1.02800       1.30000    
     13633 MEOH     811      MEOH     DO1      DRUD     -2.48830      0.400000           0   0.00000       0.00000    
     13634 MEOH     811      MEOH     HO1      HDP1A    0.360000       1.00800           0   0.00000       0.00000    
     13635 MEOH     811      MEOH     HO2      DUMH      0.00000       1.00800           0   0.00000       0.00000    
     13636 MEOH     811      MEOH     H1A      HDA3B    0.800000E-01   1.00800           0   0.00000       0.00000    
     13637 MEOH     811      MEOH     H1B      HDA3B    0.800000E-01   1.00800           0   0.00000       0.00000    
     13638 MEOH     811      MEOH     H1C      HDA3B    0.800000E-01   1.00800           0   0.00000       0.00000    
     13639 MEOH     811      MEOH     LP1A     LPD     -0.230000       0.00000          -1   0.00000       0.00000    
     13640 MEOH     811      MEOH     LP1B     LPD     -0.230000       0.00000          -1   0.00000       0.00000    
     13641 MEOH     812      MEOH     C1       CD33B     2.31410       11.6110           0  -1.00000       1.30000    
     13642 MEOH     812      MEOH     DC1      DRUD     -2.45410      0.400000           0   0.00000       0.00000    
     13643 MEOH     812      MEOH     O1       OD31H     2.48830       15.5990           0  -1.02800       1.30000    
     13644 MEOH     812      MEOH     DO1      DRUD     -2.48830      0.400000           0   0.00000       0.00000    
     13645 MEOH     812      MEOH     HO1      HDP1A    0.360000       1.00800           0   0.00000       0.00000    
     13646 MEOH     812      MEOH     HO2      DUMH      0.00000       1.00800           0   0.00000       0.00000    
     13647 MEOH     812      MEOH     H1A      HDA3B    0.800000E-01   1.00800           0   0.00000       0.00000    
     13648 MEOH     812      MEOH     H1B      HDA3B    0.800000E-01   1.00800           0   0.00000       0.00000    
     13649 MEOH     812      MEOH     H1C      HDA3B    0.800000E-01   1.00800           0   0.00000       0.00000    
     13650 MEOH     812      MEOH     LP1A     LPD     -0.230000       0.00000          -1   0.00000       0.00000    
     13651 MEOH     812      MEOH     LP1B     LPD     -0.230000       0.00000          -1   0.00000       0.00000    
     13652 MEOH     813      MEOH     C1       CD33B     2.31410       11.6110           0  -1.00000       1.30000    
     13653 MEOH     813      MEOH     DC1      DRUD     -2.45410      0.400000           0   0.00000       0.00000    
     13654 MEOH     813      MEOH     O1       OD31H     2.48830       15.5990           0  -1.02800       1.30000    
     13655 MEOH     813      MEOH     DO1      DRUD     -2.48830      0.400000           0   0.00000       0.00000    
     13656 MEOH     813      MEOH     HO1      HDP1A    0.360000       1.00800           0   0.00000       0.00000    
     13657 MEOH     813      MEOH     HO2      DUMH      0.00000       1.00800           0   0.00000       0.00000    
     13658 MEOH     813      MEOH     H1A      HDA3B    0.800000E-01   1.00800           0   0.00000       0.00000    
     13659 MEOH     813      MEOH     H1B      HDA3B    0.800000E-01   1.00800           0   0.00000       0.00000    
     13660 MEOH     813      MEOH     H1C      HDA3B    0.800000E-01   1.00800           0   0.00000       0.00000    
     13661 MEOH     813      MEOH     LP1A     LPD     -0.230000       0.00000          -1   0.00000       0.00000    
     13662 MEOH     813      MEOH     LP1B     LPD     -0.230000       0.00000          -1   0.00000       0.00000    
     13663 MEOH     814      MEOH     C1       CD33B     2.31410       11.6110           0  -1.00000       1.30000    
     13664 MEOH     814      MEOH     DC1      DRUD     -2.45410      0.400000           0   0.00000       0.00000    
     13665 MEOH     814      MEOH     O1       OD31H     2.48830       15.5990           0  -1.02800       1.30000    
     13666 MEOH     814      MEOH     DO1      DRUD     -2.48830      0.400000           0   0.00000       0.00000    
     13667 MEOH     814      MEOH     HO1      HDP1A    0.360000       1.00800           0   0.00000       0.00000    
     13668 MEOH     814      MEOH     HO2      DUMH      0.00000       1.00800           0   0.00000       0.00000    
     13669 MEOH     814      MEOH     H1A      HDA3B    0.800000E-01   1.00800           0   0.00000       0.00000    
     13670 MEOH     814      MEOH     H1B      HDA3B    0.800000E-01   1.00800           0   0.00000       0.00000    
     13671 MEOH     814      MEOH     H1C      HDA3B    0.800000E-01   1.00800           0   0.00000       0.00000    
     13672 MEOH     814      MEOH     LP1A     LPD     -0.230000       0.00000          -1   0.00000       0.00000    
     13673 MEOH     814      MEOH     LP1B     LPD     -0.230000       0.00000          -1   0.00000       0.00000    
     13674 MEOH     815      MEOH     C1       CD33B     2.31410       11.6110           0  -1.00000       1.30000    
     13675 MEOH     815      MEOH     DC1      DRUD     -2.45410      0.400000           0   0.00000       0.00000    
     13676 MEOH     815      MEOH     O1       OD31H     2.48830       15.5990           0  -1.02800       1.30000    
     13677 MEOH     815      MEOH     DO1      DRUD     -2.48830      0.400000           0   0.00000       0.00000    
     13678 MEOH     815      MEOH     HO1      HDP1A    0.360000       1.00800           0   0.00000       0.00000    
     13679 MEOH     815      MEOH     HO2      DUMH      0.00000       1.00800           0   0.00000       0.00000    
     13680 MEOH     815      MEOH     H1A      HDA3B    0.800000E-01   1.00800           0   0.00000       0.00000    
     13681 MEOH     815      MEOH     H1B      HDA3B    0.800000E-01   1.00800           0   0.00000       0.00000    
     13682 MEOH     815      MEOH     H1C      HDA3B    0.800000E-01   1.00800           0   0.00000       0.00000    
     13683 MEOH     815      MEOH     LP1A     LPD     -0.230000       0.00000          -1   0.00000       0.00000    
     13684 MEOH     815      MEOH     LP1B     LPD     -0.230000       0.00000          -1   0.00000       0.00000    
     13685 MEOH     816      MEOH     C1       CD33B     2.31410       11.6110           0  -1.00000       1.30000    
     13686 MEOH     816      MEOH     DC1      DRUD     -2.45410      0.400000           0   0.00000       0.00000    
     13687 MEOH     816      MEOH     O1       OD31H     2.48830       15.5990           0  -1.02800       1.30000    
     13688 MEOH     816      MEOH     DO1      DRUD     -2.48830      0.400000           0   0.00000       0.00000    
     13689 MEOH     816      MEOH     HO1      HDP1A    0.360000       1.00800           0   0.00000       0.00000    
     13690 MEOH     816      MEOH     HO2      DUMH      0.00000       1.00800           0   0.00000       0.00000    
     13691 MEOH     816      MEOH     H1A      HDA3B    0.800000E-01   1.00800           0   0.00000       0.00000    
     13692 MEOH     816      MEOH     H1B      HDA3B    0.800000E-01   1.00800           0   0.00000       0.00000    
     13693 MEOH     816      MEOH     H1C      HDA3B    0.800000E-01   1.00800           0   0.00000       0.00000    
     13694 MEOH     816      MEOH     LP1A     LPD     -0.230000       0.00000          -1   0.00000       0.00000    
     13695 MEOH     816      MEOH     LP1B     LPD     -0.230000       0.00000          -1   0.00000       0.00000    
     13696 MEOH     817      MEOH     C1       CD33B     2.31410       11.6110           0  -1.00000       1.30000    
     13697 MEOH     817      MEOH     DC1      DRUD     -2.45410      0.400000           0   0.00000       0.00000    
     13698 MEOH     817      MEOH     O1       OD31H     2.48830       15.5990           0  -1.02800       1.30000    
     13699 MEOH     817      MEOH     DO1      DRUD     -2.48830      0.400000           0   0.00000       0.00000    
     13700 MEOH     817      MEOH     HO1      HDP1A    0.360000       1.00800           0   0.00000       0.00000    
     13701 MEOH     817      MEOH     HO2      DUMH      0.00000       1.00800           0   0.00000       0.00000    
     13702 MEOH     817      MEOH     H1A      HDA3B    0.800000E-01   1.00800           0   0.00000       0.00000    
     13703 MEOH     817      MEOH     H1B      HDA3B    0.800000E-01   1.00800           0   0.00000       0.00000    
     13704 MEOH     817      MEOH     H1C      HDA3B    0.800000E-01   1.00800           0   0.00000       0.00000    
     13705 MEOH     817      MEOH     LP1A     LPD     -0.230000       0.00000          -1   0.00000       0.00000    
     13706 MEOH     817      MEOH     LP1B     LPD     -0.230000       0.00000          -1   0.00000       0.00000    
     13707 MEOH     818      MEOH     C1       CD33B     2.31410       11.6110           0  -1.00000       1.30000    
     13708 MEOH     818      MEOH     DC1      DRUD     -2.45410      0.400000           0   0.00000       0.00000    
     13709 MEOH     818      MEOH     O1       OD31H     2.48830       15.5990           0  -1.02800       1.30000    
     13710 MEOH     818      MEOH     DO1      DRUD     -2.48830      0.400000           0   0.00000       0.00000    
     13711 MEOH     818      MEOH     HO1      HDP1A    0.360000       1.00800           0   0.00000       0.00000    
     13712 MEOH     818      MEOH     HO2      DUMH      0.00000       1.00800           0   0.00000       0.00000    
     13713 MEOH     818      MEOH     H1A      HDA3B    0.800000E-01   1.00800           0   0.00000       0.00000    
     13714 MEOH     818      MEOH     H1B      HDA3B    0.800000E-01   1.00800           0   0.00000       0.00000    
     13715 MEOH     818      MEOH     H1C      HDA3B    0.800000E-01   1.00800           0   0.00000       0.00000    
     13716 MEOH     818      MEOH     LP1A     LPD     -0.230000       0.00000          -1   0.00000       0.00000    
     13717 MEOH     818      MEOH     LP1B     LPD     -0.230000       0.00000          -1   0.00000       0.00000    
     13718 MEOH     819      MEOH     C1       CD33B     2.31410       11.6110           0  -1.00000       1.30000    
     13719 MEOH     819      MEOH     DC1      DRUD     -2.45410      0.400000           0   0.00000       0.00000    
     13720 MEOH     819      MEOH     O1       OD31H     2.48830       15.5990           0  -1.02800       1.30000    
     13721 MEOH     819      MEOH     DO1      DRUD     -2.48830      0.400000           0   0.00000       0.00000    
     13722 MEOH     819      MEOH     HO1      HDP1A    0.360000       1.00800           0   0.00000       0.00000    
     13723 MEOH     819      MEOH     HO2      DUMH      0.00000       1.00800           0   0.00000       0.00000    
     13724 MEOH     819      MEOH     H1A      HDA3B    0.800000E-01   1.00800           0   0.00000       0.00000    
     13725 MEOH     819      MEOH     H1B      HDA3B    0.800000E-01   1.00800           0   0.00000       0.00000    
     13726 MEOH     819      MEOH     H1C      HDA3B    0.800000E-01   1.00800           0   0.00000       0.00000    
     13727 MEOH     819      MEOH     LP1A     LPD     -0.230000       0.00000          -1   0.00000       0.00000    
     13728 MEOH     819      MEOH     LP1B     LPD     -0.230000       0.00000          -1   0.00000       0.00000    
     13729 MEOH     820      MEOH     C1       CD33B     2.31410       11.6110           0  -1.00000       1.30000    
     13730 MEOH     820      MEOH     DC1      DRUD     -2.45410      0.400000           0   0.00000       0.00000    
     13731 MEOH     820      MEOH     O1       OD31H     2.48830       15.5990           0  -1.02800       1.30000    
     13732 MEOH     820      MEOH     DO1      DRUD     -2.48830      0.400000           0   0.00000       0.00000    
     13733 MEOH     820      MEOH     HO1      HDP1A    0.360000       1.00800           0   0.00000       0.00000    
     13734 MEOH     820      MEOH     HO2      DUMH      0.00000       1.00800           0   0.00000       0.00000    
     13735 MEOH     820      MEOH     H1A      HDA3B    0.800000E-01   1.00800           0   0.00000       0.00000    
     13736 MEOH     820      MEOH     H1B      HDA3B    0.800000E-01   1.00800           0   0.00000       0.00000    
     13737 MEOH     820      MEOH     H1C      HDA3B    0.800000E-01   1.00800           0   0.00000       0.00000    
     13738 MEOH     820      MEOH     LP1A     LPD     -0.230000       0.00000          -1   0.00000       0.00000    
     13739 MEOH     820      MEOH     LP1B     LPD     -0.230000       0.00000          -1   0.00000       0.00000    
     13740 MEOH     821      MEOH     C1       CD33B     2.31410       11.6110           0  -1.00000       1.30000    
     13741 MEOH     821      MEOH     DC1      DRUD     -2.45410      0.400000           0   0.00000       0.00000    
     13742 MEOH     821      MEOH     O1       OD31H     2.48830       15.5990           0  -1.02800       1.30000    
     13743 MEOH     821      MEOH     DO1      DRUD     -2.48830      0.400000           0   0.00000       0.00000    
     13744 MEOH     821      MEOH     HO1      HDP1A    0.360000       1.00800           0   0.00000       0.00000    
     13745 MEOH     821      MEOH     HO2      DUMH      0.00000       1.00800           0   0.00000       0.00000    
     13746 MEOH     821      MEOH     H1A      HDA3B    0.800000E-01   1.00800           0   0.00000       0.00000    
     13747 MEOH     821      MEOH     H1B      HDA3B    0.800000E-01   1.00800           0   0.00000       0.00000    
     13748 MEOH     821      MEOH     H1C      HDA3B    0.800000E-01   1.00800           0   0.00000       0.00000    
     13749 MEOH     821      MEOH     LP1A     LPD     -0.230000       0.00000          -1   0.00000       0.00000    
     13750 MEOH     821      MEOH     LP1B     LPD     -0.230000       0.00000          -1   0.00000       0.00000    
     13751 MEOH     822      MEOH     C1       CD33B     2.31410       11.6110           0  -1.00000       1.30000    
     13752 MEOH     822      MEOH     DC1      DRUD     -2.45410      0.400000           0   0.00000       0.00000    
     13753 MEOH     822      MEOH     O1       OD31H     2.48830       15.5990           0  -1.02800       1.30000    
     13754 MEOH     822      MEOH     DO1      DRUD     -2.48830      0.400000           0   0.00000       0.00000    
     13755 MEOH     822      MEOH     HO1      HDP1A    0.360000       1.00800           0   0.00000       0.00000    
     13756 MEOH     822      MEOH     HO2      DUMH      0.00000       1.00800           0   0.00000       0.00000    
     13757 MEOH     822      MEOH     H1A      HDA3B    0.800000E-01   1.00800           0   0.00000       0.00000    
     13758 MEOH     822      MEOH     H1B      HDA3B    0.800000E-01   1.00800           0   0.00000       0.00000    
     13759 MEOH     822      MEOH     H1C      HDA3B    0.800000E-01   1.00800           0   0.00000       0.00000    
     13760 MEOH     822      MEOH     LP1A     LPD     -0.230000       0.00000          -1   0.00000       0.00000    
     13761 MEOH     822      MEOH     LP1B     LPD     -0.230000       0.00000          -1   0.00000       0.00000    
     13762 MEOH     823      MEOH     C1       CD33B     2.31410       11.6110           0  -1.00000       1.30000    
     13763 MEOH     823      MEOH     DC1      DRUD     -2.45410      0.400000           0   0.00000       0.00000    
     13764 MEOH     823      MEOH     O1       OD31H     2.48830       15.5990           0  -1.02800       1.30000    
     13765 MEOH     823      MEOH     DO1      DRUD     -2.48830      0.400000           0   0.00000       0.00000    
     13766 MEOH     823      MEOH     HO1      HDP1A    0.360000       1.00800           0   0.00000       0.00000    
     13767 MEOH     823      MEOH     HO2      DUMH      0.00000       1.00800           0   0.00000       0.00000    
     13768 MEOH     823      MEOH     H1A      HDA3B    0.800000E-01   1.00800           0   0.00000       0.00000    
     13769 MEOH     823      MEOH     H1B      HDA3B    0.800000E-01   1.00800           0   0.00000       0.00000    
     13770 MEOH     823      MEOH     H1C      HDA3B    0.800000E-01   1.00800           0   0.00000       0.00000    
     13771 MEOH     823      MEOH     LP1A     LPD     -0.230000       0.00000          -1   0.00000       0.00000    
     13772 MEOH     823      MEOH     LP1B     LPD     -0.230000       0.00000          -1   0.00000       0.00000    
     13773 MEOH     824      MEOH     C1       CD33B     2.31410       11.6110           0  -1.00000       1.30000    
     13774 MEOH     824      MEOH     DC1      DRUD     -2.45410      0.400000           0   0.00000       0.00000    
     13775 MEOH     824      MEOH     O1       OD31H     2.48830       15.5990           0  -1.02800       1.30000    
     13776 MEOH     824      MEOH     DO1      DRUD     -2.48830      0.400000           0   0.00000       0.00000    
     13777 MEOH     824      MEOH     HO1      HDP1A    0.360000       1.00800           0   0.00000       0.00000    
     13778 MEOH     824      MEOH     HO2      DUMH      0.00000       1.00800           0   0.00000       0.00000    
     13779 MEOH     824      MEOH     H1A      HDA3B    0.800000E-01   1.00800           0   0.00000       0.00000    
     13780 MEOH     824      MEOH     H1B      HDA3B    0.800000E-01   1.00800           0   0.00000       0.00000    
     13781 MEOH     824      MEOH     H1C      HDA3B    0.800000E-01   1.00800           0   0.00000       0.00000    
     13782 MEOH     824      MEOH     LP1A     LPD     -0.230000       0.00000          -1   0.00000       0.00000    
     13783 MEOH     824      MEOH     LP1B     LPD     -0.230000       0.00000          -1   0.00000       0.00000    
     13784 MEOH     825      MEOH     C1       CD33B     2.31410       11.6110           0  -1.00000       1.30000    
     13785 MEOH     825      MEOH     DC1      DRUD     -2.45410      0.400000           0   0.00000       0.00000    
     13786 MEOH     825      MEOH     O1       OD31H     2.48830       15.5990           0  -1.02800       1.30000    
     13787 MEOH     825      MEOH     DO1      DRUD     -2.48830      0.400000           0   0.00000       0.00000    
     13788 MEOH     825      MEOH     HO1      HDP1A    0.360000       1.00800           0   0.00000       0.00000    
     13789 MEOH     825      MEOH     HO2      DUMH      0.00000       1.00800           0   0.00000       0.00000    
     13790 MEOH     825      MEOH     H1A      HDA3B    0.800000E-01   1.00800           0   0.00000       0.00000    
     13791 MEOH     825      MEOH     H1B      HDA3B    0.800000E-01   1.00800           0   0.00000       0.00000    
     13792 MEOH     825      MEOH     H1C      HDA3B    0.800000E-01   1.00800           0   0.00000       0.00000    
     13793 MEOH     825      MEOH     LP1A     LPD     -0.230000       0.00000          -1   0.00000       0.00000    
     13794 MEOH     825      MEOH     LP1B     LPD     -0.230000       0.00000          -1   0.00000       0.00000    
     13795 MEOH     826      MEOH     C1       CD33B     2.31410       11.6110           0  -1.00000       1.30000    
     13796 MEOH     826      MEOH     DC1      DRUD     -2.45410      0.400000           0   0.00000       0.00000    
     13797 MEOH     826      MEOH     O1       OD31H     2.48830       15.5990           0  -1.02800       1.30000    
     13798 MEOH     826      MEOH     DO1      DRUD     -2.48830      0.400000           0   0.00000       0.00000    
     13799 MEOH     826      MEOH     HO1      HDP1A    0.360000       1.00800           0   0.00000       0.00000    
     13800 MEOH     826      MEOH     HO2      DUMH      0.00000       1.00800           0   0.00000       0.00000    
     13801 MEOH     826      MEOH     H1A      HDA3B    0.800000E-01   1.00800           0   0.00000       0.00000    
     13802 MEOH     826      MEOH     H1B      HDA3B    0.800000E-01   1.00800           0   0.00000       0.00000    
     13803 MEOH     826      MEOH     H1C      HDA3B    0.800000E-01   1.00800           0   0.00000       0.00000    
     13804 MEOH     826      MEOH     LP1A     LPD     -0.230000       0.00000          -1   0.00000       0.00000    
     13805 MEOH     826      MEOH     LP1B     LPD     -0.230000       0.00000          -1   0.00000       0.00000    
     13806 MEOH     827      MEOH     C1       CD33B     2.31410       11.6110           0  -1.00000       1.30000    
     13807 MEOH     827      MEOH     DC1      DRUD     -2.45410      0.400000           0   0.00000       0.00000    
     13808 MEOH     827      MEOH     O1       OD31H     2.48830       15.5990           0  -1.02800       1.30000    
     13809 MEOH     827      MEOH     DO1      DRUD     -2.48830      0.400000           0   0.00000       0.00000    
     13810 MEOH     827      MEOH     HO1      HDP1A    0.360000       1.00800           0   0.00000       0.00000    
     13811 MEOH     827      MEOH     HO2      DUMH      0.00000       1.00800           0   0.00000       0.00000    
     13812 MEOH     827      MEOH     H1A      HDA3B    0.800000E-01   1.00800           0   0.00000       0.00000    
     13813 MEOH     827      MEOH     H1B      HDA3B    0.800000E-01   1.00800           0   0.00000       0.00000    
     13814 MEOH     827      MEOH     H1C      HDA3B    0.800000E-01   1.00800           0   0.00000       0.00000    
     13815 MEOH     827      MEOH     LP1A     LPD     -0.230000       0.00000          -1   0.00000       0.00000    
     13816 MEOH     827      MEOH     LP1B     LPD     -0.230000       0.00000          -1   0.00000       0.00000    
     13817 MEOH     828      MEOH     C1       CD33B     2.31410       11.6110           0  -1.00000       1.30000    
     13818 MEOH     828      MEOH     DC1      DRUD     -2.45410      0.400000           0   0.00000       0.00000    
     13819 MEOH     828      MEOH     O1       OD31H     2.48830       15.5990           0  -1.02800       1.30000    
     13820 MEOH     828      MEOH     DO1      DRUD     -2.48830      0.400000           0   0.00000       0.00000    
     13821 MEOH     828      MEOH     HO1      HDP1A    0.360000       1.00800           0   0.00000       0.00000    
     13822 MEOH     828      MEOH     HO2      DUMH      0.00000       1.00800           0   0.00000       0.00000    
     13823 MEOH     828      MEOH     H1A      HDA3B    0.800000E-01   1.00800           0   0.00000       0.00000    
     13824 MEOH     828      MEOH     H1B      HDA3B    0.800000E-01   1.00800           0   0.00000       0.00000    
     13825 MEOH     828      MEOH     H1C      HDA3B    0.800000E-01   1.00800           0   0.00000       0.00000    
     13826 MEOH     828      MEOH     LP1A     LPD     -0.230000       0.00000          -1   0.00000       0.00000    
     13827 MEOH     828      MEOH     LP1B     LPD     -0.230000       0.00000          -1   0.00000       0.00000    
     13828 MEOH     829      MEOH     C1       CD33B     2.31410       11.6110           0  -1.00000       1.30000    
     13829 MEOH     829      MEOH     DC1      DRUD     -2.45410      0.400000           0   0.00000       0.00000    
     13830 MEOH     829      MEOH     O1       OD31H     2.48830       15.5990           0  -1.02800       1.30000    
     13831 MEOH     829      MEOH     DO1      DRUD     -2.48830      0.400000           0   0.00000       0.00000    
     13832 MEOH     829      MEOH     HO1      HDP1A    0.360000       1.00800           0   0.00000       0.00000    
     13833 MEOH     829      MEOH     HO2      DUMH      0.00000       1.00800           0   0.00000       0.00000    
     13834 MEOH     829      MEOH     H1A      HDA3B    0.800000E-01   1.00800           0   0.00000       0.00000    
     13835 MEOH     829      MEOH     H1B      HDA3B    0.800000E-01   1.00800           0   0.00000       0.00000    
     13836 MEOH     829      MEOH     H1C      HDA3B    0.800000E-01   1.00800           0   0.00000       0.00000    
     13837 MEOH     829      MEOH     LP1A     LPD     -0.230000       0.00000          -1   0.00000       0.00000    
     13838 MEOH     829      MEOH     LP1B     LPD     -0.230000       0.00000          -1   0.00000       0.00000    
     13839 MEOH     830      MEOH     C1       CD33B     2.31410       11.6110           0  -1.00000       1.30000    
     13840 MEOH     830      MEOH     DC1      DRUD     -2.45410      0.400000           0   0.00000       0.00000    
     13841 MEOH     830      MEOH     O1       OD31H     2.48830       15.5990           0  -1.02800       1.30000    
     13842 MEOH     830      MEOH     DO1      DRUD     -2.48830      0.400000           0   0.00000       0.00000    
     13843 MEOH     830      MEOH     HO1      HDP1A    0.360000       1.00800           0   0.00000       0.00000    
     13844 MEOH     830      MEOH     HO2      DUMH      0.00000       1.00800           0   0.00000       0.00000    
     13845 MEOH     830      MEOH     H1A      HDA3B    0.800000E-01   1.00800           0   0.00000       0.00000    
     13846 MEOH     830      MEOH     H1B      HDA3B    0.800000E-01   1.00800           0   0.00000       0.00000    
     13847 MEOH     830      MEOH     H1C      HDA3B    0.800000E-01   1.00800           0   0.00000       0.00000    
     13848 MEOH     830      MEOH     LP1A     LPD     -0.230000       0.00000          -1   0.00000       0.00000    
     13849 MEOH     830      MEOH     LP1B     LPD     -0.230000       0.00000          -1   0.00000       0.00000    
     13850 MEOH     831      MEOH     C1       CD33B     2.31410       11.6110           0  -1.00000       1.30000    
     13851 MEOH     831      MEOH     DC1      DRUD     -2.45410      0.400000           0   0.00000       0.00000    
     13852 MEOH     831      MEOH     O1       OD31H     2.48830       15.5990           0  -1.02800       1.30000    
     13853 MEOH     831      MEOH     DO1      DRUD     -2.48830      0.400000           0   0.00000       0.00000    
     13854 MEOH     831      MEOH     HO1      HDP1A    0.360000       1.00800           0   0.00000       0.00000    
     13855 MEOH     831      MEOH     HO2      DUMH      0.00000       1.00800           0   0.00000       0.00000    
     13856 MEOH     831      MEOH     H1A      HDA3B    0.800000E-01   1.00800           0   0.00000       0.00000    
     13857 MEOH     831      MEOH     H1B      HDA3B    0.800000E-01   1.00800           0   0.00000       0.00000    
     13858 MEOH     831      MEOH     H1C      HDA3B    0.800000E-01   1.00800           0   0.00000       0.00000    
     13859 MEOH     831      MEOH     LP1A     LPD     -0.230000       0.00000          -1   0.00000       0.00000    
     13860 MEOH     831      MEOH     LP1B     LPD     -0.230000       0.00000          -1   0.00000       0.00000    
     13861 MEOH     832      MEOH     C1       CD33B     2.31410       11.6110           0  -1.00000       1.30000    
     13862 MEOH     832      MEOH     DC1      DRUD     -2.45410      0.400000           0   0.00000       0.00000    
     13863 MEOH     832      MEOH     O1       OD31H     2.48830       15.5990           0  -1.02800       1.30000    
     13864 MEOH     832      MEOH     DO1      DRUD     -2.48830      0.400000           0   0.00000       0.00000    
     13865 MEOH     832      MEOH     HO1      HDP1A    0.360000       1.00800           0   0.00000       0.00000    
     13866 MEOH     832      MEOH     HO2      DUMH      0.00000       1.00800           0   0.00000       0.00000    
     13867 MEOH     832      MEOH     H1A      HDA3B    0.800000E-01   1.00800           0   0.00000       0.00000    
     13868 MEOH     832      MEOH     H1B      HDA3B    0.800000E-01   1.00800           0   0.00000       0.00000    
     13869 MEOH     832      MEOH     H1C      HDA3B    0.800000E-01   1.00800           0   0.00000       0.00000    
     13870 MEOH     832      MEOH     LP1A     LPD     -0.230000       0.00000          -1   0.00000       0.00000    
     13871 MEOH     832      MEOH     LP1B     LPD     -0.230000       0.00000          -1   0.00000       0.00000    
     13872 MEOH     833      MEOH     C1       CD33B     2.31410       11.6110           0  -1.00000       1.30000    
     13873 MEOH     833      MEOH     DC1      DRUD     -2.45410      0.400000           0   0.00000       0.00000    
     13874 MEOH     833      MEOH     O1       OD31H     2.48830       15.5990           0  -1.02800       1.30000    
     13875 MEOH     833      MEOH     DO1      DRUD     -2.48830      0.400000           0   0.00000       0.00000    
     13876 MEOH     833      MEOH     HO1      HDP1A    0.360000       1.00800           0   0.00000       0.00000    
     13877 MEOH     833      MEOH     HO2      DUMH      0.00000       1.00800           0   0.00000       0.00000    
     13878 MEOH     833      MEOH     H1A      HDA3B    0.800000E-01   1.00800           0   0.00000       0.00000    
     13879 MEOH     833      MEOH     H1B      HDA3B    0.800000E-01   1.00800           0   0.00000       0.00000    
     13880 MEOH     833      MEOH     H1C      HDA3B    0.800000E-01   1.00800           0   0.00000       0.00000    
     13881 MEOH     833      MEOH     LP1A     LPD     -0.230000       0.00000          -1   0.00000       0.00000    
     13882 MEOH     833      MEOH     LP1B     LPD     -0.230000       0.00000          -1   0.00000       0.00000    
     13883 MEOH     834      MEOH     C1       CD33B     2.31410       11.6110           0  -1.00000       1.30000    
     13884 MEOH     834      MEOH     DC1      DRUD     -2.45410      0.400000           0   0.00000       0.00000    
     13885 MEOH     834      MEOH     O1       OD31H     2.48830       15.5990           0  -1.02800       1.30000    
     13886 MEOH     834      MEOH     DO1      DRUD     -2.48830      0.400000           0   0.00000       0.00000    
     13887 MEOH     834      MEOH     HO1      HDP1A    0.360000       1.00800           0   0.00000       0.00000    
     13888 MEOH     834      MEOH     HO2      DUMH      0.00000       1.00800           0   0.00000       0.00000    
     13889 MEOH     834      MEOH     H1A      HDA3B    0.800000E-01   1.00800           0   0.00000       0.00000    
     13890 MEOH     834      MEOH     H1B      HDA3B    0.800000E-01   1.00800           0   0.00000       0.00000    
     13891 MEOH     834      MEOH     H1C      HDA3B    0.800000E-01   1.00800           0   0.00000       0.00000    
     13892 MEOH     834      MEOH     LP1A     LPD     -0.230000       0.00000          -1   0.00000       0.00000    
     13893 MEOH     834      MEOH     LP1B     LPD     -0.230000       0.00000          -1   0.00000       0.00000    
     13894 MEOH     835      MEOH     C1       CD33B     2.31410       11.6110           0  -1.00000       1.30000    
     13895 MEOH     835      MEOH     DC1      DRUD     -2.45410      0.400000           0   0.00000       0.00000    
     13896 MEOH     835      MEOH     O1       OD31H     2.48830       15.5990           0  -1.02800       1.30000    
     13897 MEOH     835      MEOH     DO1      DRUD     -2.48830      0.400000           0   0.00000       0.00000    
     13898 MEOH     835      MEOH     HO1      HDP1A    0.360000       1.00800           0   0.00000       0.00000    
     13899 MEOH     835      MEOH     HO2      DUMH      0.00000       1.00800           0   0.00000       0.00000    
     13900 MEOH     835      MEOH     H1A      HDA3B    0.800000E-01   1.00800           0   0.00000       0.00000    
     13901 MEOH     835      MEOH     H1B      HDA3B    0.800000E-01   1.00800           0   0.00000       0.00000    
     13902 MEOH     835      MEOH     H1C      HDA3B    0.800000E-01   1.00800           0   0.00000       0.00000    
     13903 MEOH     835      MEOH     LP1A     LPD     -0.230000       0.00000          -1   0.00000       0.00000    
     13904 MEOH     835      MEOH     LP1B     LPD     -0.230000       0.00000          -1   0.00000       0.00000    
     13905 MEOH     836      MEOH     C1       CD33B     2.31410       11.6110           0  -1.00000       1.30000    
     13906 MEOH     836      MEOH     DC1      DRUD     -2.45410      0.400000           0   0.00000       0.00000    
     13907 MEOH     836      MEOH     O1       OD31H     2.48830       15.5990           0  -1.02800       1.30000    
     13908 MEOH     836      MEOH     DO1      DRUD     -2.48830      0.400000           0   0.00000       0.00000    
     13909 MEOH     836      MEOH     HO1      HDP1A    0.360000       1.00800           0   0.00000       0.00000    
     13910 MEOH     836      MEOH     HO2      DUMH      0.00000       1.00800           0   0.00000       0.00000    
     13911 MEOH     836      MEOH     H1A      HDA3B    0.800000E-01   1.00800           0   0.00000       0.00000    
     13912 MEOH     836      MEOH     H1B      HDA3B    0.800000E-01   1.00800           0   0.00000       0.00000    
     13913 MEOH     836      MEOH     H1C      HDA3B    0.800000E-01   1.00800           0   0.00000       0.00000    
     13914 MEOH     836      MEOH     LP1A     LPD     -0.230000       0.00000          -1   0.00000       0.00000    
     13915 MEOH     836      MEOH     LP1B     LPD     -0.230000       0.00000          -1   0.00000       0.00000    
     13916 MEOH     837      MEOH     C1       CD33B     2.31410       11.6110           0  -1.00000       1.30000    
     13917 MEOH     837      MEOH     DC1      DRUD     -2.45410      0.400000           0   0.00000       0.00000    
     13918 MEOH     837      MEOH     O1       OD31H     2.48830       15.5990           0  -1.02800       1.30000    
     13919 MEOH     837      MEOH     DO1      DRUD     -2.48830      0.400000           0   0.00000       0.00000    
     13920 MEOH     837      MEOH     HO1      HDP1A    0.360000       1.00800           0   0.00000       0.00000    
     13921 MEOH     837      MEOH     HO2      DUMH      0.00000       1.00800           0   0.00000       0.00000    
     13922 MEOH     837      MEOH     H1A      HDA3B    0.800000E-01   1.00800           0   0.00000       0.00000    
     13923 MEOH     837      MEOH     H1B      HDA3B    0.800000E-01   1.00800           0   0.00000       0.00000    
     13924 MEOH     837      MEOH     H1C      HDA3B    0.800000E-01   1.00800           0   0.00000       0.00000    
     13925 MEOH     837      MEOH     LP1A     LPD     -0.230000       0.00000          -1   0.00000       0.00000    
     13926 MEOH     837      MEOH     LP1B     LPD     -0.230000       0.00000          -1   0.00000       0.00000    
     13927 MEOH     838      MEOH     C1       CD33B     2.31410       11.6110           0  -1.00000       1.30000    
     13928 MEOH     838      MEOH     DC1      DRUD     -2.45410      0.400000           0   0.00000       0.00000    
     13929 MEOH     838      MEOH     O1       OD31H     2.48830       15.5990           0  -1.02800       1.30000    
     13930 MEOH     838      MEOH     DO1      DRUD     -2.48830      0.400000           0   0.00000       0.00000    
     13931 MEOH     838      MEOH     HO1      HDP1A    0.360000       1.00800           0   0.00000       0.00000    
     13932 MEOH     838      MEOH     HO2      DUMH      0.00000       1.00800           0   0.00000       0.00000    
     13933 MEOH     838      MEOH     H1A      HDA3B    0.800000E-01   1.00800           0   0.00000       0.00000    
     13934 MEOH     838      MEOH     H1B      HDA3B    0.800000E-01   1.00800           0   0.00000       0.00000    
     13935 MEOH     838      MEOH     H1C      HDA3B    0.800000E-01   1.00800           0   0.00000       0.00000    
     13936 MEOH     838      MEOH     LP1A     LPD     -0.230000       0.00000          -1   0.00000       0.00000    
     13937 MEOH     838      MEOH     LP1B     LPD     -0.230000       0.00000          -1   0.00000       0.00000    
     13938 MEOH     839      MEOH     C1       CD33B     2.31410       11.6110           0  -1.00000       1.30000    
     13939 MEOH     839      MEOH     DC1      DRUD     -2.45410      0.400000           0   0.00000       0.00000    
     13940 MEOH     839      MEOH     O1       OD31H     2.48830       15.5990           0  -1.02800       1.30000    
     13941 MEOH     839      MEOH     DO1      DRUD     -2.48830      0.400000           0   0.00000       0.00000    
     13942 MEOH     839      MEOH     HO1      HDP1A    0.360000       1.00800           0   0.00000       0.00000    
     13943 MEOH     839      MEOH     HO2      DUMH      0.00000       1.00800           0   0.00000       0.00000    
     13944 MEOH     839      MEOH     H1A      HDA3B    0.800000E-01   1.00800           0   0.00000       0.00000    
     13945 MEOH     839      MEOH     H1B      HDA3B    0.800000E-01   1.00800           0   0.00000       0.00000    
     13946 MEOH     839      MEOH     H1C      HDA3B    0.800000E-01   1.00800           0   0.00000       0.00000    
     13947 MEOH     839      MEOH     LP1A     LPD     -0.230000       0.00000          -1   0.00000       0.00000    
     13948 MEOH     839      MEOH     LP1B     LPD     -0.230000       0.00000          -1   0.00000       0.00000    
     13949 MEOH     840      MEOH     C1       CD33B     2.31410       11.6110           0  -1.00000       1.30000    
     13950 MEOH     840      MEOH     DC1      DRUD     -2.45410      0.400000           0   0.00000       0.00000    
     13951 MEOH     840      MEOH     O1       OD31H     2.48830       15.5990           0  -1.02800       1.30000    
     13952 MEOH     840      MEOH     DO1      DRUD     -2.48830      0.400000           0   0.00000       0.00000    
     13953 MEOH     840      MEOH     HO1      HDP1A    0.360000       1.00800           0   0.00000       0.00000    
     13954 MEOH     840      MEOH     HO2      DUMH      0.00000       1.00800           0   0.00000       0.00000    
     13955 MEOH     840      MEOH     H1A      HDA3B    0.800000E-01   1.00800           0   0.00000       0.00000    
     13956 MEOH     840      MEOH     H1B      HDA3B    0.800000E-01   1.00800           0   0.00000       0.00000    
     13957 MEOH     840      MEOH     H1C      HDA3B    0.800000E-01   1.00800           0   0.00000       0.00000    
     13958 MEOH     840      MEOH     LP1A     LPD     -0.230000       0.00000          -1   0.00000       0.00000    
     13959 MEOH     840      MEOH     LP1B     LPD     -0.230000       0.00000          -1   0.00000       0.00000    
     13960 MEOH     841      MEOH     C1       CD33B     2.31410       11.6110           0  -1.00000       1.30000    
     13961 MEOH     841      MEOH     DC1      DRUD     -2.45410      0.400000           0   0.00000       0.00000    
     13962 MEOH     841      MEOH     O1       OD31H     2.48830       15.5990           0  -1.02800       1.30000    
     13963 MEOH     841      MEOH     DO1      DRUD     -2.48830      0.400000           0   0.00000       0.00000    
     13964 MEOH     841      MEOH     HO1      HDP1A    0.360000       1.00800           0   0.00000       0.00000    
     13965 MEOH     841      MEOH     HO2      DUMH      0.00000       1.00800           0   0.00000       0.00000    
     13966 MEOH     841      MEOH     H1A      HDA3B    0.800000E-01   1.00800           0   0.00000       0.00000    
     13967 MEOH     841      MEOH     H1B      HDA3B    0.800000E-01   1.00800           0   0.00000       0.00000    
     13968 MEOH     841      MEOH     H1C      HDA3B    0.800000E-01   1.00800           0   0.00000       0.00000    
     13969 MEOH     841      MEOH     LP1A     LPD     -0.230000       0.00000          -1   0.00000       0.00000    
     13970 MEOH     841      MEOH     LP1B     LPD     -0.230000       0.00000          -1   0.00000       0.00000    
     13971 MEOH     842      MEOH     C1       CD33B     2.31410       11.6110           0  -1.00000       1.30000    
     13972 MEOH     842      MEOH     DC1      DRUD     -2.45410      0.400000           0   0.00000       0.00000    
     13973 MEOH     842      MEOH     O1       OD31H     2.48830       15.5990           0  -1.02800       1.30000    
     13974 MEOH     842      MEOH     DO1      DRUD     -2.48830      0.400000           0   0.00000       0.00000    
     13975 MEOH     842      MEOH     HO1      HDP1A    0.360000       1.00800           0   0.00000       0.00000    
     13976 MEOH     842      MEOH     HO2      DUMH      0.00000       1.00800           0   0.00000       0.00000    
     13977 MEOH     842      MEOH     H1A      HDA3B    0.800000E-01   1.00800           0   0.00000       0.00000    
     13978 MEOH     842      MEOH     H1B      HDA3B    0.800000E-01   1.00800           0   0.00000       0.00000    
     13979 MEOH     842      MEOH     H1C      HDA3B    0.800000E-01   1.00800           0   0.00000       0.00000    
     13980 MEOH     842      MEOH     LP1A     LPD     -0.230000       0.00000          -1   0.00000       0.00000    
     13981 MEOH     842      MEOH     LP1B     LPD     -0.230000       0.00000          -1   0.00000       0.00000    
     13982 MEOH     843      MEOH     C1       CD33B     2.31410       11.6110           0  -1.00000       1.30000    
     13983 MEOH     843      MEOH     DC1      DRUD     -2.45410      0.400000           0   0.00000       0.00000    
     13984 MEOH     843      MEOH     O1       OD31H     2.48830       15.5990           0  -1.02800       1.30000    
     13985 MEOH     843      MEOH     DO1      DRUD     -2.48830      0.400000           0   0.00000       0.00000    
     13986 MEOH     843      MEOH     HO1      HDP1A    0.360000       1.00800           0   0.00000       0.00000    
     13987 MEOH     843      MEOH     HO2      DUMH      0.00000       1.00800           0   0.00000       0.00000    
     13988 MEOH     843      MEOH     H1A      HDA3B    0.800000E-01   1.00800           0   0.00000       0.00000    
     13989 MEOH     843      MEOH     H1B      HDA3B    0.800000E-01   1.00800           0   0.00000       0.00000    
     13990 MEOH     843      MEOH     H1C      HDA3B    0.800000E-01   1.00800           0   0.00000       0.00000    
     13991 MEOH     843      MEOH     LP1A     LPD     -0.230000       0.00000          -1   0.00000       0.00000    
     13992 MEOH     843      MEOH     LP1B     LPD     -0.230000       0.00000          -1   0.00000       0.00000    
     13993 MEOH     844      MEOH     C1       CD33B     2.31410       11.6110           0  -1.00000       1.30000    
     13994 MEOH     844      MEOH     DC1      DRUD     -2.45410      0.400000           0   0.00000       0.00000    
     13995 MEOH     844      MEOH     O1       OD31H     2.48830       15.5990           0  -1.02800       1.30000    
     13996 MEOH     844      MEOH     DO1      DRUD     -2.48830      0.400000           0   0.00000       0.00000    
     13997 MEOH     844      MEOH     HO1      HDP1A    0.360000       1.00800           0   0.00000       0.00000    
     13998 MEOH     844      MEOH     HO2      DUMH      0.00000       1.00800           0   0.00000       0.00000    
     13999 MEOH     844      MEOH     H1A      HDA3B    0.800000E-01   1.00800           0   0.00000       0.00000    
     14000 MEOH     844      MEOH     H1B      HDA3B    0.800000E-01   1.00800           0   0.00000       0.00000    
     14001 MEOH     844      MEOH     H1C      HDA3B    0.800000E-01   1.00800           0   0.00000       0.00000    
     14002 MEOH     844      MEOH     LP1A     LPD     -0.230000       0.00000          -1   0.00000       0.00000    
     14003 MEOH     844      MEOH     LP1B     LPD     -0.230000       0.00000          -1   0.00000       0.00000    
     14004 MEOH     845      MEOH     C1       CD33B     2.31410       11.6110           0  -1.00000       1.30000    
     14005 MEOH     845      MEOH     DC1      DRUD     -2.45410      0.400000           0   0.00000       0.00000    
     14006 MEOH     845      MEOH     O1       OD31H     2.48830       15.5990           0  -1.02800       1.30000    
     14007 MEOH     845      MEOH     DO1      DRUD     -2.48830      0.400000           0   0.00000       0.00000    
     14008 MEOH     845      MEOH     HO1      HDP1A    0.360000       1.00800           0   0.00000       0.00000    
     14009 MEOH     845      MEOH     HO2      DUMH      0.00000       1.00800           0   0.00000       0.00000    
     14010 MEOH     845      MEOH     H1A      HDA3B    0.800000E-01   1.00800           0   0.00000       0.00000    
     14011 MEOH     845      MEOH     H1B      HDA3B    0.800000E-01   1.00800           0   0.00000       0.00000    
     14012 MEOH     845      MEOH     H1C      HDA3B    0.800000E-01   1.00800           0   0.00000       0.00000    
     14013 MEOH     845      MEOH     LP1A     LPD     -0.230000       0.00000          -1   0.00000       0.00000    
     14014 MEOH     845      MEOH     LP1B     LPD     -0.230000       0.00000          -1   0.00000       0.00000    
     14015 MEOH     846      MEOH     C1       CD33B     2.31410       11.6110           0  -1.00000       1.30000    
     14016 MEOH     846      MEOH     DC1      DRUD     -2.45410      0.400000           0   0.00000       0.00000    
     14017 MEOH     846      MEOH     O1       OD31H     2.48830       15.5990           0  -1.02800       1.30000    
     14018 MEOH     846      MEOH     DO1      DRUD     -2.48830      0.400000           0   0.00000       0.00000    
     14019 MEOH     846      MEOH     HO1      HDP1A    0.360000       1.00800           0   0.00000       0.00000    
     14020 MEOH     846      MEOH     HO2      DUMH      0.00000       1.00800           0   0.00000       0.00000    
     14021 MEOH     846      MEOH     H1A      HDA3B    0.800000E-01   1.00800           0   0.00000       0.00000    
     14022 MEOH     846      MEOH     H1B      HDA3B    0.800000E-01   1.00800           0   0.00000       0.00000    
     14023 MEOH     846      MEOH     H1C      HDA3B    0.800000E-01   1.00800           0   0.00000       0.00000    
     14024 MEOH     846      MEOH     LP1A     LPD     -0.230000       0.00000          -1   0.00000       0.00000    
     14025 MEOH     846      MEOH     LP1B     LPD     -0.230000       0.00000          -1   0.00000       0.00000    
     14026 MEOH     847      MEOH     C1       CD33B     2.31410       11.6110           0  -1.00000       1.30000    
     14027 MEOH     847      MEOH     DC1      DRUD     -2.45410      0.400000           0   0.00000       0.00000    
     14028 MEOH     847      MEOH     O1       OD31H     2.48830       15.5990           0  -1.02800       1.30000    
     14029 MEOH     847      MEOH     DO1      DRUD     -2.48830      0.400000           0   0.00000       0.00000    
     14030 MEOH     847      MEOH     HO1      HDP1A    0.360000       1.00800           0   0.00000       0.00000    
     14031 MEOH     847      MEOH     HO2      DUMH      0.00000       1.00800           0   0.00000       0.00000    
     14032 MEOH     847      MEOH     H1A      HDA3B    0.800000E-01   1.00800           0   0.00000       0.00000    
     14033 MEOH     847      MEOH     H1B      HDA3B    0.800000E-01   1.00800           0   0.00000       0.00000    
     14034 MEOH     847      MEOH     H1C      HDA3B    0.800000E-01   1.00800           0   0.00000       0.00000    
     14035 MEOH     847      MEOH     LP1A     LPD     -0.230000       0.00000          -1   0.00000       0.00000    
     14036 MEOH     847      MEOH     LP1B     LPD     -0.230000       0.00000          -1   0.00000       0.00000    
     14037 MEOH     848      MEOH     C1       CD33B     2.31410       11.6110           0  -1.00000       1.30000    
     14038 MEOH     848      MEOH     DC1      DRUD     -2.45410      0.400000           0   0.00000       0.00000    
     14039 MEOH     848      MEOH     O1       OD31H     2.48830       15.5990           0  -1.02800       1.30000    
     14040 MEOH     848      MEOH     DO1      DRUD     -2.48830      0.400000           0   0.00000       0.00000    
     14041 MEOH     848      MEOH     HO1      HDP1A    0.360000       1.00800           0   0.00000       0.00000    
     14042 MEOH     848      MEOH     HO2      DUMH      0.00000       1.00800           0   0.00000       0.00000    
     14043 MEOH     848      MEOH     H1A      HDA3B    0.800000E-01   1.00800           0   0.00000       0.00000    
     14044 MEOH     848      MEOH     H1B      HDA3B    0.800000E-01   1.00800           0   0.00000       0.00000    
     14045 MEOH     848      MEOH     H1C      HDA3B    0.800000E-01   1.00800           0   0.00000       0.00000    
     14046 MEOH     848      MEOH     LP1A     LPD     -0.230000       0.00000          -1   0.00000       0.00000    
     14047 MEOH     848      MEOH     LP1B     LPD     -0.230000       0.00000          -1   0.00000       0.00000    
     14048 MEOH     849      MEOH     C1       CD33B     2.31410       11.6110           0  -1.00000       1.30000    
     14049 MEOH     849      MEOH     DC1      DRUD     -2.45410      0.400000           0   0.00000       0.00000    
     14050 MEOH     849      MEOH     O1       OD31H     2.48830       15.5990           0  -1.02800       1.30000    
     14051 MEOH     849      MEOH     DO1      DRUD     -2.48830      0.400000           0   0.00000       0.00000    
     14052 MEOH     849      MEOH     HO1      HDP1A    0.360000       1.00800           0   0.00000       0.00000    
     14053 MEOH     849      MEOH     HO2      DUMH      0.00000       1.00800           0   0.00000       0.00000    
     14054 MEOH     849      MEOH     H1A      HDA3B    0.800000E-01   1.00800           0   0.00000       0.00000    
     14055 MEOH     849      MEOH     H1B      HDA3B    0.800000E-01   1.00800           0   0.00000       0.00000    
     14056 MEOH     849      MEOH     H1C      HDA3B    0.800000E-01   1.00800           0   0.00000       0.00000    
     14057 MEOH     849      MEOH     LP1A     LPD     -0.230000       0.00000          -1   0.00000       0.00000    
     14058 MEOH     849      MEOH     LP1B     LPD     -0.230000       0.00000          -1   0.00000       0.00000    
     14059 MEOH     850      MEOH     C1       CD33B     2.31410       11.6110           0  -1.00000       1.30000    
     14060 MEOH     850      MEOH     DC1      DRUD     -2.45410      0.400000           0   0.00000       0.00000    
     14061 MEOH     850      MEOH     O1       OD31H     2.48830       15.5990           0  -1.02800       1.30000    
     14062 MEOH     850      MEOH     DO1      DRUD     -2.48830      0.400000           0   0.00000       0.00000    
     14063 MEOH     850      MEOH     HO1      HDP1A    0.360000       1.00800           0   0.00000       0.00000    
     14064 MEOH     850      MEOH     HO2      DUMH      0.00000       1.00800           0   0.00000       0.00000    
     14065 MEOH     850      MEOH     H1A      HDA3B    0.800000E-01   1.00800           0   0.00000       0.00000    
     14066 MEOH     850      MEOH     H1B      HDA3B    0.800000E-01   1.00800           0   0.00000       0.00000    
     14067 MEOH     850      MEOH     H1C      HDA3B    0.800000E-01   1.00800           0   0.00000       0.00000    
     14068 MEOH     850      MEOH     LP1A     LPD     -0.230000       0.00000          -1   0.00000       0.00000    
     14069 MEOH     850      MEOH     LP1B     LPD     -0.230000       0.00000          -1   0.00000       0.00000    
     14070 MEOH     851      MEOH     C1       CD33B     2.31410       11.6110           0  -1.00000       1.30000    
     14071 MEOH     851      MEOH     DC1      DRUD     -2.45410      0.400000           0   0.00000       0.00000    
     14072 MEOH     851      MEOH     O1       OD31H     2.48830       15.5990           0  -1.02800       1.30000    
     14073 MEOH     851      MEOH     DO1      DRUD     -2.48830      0.400000           0   0.00000       0.00000    
     14074 MEOH     851      MEOH     HO1      HDP1A    0.360000       1.00800           0   0.00000       0.00000    
     14075 MEOH     851      MEOH     HO2      DUMH      0.00000       1.00800           0   0.00000       0.00000    
     14076 MEOH     851      MEOH     H1A      HDA3B    0.800000E-01   1.00800           0   0.00000       0.00000    
     14077 MEOH     851      MEOH     H1B      HDA3B    0.800000E-01   1.00800           0   0.00000       0.00000    
     14078 MEOH     851      MEOH     H1C      HDA3B    0.800000E-01   1.00800           0   0.00000       0.00000    
     14079 MEOH     851      MEOH     LP1A     LPD     -0.230000       0.00000          -1   0.00000       0.00000    
     14080 MEOH     851      MEOH     LP1B     LPD     -0.230000       0.00000          -1   0.00000       0.00000    
     14081 MEOH     852      MEOH     C1       CD33B     2.31410       11.6110           0  -1.00000       1.30000    
     14082 MEOH     852      MEOH     DC1      DRUD     -2.45410      0.400000           0   0.00000       0.00000    
     14083 MEOH     852      MEOH     O1       OD31H     2.48830       15.5990           0  -1.02800       1.30000    
     14084 MEOH     852      MEOH     DO1      DRUD     -2.48830      0.400000           0   0.00000       0.00000    
     14085 MEOH     852      MEOH     HO1      HDP1A    0.360000       1.00800           0   0.00000       0.00000    
     14086 MEOH     852      MEOH     HO2      DUMH      0.00000       1.00800           0   0.00000       0.00000    
     14087 MEOH     852      MEOH     H1A      HDA3B    0.800000E-01   1.00800           0   0.00000       0.00000    
     14088 MEOH     852      MEOH     H1B      HDA3B    0.800000E-01   1.00800           0   0.00000       0.00000    
     14089 MEOH     852      MEOH     H1C      HDA3B    0.800000E-01   1.00800           0   0.00000       0.00000    
     14090 MEOH     852      MEOH     LP1A     LPD     -0.230000       0.00000          -1   0.00000       0.00000    
     14091 MEOH     852      MEOH     LP1B     LPD     -0.230000       0.00000          -1   0.00000       0.00000    
     14092 MEOH     853      MEOH     C1       CD33B     2.31410       11.6110           0  -1.00000       1.30000    
     14093 MEOH     853      MEOH     DC1      DRUD     -2.45410      0.400000           0   0.00000       0.00000    
     14094 MEOH     853      MEOH     O1       OD31H     2.48830       15.5990           0  -1.02800       1.30000    
     14095 MEOH     853      MEOH     DO1      DRUD     -2.48830      0.400000           0   0.00000       0.00000    
     14096 MEOH     853      MEOH     HO1      HDP1A    0.360000       1.00800           0   0.00000       0.00000    
     14097 MEOH     853      MEOH     HO2      DUMH      0.00000       1.00800           0   0.00000       0.00000    
     14098 MEOH     853      MEOH     H1A      HDA3B    0.800000E-01   1.00800           0   0.00000       0.00000    
     14099 MEOH     853      MEOH     H1B      HDA3B    0.800000E-01   1.00800           0   0.00000       0.00000    
     14100 MEOH     853      MEOH     H1C      HDA3B    0.800000E-01   1.00800           0   0.00000       0.00000    
     14101 MEOH     853      MEOH     LP1A     LPD     -0.230000       0.00000          -1   0.00000       0.00000    
     14102 MEOH     853      MEOH     LP1B     LPD     -0.230000       0.00000          -1   0.00000       0.00000    
     14103 MEOH     854      MEOH     C1       CD33B     2.31410       11.6110           0  -1.00000       1.30000    
     14104 MEOH     854      MEOH     DC1      DRUD     -2.45410      0.400000           0   0.00000       0.00000    
     14105 MEOH     854      MEOH     O1       OD31H     2.48830       15.5990           0  -1.02800       1.30000    
     14106 MEOH     854      MEOH     DO1      DRUD     -2.48830      0.400000           0   0.00000       0.00000    
     14107 MEOH     854      MEOH     HO1      HDP1A    0.360000       1.00800           0   0.00000       0.00000    
     14108 MEOH     854      MEOH     HO2      DUMH      0.00000       1.00800           0   0.00000       0.00000    
     14109 MEOH     854      MEOH     H1A      HDA3B    0.800000E-01   1.00800           0   0.00000       0.00000    
     14110 MEOH     854      MEOH     H1B      HDA3B    0.800000E-01   1.00800           0   0.00000       0.00000    
     14111 MEOH     854      MEOH     H1C      HDA3B    0.800000E-01   1.00800           0   0.00000       0.00000    
     14112 MEOH     854      MEOH     LP1A     LPD     -0.230000       0.00000          -1   0.00000       0.00000    
     14113 MEOH     854      MEOH     LP1B     LPD     -0.230000       0.00000          -1   0.00000       0.00000    
     14114 MEOH     855      MEOH     C1       CD33B     2.31410       11.6110           0  -1.00000       1.30000    
     14115 MEOH     855      MEOH     DC1      DRUD     -2.45410      0.400000           0   0.00000       0.00000    
     14116 MEOH     855      MEOH     O1       OD31H     2.48830       15.5990           0  -1.02800       1.30000    
     14117 MEOH     855      MEOH     DO1      DRUD     -2.48830      0.400000           0   0.00000       0.00000    
     14118 MEOH     855      MEOH     HO1      HDP1A    0.360000       1.00800           0   0.00000       0.00000    
     14119 MEOH     855      MEOH     HO2      DUMH      0.00000       1.00800           0   0.00000       0.00000    
     14120 MEOH     855      MEOH     H1A      HDA3B    0.800000E-01   1.00800           0   0.00000       0.00000    
     14121 MEOH     855      MEOH     H1B      HDA3B    0.800000E-01   1.00800           0   0.00000       0.00000    
     14122 MEOH     855      MEOH     H1C      HDA3B    0.800000E-01   1.00800           0   0.00000       0.00000    
     14123 MEOH     855      MEOH     LP1A     LPD     -0.230000       0.00000          -1   0.00000       0.00000    
     14124 MEOH     855      MEOH     LP1B     LPD     -0.230000       0.00000          -1   0.00000       0.00000    
     14125 MEOH     856      MEOH     C1       CD33B     2.31410       11.6110           0  -1.00000       1.30000    
     14126 MEOH     856      MEOH     DC1      DRUD     -2.45410      0.400000           0   0.00000       0.00000    
     14127 MEOH     856      MEOH     O1       OD31H     2.48830       15.5990           0  -1.02800       1.30000    
     14128 MEOH     856      MEOH     DO1      DRUD     -2.48830      0.400000           0   0.00000       0.00000    
     14129 MEOH     856      MEOH     HO1      HDP1A    0.360000       1.00800           0   0.00000       0.00000    
     14130 MEOH     856      MEOH     HO2      DUMH      0.00000       1.00800           0   0.00000       0.00000    
     14131 MEOH     856      MEOH     H1A      HDA3B    0.800000E-01   1.00800           0   0.00000       0.00000    
     14132 MEOH     856      MEOH     H1B      HDA3B    0.800000E-01   1.00800           0   0.00000       0.00000    
     14133 MEOH     856      MEOH     H1C      HDA3B    0.800000E-01   1.00800           0   0.00000       0.00000    
     14134 MEOH     856      MEOH     LP1A     LPD     -0.230000       0.00000          -1   0.00000       0.00000    
     14135 MEOH     856      MEOH     LP1B     LPD     -0.230000       0.00000          -1   0.00000       0.00000    
     14136 MEOH     857      MEOH     C1       CD33B     2.31410       11.6110           0  -1.00000       1.30000    
     14137 MEOH     857      MEOH     DC1      DRUD     -2.45410      0.400000           0   0.00000       0.00000    
     14138 MEOH     857      MEOH     O1       OD31H     2.48830       15.5990           0  -1.02800       1.30000    
     14139 MEOH     857      MEOH     DO1      DRUD     -2.48830      0.400000           0   0.00000       0.00000    
     14140 MEOH     857      MEOH     HO1      HDP1A    0.360000       1.00800           0   0.00000       0.00000    
     14141 MEOH     857      MEOH     HO2      DUMH      0.00000       1.00800           0   0.00000       0.00000    
     14142 MEOH     857      MEOH     H1A      HDA3B    0.800000E-01   1.00800           0   0.00000       0.00000    
     14143 MEOH     857      MEOH     H1B      HDA3B    0.800000E-01   1.00800           0   0.00000       0.00000    
     14144 MEOH     857      MEOH     H1C      HDA3B    0.800000E-01   1.00800           0   0.00000       0.00000    
     14145 MEOH     857      MEOH     LP1A     LPD     -0.230000       0.00000          -1   0.00000       0.00000    
     14146 MEOH     857      MEOH     LP1B     LPD     -0.230000       0.00000          -1   0.00000       0.00000    
     14147 MEOH     858      MEOH     C1       CD33B     2.31410       11.6110           0  -1.00000       1.30000    
     14148 MEOH     858      MEOH     DC1      DRUD     -2.45410      0.400000           0   0.00000       0.00000    
     14149 MEOH     858      MEOH     O1       OD31H     2.48830       15.5990           0  -1.02800       1.30000    
     14150 MEOH     858      MEOH     DO1      DRUD     -2.48830      0.400000           0   0.00000       0.00000    
     14151 MEOH     858      MEOH     HO1      HDP1A    0.360000       1.00800           0   0.00000       0.00000    
     14152 MEOH     858      MEOH     HO2      DUMH      0.00000       1.00800           0   0.00000       0.00000    
     14153 MEOH     858      MEOH     H1A      HDA3B    0.800000E-01   1.00800           0   0.00000       0.00000    
     14154 MEOH     858      MEOH     H1B      HDA3B    0.800000E-01   1.00800           0   0.00000       0.00000    
     14155 MEOH     858      MEOH     H1C      HDA3B    0.800000E-01   1.00800           0   0.00000       0.00000    
     14156 MEOH     858      MEOH     LP1A     LPD     -0.230000       0.00000          -1   0.00000       0.00000    
     14157 MEOH     858      MEOH     LP1B     LPD     -0.230000       0.00000          -1   0.00000       0.00000    
     14158 MEOH     859      MEOH     C1       CD33B     2.31410       11.6110           0  -1.00000       1.30000    
     14159 MEOH     859      MEOH     DC1      DRUD     -2.45410      0.400000           0   0.00000       0.00000    
     14160 MEOH     859      MEOH     O1       OD31H     2.48830       15.5990           0  -1.02800       1.30000    
     14161 MEOH     859      MEOH     DO1      DRUD     -2.48830      0.400000           0   0.00000       0.00000    
     14162 MEOH     859      MEOH     HO1      HDP1A    0.360000       1.00800           0   0.00000       0.00000    
     14163 MEOH     859      MEOH     HO2      DUMH      0.00000       1.00800           0   0.00000       0.00000    
     14164 MEOH     859      MEOH     H1A      HDA3B    0.800000E-01   1.00800           0   0.00000       0.00000    
     14165 MEOH     859      MEOH     H1B      HDA3B    0.800000E-01   1.00800           0   0.00000       0.00000    
     14166 MEOH     859      MEOH     H1C      HDA3B    0.800000E-01   1.00800           0   0.00000       0.00000    
     14167 MEOH     859      MEOH     LP1A     LPD     -0.230000       0.00000          -1   0.00000       0.00000    
     14168 MEOH     859      MEOH     LP1B     LPD     -0.230000       0.00000          -1   0.00000       0.00000    
     14169 MEOH     860      MEOH     C1       CD33B     2.31410       11.6110           0  -1.00000       1.30000    
     14170 MEOH     860      MEOH     DC1      DRUD     -2.45410      0.400000           0   0.00000       0.00000    
     14171 MEOH     860      MEOH     O1       OD31H     2.48830       15.5990           0  -1.02800       1.30000    
     14172 MEOH     860      MEOH     DO1      DRUD     -2.48830      0.400000           0   0.00000       0.00000    
     14173 MEOH     860      MEOH     HO1      HDP1A    0.360000       1.00800           0   0.00000       0.00000    
     14174 MEOH     860      MEOH     HO2      DUMH      0.00000       1.00800           0   0.00000       0.00000    
     14175 MEOH     860      MEOH     H1A      HDA3B    0.800000E-01   1.00800           0   0.00000       0.00000    
     14176 MEOH     860      MEOH     H1B      HDA3B    0.800000E-01   1.00800           0   0.00000       0.00000    
     14177 MEOH     860      MEOH     H1C      HDA3B    0.800000E-01   1.00800           0   0.00000       0.00000    
     14178 MEOH     860      MEOH     LP1A     LPD     -0.230000       0.00000          -1   0.00000       0.00000    
     14179 MEOH     860      MEOH     LP1B     LPD     -0.230000       0.00000          -1   0.00000       0.00000    
     14180 MEOH     861      MEOH     C1       CD33B     2.31410       11.6110           0  -1.00000       1.30000    
     14181 MEOH     861      MEOH     DC1      DRUD     -2.45410      0.400000           0   0.00000       0.00000    
     14182 MEOH     861      MEOH     O1       OD31H     2.48830       15.5990           0  -1.02800       1.30000    
     14183 MEOH     861      MEOH     DO1      DRUD     -2.48830      0.400000           0   0.00000       0.00000    
     14184 MEOH     861      MEOH     HO1      HDP1A    0.360000       1.00800           0   0.00000       0.00000    
     14185 MEOH     861      MEOH     HO2      DUMH      0.00000       1.00800           0   0.00000       0.00000    
     14186 MEOH     861      MEOH     H1A      HDA3B    0.800000E-01   1.00800           0   0.00000       0.00000    
     14187 MEOH     861      MEOH     H1B      HDA3B    0.800000E-01   1.00800           0   0.00000       0.00000    
     14188 MEOH     861      MEOH     H1C      HDA3B    0.800000E-01   1.00800           0   0.00000       0.00000    
     14189 MEOH     861      MEOH     LP1A     LPD     -0.230000       0.00000          -1   0.00000       0.00000    
     14190 MEOH     861      MEOH     LP1B     LPD     -0.230000       0.00000          -1   0.00000       0.00000    
     14191 MEOH     862      MEOH     C1       CD33B     2.31410       11.6110           0  -1.00000       1.30000    
     14192 MEOH     862      MEOH     DC1      DRUD     -2.45410      0.400000           0   0.00000       0.00000    
     14193 MEOH     862      MEOH     O1       OD31H     2.48830       15.5990           0  -1.02800       1.30000    
     14194 MEOH     862      MEOH     DO1      DRUD     -2.48830      0.400000           0   0.00000       0.00000    
     14195 MEOH     862      MEOH     HO1      HDP1A    0.360000       1.00800           0   0.00000       0.00000    
     14196 MEOH     862      MEOH     HO2      DUMH      0.00000       1.00800           0   0.00000       0.00000    
     14197 MEOH     862      MEOH     H1A      HDA3B    0.800000E-01   1.00800           0   0.00000       0.00000    
     14198 MEOH     862      MEOH     H1B      HDA3B    0.800000E-01   1.00800           0   0.00000       0.00000    
     14199 MEOH     862      MEOH     H1C      HDA3B    0.800000E-01   1.00800           0   0.00000       0.00000    
     14200 MEOH     862      MEOH     LP1A     LPD     -0.230000       0.00000          -1   0.00000       0.00000    
     14201 MEOH     862      MEOH     LP1B     LPD     -0.230000       0.00000          -1   0.00000       0.00000    
     14202 MEOH     863      MEOH     C1       CD33B     2.31410       11.6110           0  -1.00000       1.30000    
     14203 MEOH     863      MEOH     DC1      DRUD     -2.45410      0.400000           0   0.00000       0.00000    
     14204 MEOH     863      MEOH     O1       OD31H     2.48830       15.5990           0  -1.02800       1.30000    
     14205 MEOH     863      MEOH     DO1      DRUD     -2.48830      0.400000           0   0.00000       0.00000    
     14206 MEOH     863      MEOH     HO1      HDP1A    0.360000       1.00800           0   0.00000       0.00000    
     14207 MEOH     863      MEOH     HO2      DUMH      0.00000       1.00800           0   0.00000       0.00000    
     14208 MEOH     863      MEOH     H1A      HDA3B    0.800000E-01   1.00800           0   0.00000       0.00000    
     14209 MEOH     863      MEOH     H1B      HDA3B    0.800000E-01   1.00800           0   0.00000       0.00000    
     14210 MEOH     863      MEOH     H1C      HDA3B    0.800000E-01   1.00800           0   0.00000       0.00000    
     14211 MEOH     863      MEOH     LP1A     LPD     -0.230000       0.00000          -1   0.00000       0.00000    
     14212 MEOH     863      MEOH     LP1B     LPD     -0.230000       0.00000          -1   0.00000       0.00000    
     14213 MEOH     864      MEOH     C1       CD33B     2.31410       11.6110           0  -1.00000       1.30000    
     14214 MEOH     864      MEOH     DC1      DRUD     -2.45410      0.400000           0   0.00000       0.00000    
     14215 MEOH     864      MEOH     O1       OD31H     2.48830       15.5990           0  -1.02800       1.30000    
     14216 MEOH     864      MEOH     DO1      DRUD     -2.48830      0.400000           0   0.00000       0.00000    
     14217 MEOH     864      MEOH     HO1      HDP1A    0.360000       1.00800           0   0.00000       0.00000    
     14218 MEOH     864      MEOH     HO2      DUMH      0.00000       1.00800           0   0.00000       0.00000    
     14219 MEOH     864      MEOH     H1A      HDA3B    0.800000E-01   1.00800           0   0.00000       0.00000    
     14220 MEOH     864      MEOH     H1B      HDA3B    0.800000E-01   1.00800           0   0.00000       0.00000    
     14221 MEOH     864      MEOH     H1C      HDA3B    0.800000E-01   1.00800           0   0.00000       0.00000    
     14222 MEOH     864      MEOH     LP1A     LPD     -0.230000       0.00000          -1   0.00000       0.00000    
     14223 MEOH     864      MEOH     LP1B     LPD     -0.230000       0.00000          -1   0.00000       0.00000    
     14224 MEOH     865      MEOH     C1       CD33B     2.31410       11.6110           0  -1.00000       1.30000    
     14225 MEOH     865      MEOH     DC1      DRUD     -2.45410      0.400000           0   0.00000       0.00000    
     14226 MEOH     865      MEOH     O1       OD31H     2.48830       15.5990           0  -1.02800       1.30000    
     14227 MEOH     865      MEOH     DO1      DRUD     -2.48830      0.400000           0   0.00000       0.00000    
     14228 MEOH     865      MEOH     HO1      HDP1A    0.360000       1.00800           0   0.00000       0.00000    
     14229 MEOH     865      MEOH     HO2      DUMH      0.00000       1.00800           0   0.00000       0.00000    
     14230 MEOH     865      MEOH     H1A      HDA3B    0.800000E-01   1.00800           0   0.00000       0.00000    
     14231 MEOH     865      MEOH     H1B      HDA3B    0.800000E-01   1.00800           0   0.00000       0.00000    
     14232 MEOH     865      MEOH     H1C      HDA3B    0.800000E-01   1.00800           0   0.00000       0.00000    
     14233 MEOH     865      MEOH     LP1A     LPD     -0.230000       0.00000          -1   0.00000       0.00000    
     14234 MEOH     865      MEOH     LP1B     LPD     -0.230000       0.00000          -1   0.00000       0.00000    
     14235 MEOH     866      MEOH     C1       CD33B     2.31410       11.6110           0  -1.00000       1.30000    
     14236 MEOH     866      MEOH     DC1      DRUD     -2.45410      0.400000           0   0.00000       0.00000    
     14237 MEOH     866      MEOH     O1       OD31H     2.48830       15.5990           0  -1.02800       1.30000    
     14238 MEOH     866      MEOH     DO1      DRUD     -2.48830      0.400000           0   0.00000       0.00000    
     14239 MEOH     866      MEOH     HO1      HDP1A    0.360000       1.00800           0   0.00000       0.00000    
     14240 MEOH     866      MEOH     HO2      DUMH      0.00000       1.00800           0   0.00000       0.00000    
     14241 MEOH     866      MEOH     H1A      HDA3B    0.800000E-01   1.00800           0   0.00000       0.00000    
     14242 MEOH     866      MEOH     H1B      HDA3B    0.800000E-01   1.00800           0   0.00000       0.00000    
     14243 MEOH     866      MEOH     H1C      HDA3B    0.800000E-01   1.00800           0   0.00000       0.00000    
     14244 MEOH     866      MEOH     LP1A     LPD     -0.230000       0.00000          -1   0.00000       0.00000    
     14245 MEOH     866      MEOH     LP1B     LPD     -0.230000       0.00000          -1   0.00000       0.00000    
     14246 MEOH     867      MEOH     C1       CD33B     2.31410       11.6110           0  -1.00000       1.30000    
     14247 MEOH     867      MEOH     DC1      DRUD     -2.45410      0.400000           0   0.00000       0.00000    
     14248 MEOH     867      MEOH     O1       OD31H     2.48830       15.5990           0  -1.02800       1.30000    
     14249 MEOH     867      MEOH     DO1      DRUD     -2.48830      0.400000           0   0.00000       0.00000    
     14250 MEOH     867      MEOH     HO1      HDP1A    0.360000       1.00800           0   0.00000       0.00000    
     14251 MEOH     867      MEOH     HO2      DUMH      0.00000       1.00800           0   0.00000       0.00000    
     14252 MEOH     867      MEOH     H1A      HDA3B    0.800000E-01   1.00800           0   0.00000       0.00000    
     14253 MEOH     867      MEOH     H1B      HDA3B    0.800000E-01   1.00800           0   0.00000       0.00000    
     14254 MEOH     867      MEOH     H1C      HDA3B    0.800000E-01   1.00800           0   0.00000       0.00000    
     14255 MEOH     867      MEOH     LP1A     LPD     -0.230000       0.00000          -1   0.00000       0.00000    
     14256 MEOH     867      MEOH     LP1B     LPD     -0.230000       0.00000          -1   0.00000       0.00000    
     14257 MEOH     868      MEOH     C1       CD33B     2.31410       11.6110           0  -1.00000       1.30000    
     14258 MEOH     868      MEOH     DC1      DRUD     -2.45410      0.400000           0   0.00000       0.00000    
     14259 MEOH     868      MEOH     O1       OD31H     2.48830       15.5990           0  -1.02800       1.30000    
     14260 MEOH     868      MEOH     DO1      DRUD     -2.48830      0.400000           0   0.00000       0.00000    
     14261 MEOH     868      MEOH     HO1      HDP1A    0.360000       1.00800           0   0.00000       0.00000    
     14262 MEOH     868      MEOH     HO2      DUMH      0.00000       1.00800           0   0.00000       0.00000    
     14263 MEOH     868      MEOH     H1A      HDA3B    0.800000E-01   1.00800           0   0.00000       0.00000    
     14264 MEOH     868      MEOH     H1B      HDA3B    0.800000E-01   1.00800           0   0.00000       0.00000    
     14265 MEOH     868      MEOH     H1C      HDA3B    0.800000E-01   1.00800           0   0.00000       0.00000    
     14266 MEOH     868      MEOH     LP1A     LPD     -0.230000       0.00000          -1   0.00000       0.00000    
     14267 MEOH     868      MEOH     LP1B     LPD     -0.230000       0.00000          -1   0.00000       0.00000    
     14268 MEOH     869      MEOH     C1       CD33B     2.31410       11.6110           0  -1.00000       1.30000    
     14269 MEOH     869      MEOH     DC1      DRUD     -2.45410      0.400000           0   0.00000       0.00000    
     14270 MEOH     869      MEOH     O1       OD31H     2.48830       15.5990           0  -1.02800       1.30000    
     14271 MEOH     869      MEOH     DO1      DRUD     -2.48830      0.400000           0   0.00000       0.00000    
     14272 MEOH     869      MEOH     HO1      HDP1A    0.360000       1.00800           0   0.00000       0.00000    
     14273 MEOH     869      MEOH     HO2      DUMH      0.00000       1.00800           0   0.00000       0.00000    
     14274 MEOH     869      MEOH     H1A      HDA3B    0.800000E-01   1.00800           0   0.00000       0.00000    
     14275 MEOH     869      MEOH     H1B      HDA3B    0.800000E-01   1.00800           0   0.00000       0.00000    
     14276 MEOH     869      MEOH     H1C      HDA3B    0.800000E-01   1.00800           0   0.00000       0.00000    
     14277 MEOH     869      MEOH     LP1A     LPD     -0.230000       0.00000          -1   0.00000       0.00000    
     14278 MEOH     869      MEOH     LP1B     LPD     -0.230000       0.00000          -1   0.00000       0.00000    
     14279 MEOH     870      MEOH     C1       CD33B     2.31410       11.6110           0  -1.00000       1.30000    
     14280 MEOH     870      MEOH     DC1      DRUD     -2.45410      0.400000           0   0.00000       0.00000    
     14281 MEOH     870      MEOH     O1       OD31H     2.48830       15.5990           0  -1.02800       1.30000    
     14282 MEOH     870      MEOH     DO1      DRUD     -2.48830      0.400000           0   0.00000       0.00000    
     14283 MEOH     870      MEOH     HO1      HDP1A    0.360000       1.00800           0   0.00000       0.00000    
     14284 MEOH     870      MEOH     HO2      DUMH      0.00000       1.00800           0   0.00000       0.00000    
     14285 MEOH     870      MEOH     H1A      HDA3B    0.800000E-01   1.00800           0   0.00000       0.00000    
     14286 MEOH     870      MEOH     H1B      HDA3B    0.800000E-01   1.00800           0   0.00000       0.00000    
     14287 MEOH     870      MEOH     H1C      HDA3B    0.800000E-01   1.00800           0   0.00000       0.00000    
     14288 MEOH     870      MEOH     LP1A     LPD     -0.230000       0.00000          -1   0.00000       0.00000    
     14289 MEOH     870      MEOH     LP1B     LPD     -0.230000       0.00000          -1   0.00000       0.00000    
     14290 MEOH     871      MEOH     C1       CD33B     2.31410       11.6110           0  -1.00000       1.30000    
     14291 MEOH     871      MEOH     DC1      DRUD     -2.45410      0.400000           0   0.00000       0.00000    
     14292 MEOH     871      MEOH     O1       OD31H     2.48830       15.5990           0  -1.02800       1.30000    
     14293 MEOH     871      MEOH     DO1      DRUD     -2.48830      0.400000           0   0.00000       0.00000    
     14294 MEOH     871      MEOH     HO1      HDP1A    0.360000       1.00800           0   0.00000       0.00000    
     14295 MEOH     871      MEOH     HO2      DUMH      0.00000       1.00800           0   0.00000       0.00000    
     14296 MEOH     871      MEOH     H1A      HDA3B    0.800000E-01   1.00800           0   0.00000       0.00000    
     14297 MEOH     871      MEOH     H1B      HDA3B    0.800000E-01   1.00800           0   0.00000       0.00000    
     14298 MEOH     871      MEOH     H1C      HDA3B    0.800000E-01   1.00800           0   0.00000       0.00000    
     14299 MEOH     871      MEOH     LP1A     LPD     -0.230000       0.00000          -1   0.00000       0.00000    
     14300 MEOH     871      MEOH     LP1B     LPD     -0.230000       0.00000          -1   0.00000       0.00000    
     14301 MEOH     872      MEOH     C1       CD33B     2.31410       11.6110           0  -1.00000       1.30000    
     14302 MEOH     872      MEOH     DC1      DRUD     -2.45410      0.400000           0   0.00000       0.00000    
     14303 MEOH     872      MEOH     O1       OD31H     2.48830       15.5990           0  -1.02800       1.30000    
     14304 MEOH     872      MEOH     DO1      DRUD     -2.48830      0.400000           0   0.00000       0.00000    
     14305 MEOH     872      MEOH     HO1      HDP1A    0.360000       1.00800           0   0.00000       0.00000    
     14306 MEOH     872      MEOH     HO2      DUMH      0.00000       1.00800           0   0.00000       0.00000    
     14307 MEOH     872      MEOH     H1A      HDA3B    0.800000E-01   1.00800           0   0.00000       0.00000    
     14308 MEOH     872      MEOH     H1B      HDA3B    0.800000E-01   1.00800           0   0.00000       0.00000    
     14309 MEOH     872      MEOH     H1C      HDA3B    0.800000E-01   1.00800           0   0.00000       0.00000    
     14310 MEOH     872      MEOH     LP1A     LPD     -0.230000       0.00000          -1   0.00000       0.00000    
     14311 MEOH     872      MEOH     LP1B     LPD     -0.230000       0.00000          -1   0.00000       0.00000    
     14312 MEOH     873      MEOH     C1       CD33B     2.31410       11.6110           0  -1.00000       1.30000    
     14313 MEOH     873      MEOH     DC1      DRUD     -2.45410      0.400000           0   0.00000       0.00000    
     14314 MEOH     873      MEOH     O1       OD31H     2.48830       15.5990           0  -1.02800       1.30000    
     14315 MEOH     873      MEOH     DO1      DRUD     -2.48830      0.400000           0   0.00000       0.00000    
     14316 MEOH     873      MEOH     HO1      HDP1A    0.360000       1.00800           0   0.00000       0.00000    
     14317 MEOH     873      MEOH     HO2      DUMH      0.00000       1.00800           0   0.00000       0.00000    
     14318 MEOH     873      MEOH     H1A      HDA3B    0.800000E-01   1.00800           0   0.00000       0.00000    
     14319 MEOH     873      MEOH     H1B      HDA3B    0.800000E-01   1.00800           0   0.00000       0.00000    
     14320 MEOH     873      MEOH     H1C      HDA3B    0.800000E-01   1.00800           0   0.00000       0.00000    
     14321 MEOH     873      MEOH     LP1A     LPD     -0.230000       0.00000          -1   0.00000       0.00000    
     14322 MEOH     873      MEOH     LP1B     LPD     -0.230000       0.00000          -1   0.00000       0.00000    
     14323 MEOH     874      MEOH     C1       CD33B     2.31410       11.6110           0  -1.00000       1.30000    
     14324 MEOH     874      MEOH     DC1      DRUD     -2.45410      0.400000           0   0.00000       0.00000    
     14325 MEOH     874      MEOH     O1       OD31H     2.48830       15.5990           0  -1.02800       1.30000    
     14326 MEOH     874      MEOH     DO1      DRUD     -2.48830      0.400000           0   0.00000       0.00000    
     14327 MEOH     874      MEOH     HO1      HDP1A    0.360000       1.00800           0   0.00000       0.00000    
     14328 MEOH     874      MEOH     HO2      DUMH      0.00000       1.00800           0   0.00000       0.00000    
     14329 MEOH     874      MEOH     H1A      HDA3B    0.800000E-01   1.00800           0   0.00000       0.00000    
     14330 MEOH     874      MEOH     H1B      HDA3B    0.800000E-01   1.00800           0   0.00000       0.00000    
     14331 MEOH     874      MEOH     H1C      HDA3B    0.800000E-01   1.00800           0   0.00000       0.00000    
     14332 MEOH     874      MEOH     LP1A     LPD     -0.230000       0.00000          -1   0.00000       0.00000    
     14333 MEOH     874      MEOH     LP1B     LPD     -0.230000       0.00000          -1   0.00000       0.00000    
     14334 MEOH     875      MEOH     C1       CD33B     2.31410       11.6110           0  -1.00000       1.30000    
     14335 MEOH     875      MEOH     DC1      DRUD     -2.45410      0.400000           0   0.00000       0.00000    
     14336 MEOH     875      MEOH     O1       OD31H     2.48830       15.5990           0  -1.02800       1.30000    
     14337 MEOH     875      MEOH     DO1      DRUD     -2.48830      0.400000           0   0.00000       0.00000    
     14338 MEOH     875      MEOH     HO1      HDP1A    0.360000       1.00800           0   0.00000       0.00000    
     14339 MEOH     875      MEOH     HO2      DUMH      0.00000       1.00800           0   0.00000       0.00000    
     14340 MEOH     875      MEOH     H1A      HDA3B    0.800000E-01   1.00800           0   0.00000       0.00000    
     14341 MEOH     875      MEOH     H1B      HDA3B    0.800000E-01   1.00800           0   0.00000       0.00000    
     14342 MEOH     875      MEOH     H1C      HDA3B    0.800000E-01   1.00800           0   0.00000       0.00000    
     14343 MEOH     875      MEOH     LP1A     LPD     -0.230000       0.00000          -1   0.00000       0.00000    
     14344 MEOH     875      MEOH     LP1B     LPD     -0.230000       0.00000          -1   0.00000       0.00000    
     14345 MEOH     876      MEOH     C1       CD33B     2.31410       11.6110           0  -1.00000       1.30000    
     14346 MEOH     876      MEOH     DC1      DRUD     -2.45410      0.400000           0   0.00000       0.00000    
     14347 MEOH     876      MEOH     O1       OD31H     2.48830       15.5990           0  -1.02800       1.30000    
     14348 MEOH     876      MEOH     DO1      DRUD     -2.48830      0.400000           0   0.00000       0.00000    
     14349 MEOH     876      MEOH     HO1      HDP1A    0.360000       1.00800           0   0.00000       0.00000    
     14350 MEOH     876      MEOH     HO2      DUMH      0.00000       1.00800           0   0.00000       0.00000    
     14351 MEOH     876      MEOH     H1A      HDA3B    0.800000E-01   1.00800           0   0.00000       0.00000    
     14352 MEOH     876      MEOH     H1B      HDA3B    0.800000E-01   1.00800           0   0.00000       0.00000    
     14353 MEOH     876      MEOH     H1C      HDA3B    0.800000E-01   1.00800           0   0.00000       0.00000    
     14354 MEOH     876      MEOH     LP1A     LPD     -0.230000       0.00000          -1   0.00000       0.00000    
     14355 MEOH     876      MEOH     LP1B     LPD     -0.230000       0.00000          -1   0.00000       0.00000    
     14356 MEOH     877      MEOH     C1       CD33B     2.31410       11.6110           0  -1.00000       1.30000    
     14357 MEOH     877      MEOH     DC1      DRUD     -2.45410      0.400000           0   0.00000       0.00000    
     14358 MEOH     877      MEOH     O1       OD31H     2.48830       15.5990           0  -1.02800       1.30000    
     14359 MEOH     877      MEOH     DO1      DRUD     -2.48830      0.400000           0   0.00000       0.00000    
     14360 MEOH     877      MEOH     HO1      HDP1A    0.360000       1.00800           0   0.00000       0.00000    
     14361 MEOH     877      MEOH     HO2      DUMH      0.00000       1.00800           0   0.00000       0.00000    
     14362 MEOH     877      MEOH     H1A      HDA3B    0.800000E-01   1.00800           0   0.00000       0.00000    
     14363 MEOH     877      MEOH     H1B      HDA3B    0.800000E-01   1.00800           0   0.00000       0.00000    
     14364 MEOH     877      MEOH     H1C      HDA3B    0.800000E-01   1.00800           0   0.00000       0.00000    
     14365 MEOH     877      MEOH     LP1A     LPD     -0.230000       0.00000          -1   0.00000       0.00000    
     14366 MEOH     877      MEOH     LP1B     LPD     -0.230000       0.00000          -1   0.00000       0.00000    
     14367 MEOH     878      MEOH     C1       CD33B     2.31410       11.6110           0  -1.00000       1.30000    
     14368 MEOH     878      MEOH     DC1      DRUD     -2.45410      0.400000           0   0.00000       0.00000    
     14369 MEOH     878      MEOH     O1       OD31H     2.48830       15.5990           0  -1.02800       1.30000    
     14370 MEOH     878      MEOH     DO1      DRUD     -2.48830      0.400000           0   0.00000       0.00000    
     14371 MEOH     878      MEOH     HO1      HDP1A    0.360000       1.00800           0   0.00000       0.00000    
     14372 MEOH     878      MEOH     HO2      DUMH      0.00000       1.00800           0   0.00000       0.00000    
     14373 MEOH     878      MEOH     H1A      HDA3B    0.800000E-01   1.00800           0   0.00000       0.00000    
     14374 MEOH     878      MEOH     H1B      HDA3B    0.800000E-01   1.00800           0   0.00000       0.00000    
     14375 MEOH     878      MEOH     H1C      HDA3B    0.800000E-01   1.00800           0   0.00000       0.00000    
     14376 MEOH     878      MEOH     LP1A     LPD     -0.230000       0.00000          -1   0.00000       0.00000    
     14377 MEOH     878      MEOH     LP1B     LPD     -0.230000       0.00000          -1   0.00000       0.00000    
     14378 MEOH     879      MEOH     C1       CD33B     2.31410       11.6110           0  -1.00000       1.30000    
     14379 MEOH     879      MEOH     DC1      DRUD     -2.45410      0.400000           0   0.00000       0.00000    
     14380 MEOH     879      MEOH     O1       OD31H     2.48830       15.5990           0  -1.02800       1.30000    
     14381 MEOH     879      MEOH     DO1      DRUD     -2.48830      0.400000           0   0.00000       0.00000    
     14382 MEOH     879      MEOH     HO1      HDP1A    0.360000       1.00800           0   0.00000       0.00000    
     14383 MEOH     879      MEOH     HO2      DUMH      0.00000       1.00800           0   0.00000       0.00000    
     14384 MEOH     879      MEOH     H1A      HDA3B    0.800000E-01   1.00800           0   0.00000       0.00000    
     14385 MEOH     879      MEOH     H1B      HDA3B    0.800000E-01   1.00800           0   0.00000       0.00000    
     14386 MEOH     879      MEOH     H1C      HDA3B    0.800000E-01   1.00800           0   0.00000       0.00000    
     14387 MEOH     879      MEOH     LP1A     LPD     -0.230000       0.00000          -1   0.00000       0.00000    
     14388 MEOH     879      MEOH     LP1B     LPD     -0.230000       0.00000          -1   0.00000       0.00000    
     14389 MEOH     880      MEOH     C1       CD33B     2.31410       11.6110           0  -1.00000       1.30000    
     14390 MEOH     880      MEOH     DC1      DRUD     -2.45410      0.400000           0   0.00000       0.00000    
     14391 MEOH     880      MEOH     O1       OD31H     2.48830       15.5990           0  -1.02800       1.30000    
     14392 MEOH     880      MEOH     DO1      DRUD     -2.48830      0.400000           0   0.00000       0.00000    
     14393 MEOH     880      MEOH     HO1      HDP1A    0.360000       1.00800           0   0.00000       0.00000    
     14394 MEOH     880      MEOH     HO2      DUMH      0.00000       1.00800           0   0.00000       0.00000    
     14395 MEOH     880      MEOH     H1A      HDA3B    0.800000E-01   1.00800           0   0.00000       0.00000    
     14396 MEOH     880      MEOH     H1B      HDA3B    0.800000E-01   1.00800           0   0.00000       0.00000    
     14397 MEOH     880      MEOH     H1C      HDA3B    0.800000E-01   1.00800           0   0.00000       0.00000    
     14398 MEOH     880      MEOH     LP1A     LPD     -0.230000       0.00000          -1   0.00000       0.00000    
     14399 MEOH     880      MEOH     LP1B     LPD     -0.230000       0.00000          -1   0.00000       0.00000    
     14400 MEOH     881      MEOH     C1       CD33B     2.31410       11.6110           0  -1.00000       1.30000    
     14401 MEOH     881      MEOH     DC1      DRUD     -2.45410      0.400000           0   0.00000       0.00000    
     14402 MEOH     881      MEOH     O1       OD31H     2.48830       15.5990           0  -1.02800       1.30000    
     14403 MEOH     881      MEOH     DO1      DRUD     -2.48830      0.400000           0   0.00000       0.00000    
     14404 MEOH     881      MEOH     HO1      HDP1A    0.360000       1.00800           0   0.00000       0.00000    
     14405 MEOH     881      MEOH     HO2      DUMH      0.00000       1.00800           0   0.00000       0.00000    
     14406 MEOH     881      MEOH     H1A      HDA3B    0.800000E-01   1.00800           0   0.00000       0.00000    
     14407 MEOH     881      MEOH     H1B      HDA3B    0.800000E-01   1.00800           0   0.00000       0.00000    
     14408 MEOH     881      MEOH     H1C      HDA3B    0.800000E-01   1.00800           0   0.00000       0.00000    
     14409 MEOH     881      MEOH     LP1A     LPD     -0.230000       0.00000          -1   0.00000       0.00000    
     14410 MEOH     881      MEOH     LP1B     LPD     -0.230000       0.00000          -1   0.00000       0.00000    
     14411 MEOH     882      MEOH     C1       CD33B     2.31410       11.6110           0  -1.00000       1.30000    
     14412 MEOH     882      MEOH     DC1      DRUD     -2.45410      0.400000           0   0.00000       0.00000    
     14413 MEOH     882      MEOH     O1       OD31H     2.48830       15.5990           0  -1.02800       1.30000    
     14414 MEOH     882      MEOH     DO1      DRUD     -2.48830      0.400000           0   0.00000       0.00000    
     14415 MEOH     882      MEOH     HO1      HDP1A    0.360000       1.00800           0   0.00000       0.00000    
     14416 MEOH     882      MEOH     HO2      DUMH      0.00000       1.00800           0   0.00000       0.00000    
     14417 MEOH     882      MEOH     H1A      HDA3B    0.800000E-01   1.00800           0   0.00000       0.00000    
     14418 MEOH     882      MEOH     H1B      HDA3B    0.800000E-01   1.00800           0   0.00000       0.00000    
     14419 MEOH     882      MEOH     H1C      HDA3B    0.800000E-01   1.00800           0   0.00000       0.00000    
     14420 MEOH     882      MEOH     LP1A     LPD     -0.230000       0.00000          -1   0.00000       0.00000    
     14421 MEOH     882      MEOH     LP1B     LPD     -0.230000       0.00000          -1   0.00000       0.00000    
     14422 MEOH     883      MEOH     C1       CD33B     2.31410       11.6110           0  -1.00000       1.30000    
     14423 MEOH     883      MEOH     DC1      DRUD     -2.45410      0.400000           0   0.00000       0.00000    
     14424 MEOH     883      MEOH     O1       OD31H     2.48830       15.5990           0  -1.02800       1.30000    
     14425 MEOH     883      MEOH     DO1      DRUD     -2.48830      0.400000           0   0.00000       0.00000    
     14426 MEOH     883      MEOH     HO1      HDP1A    0.360000       1.00800           0   0.00000       0.00000    
     14427 MEOH     883      MEOH     HO2      DUMH      0.00000       1.00800           0   0.00000       0.00000    
     14428 MEOH     883      MEOH     H1A      HDA3B    0.800000E-01   1.00800           0   0.00000       0.00000    
     14429 MEOH     883      MEOH     H1B      HDA3B    0.800000E-01   1.00800           0   0.00000       0.00000    
     14430 MEOH     883      MEOH     H1C      HDA3B    0.800000E-01   1.00800           0   0.00000       0.00000    
     14431 MEOH     883      MEOH     LP1A     LPD     -0.230000       0.00000          -1   0.00000       0.00000    
     14432 MEOH     883      MEOH     LP1B     LPD     -0.230000       0.00000          -1   0.00000       0.00000    
     14433 MEOH     884      MEOH     C1       CD33B     2.31410       11.6110           0  -1.00000       1.30000    
     14434 MEOH     884      MEOH     DC1      DRUD     -2.45410      0.400000           0   0.00000       0.00000    
     14435 MEOH     884      MEOH     O1       OD31H     2.48830       15.5990           0  -1.02800       1.30000    
     14436 MEOH     884      MEOH     DO1      DRUD     -2.48830      0.400000           0   0.00000       0.00000    
     14437 MEOH     884      MEOH     HO1      HDP1A    0.360000       1.00800           0   0.00000       0.00000    
     14438 MEOH     884      MEOH     HO2      DUMH      0.00000       1.00800           0   0.00000       0.00000    
     14439 MEOH     884      MEOH     H1A      HDA3B    0.800000E-01   1.00800           0   0.00000       0.00000    
     14440 MEOH     884      MEOH     H1B      HDA3B    0.800000E-01   1.00800           0   0.00000       0.00000    
     14441 MEOH     884      MEOH     H1C      HDA3B    0.800000E-01   1.00800           0   0.00000       0.00000    
     14442 MEOH     884      MEOH     LP1A     LPD     -0.230000       0.00000          -1   0.00000       0.00000    
     14443 MEOH     884      MEOH     LP1B     LPD     -0.230000       0.00000          -1   0.00000       0.00000    
     14444 MEOH     885      MEOH     C1       CD33B     2.31410       11.6110           0  -1.00000       1.30000    
     14445 MEOH     885      MEOH     DC1      DRUD     -2.45410      0.400000           0   0.00000       0.00000    
     14446 MEOH     885      MEOH     O1       OD31H     2.48830       15.5990           0  -1.02800       1.30000    
     14447 MEOH     885      MEOH     DO1      DRUD     -2.48830      0.400000           0   0.00000       0.00000    
     14448 MEOH     885      MEOH     HO1      HDP1A    0.360000       1.00800           0   0.00000       0.00000    
     14449 MEOH     885      MEOH     HO2      DUMH      0.00000       1.00800           0   0.00000       0.00000    
     14450 MEOH     885      MEOH     H1A      HDA3B    0.800000E-01   1.00800           0   0.00000       0.00000    
     14451 MEOH     885      MEOH     H1B      HDA3B    0.800000E-01   1.00800           0   0.00000       0.00000    
     14452 MEOH     885      MEOH     H1C      HDA3B    0.800000E-01   1.00800           0   0.00000       0.00000    
     14453 MEOH     885      MEOH     LP1A     LPD     -0.230000       0.00000          -1   0.00000       0.00000    
     14454 MEOH     885      MEOH     LP1B     LPD     -0.230000       0.00000          -1   0.00000       0.00000    
     14455 MEOH     886      MEOH     C1       CD33B     2.31410       11.6110           0  -1.00000       1.30000    
     14456 MEOH     886      MEOH     DC1      DRUD     -2.45410      0.400000           0   0.00000       0.00000    
     14457 MEOH     886      MEOH     O1       OD31H     2.48830       15.5990           0  -1.02800       1.30000    
     14458 MEOH     886      MEOH     DO1      DRUD     -2.48830      0.400000           0   0.00000       0.00000    
     14459 MEOH     886      MEOH     HO1      HDP1A    0.360000       1.00800           0   0.00000       0.00000    
     14460 MEOH     886      MEOH     HO2      DUMH      0.00000       1.00800           0   0.00000       0.00000    
     14461 MEOH     886      MEOH     H1A      HDA3B    0.800000E-01   1.00800           0   0.00000       0.00000    
     14462 MEOH     886      MEOH     H1B      HDA3B    0.800000E-01   1.00800           0   0.00000       0.00000    
     14463 MEOH     886      MEOH     H1C      HDA3B    0.800000E-01   1.00800           0   0.00000       0.00000    
     14464 MEOH     886      MEOH     LP1A     LPD     -0.230000       0.00000          -1   0.00000       0.00000    
     14465 MEOH     886      MEOH     LP1B     LPD     -0.230000       0.00000          -1   0.00000       0.00000    
     14466 MEOH     887      MEOH     C1       CD33B     2.31410       11.6110           0  -1.00000       1.30000    
     14467 MEOH     887      MEOH     DC1      DRUD     -2.45410      0.400000           0   0.00000       0.00000    
     14468 MEOH     887      MEOH     O1       OD31H     2.48830       15.5990           0  -1.02800       1.30000    
     14469 MEOH     887      MEOH     DO1      DRUD     -2.48830      0.400000           0   0.00000       0.00000    
     14470 MEOH     887      MEOH     HO1      HDP1A    0.360000       1.00800           0   0.00000       0.00000    
     14471 MEOH     887      MEOH     HO2      DUMH      0.00000       1.00800           0   0.00000       0.00000    
     14472 MEOH     887      MEOH     H1A      HDA3B    0.800000E-01   1.00800           0   0.00000       0.00000    
     14473 MEOH     887      MEOH     H1B      HDA3B    0.800000E-01   1.00800           0   0.00000       0.00000    
     14474 MEOH     887      MEOH     H1C      HDA3B    0.800000E-01   1.00800           0   0.00000       0.00000    
     14475 MEOH     887      MEOH     LP1A     LPD     -0.230000       0.00000          -1   0.00000       0.00000    
     14476 MEOH     887      MEOH     LP1B     LPD     -0.230000       0.00000          -1   0.00000       0.00000    
     14477 MEOH     888      MEOH     C1       CD33B     2.31410       11.6110           0  -1.00000       1.30000    
     14478 MEOH     888      MEOH     DC1      DRUD     -2.45410      0.400000           0   0.00000       0.00000    
     14479 MEOH     888      MEOH     O1       OD31H     2.48830       15.5990           0  -1.02800       1.30000    
     14480 MEOH     888      MEOH     DO1      DRUD     -2.48830      0.400000           0   0.00000       0.00000    
     14481 MEOH     888      MEOH     HO1      HDP1A    0.360000       1.00800           0   0.00000       0.00000    
     14482 MEOH     888      MEOH     HO2      DUMH      0.00000       1.00800           0   0.00000       0.00000    
     14483 MEOH     888      MEOH     H1A      HDA3B    0.800000E-01   1.00800           0   0.00000       0.00000    
     14484 MEOH     888      MEOH     H1B      HDA3B    0.800000E-01   1.00800           0   0.00000       0.00000    
     14485 MEOH     888      MEOH     H1C      HDA3B    0.800000E-01   1.00800           0   0.00000       0.00000    
     14486 MEOH     888      MEOH     LP1A     LPD     -0.230000       0.00000          -1   0.00000       0.00000    
     14487 MEOH     888      MEOH     LP1B     LPD     -0.230000       0.00000          -1   0.00000       0.00000    
     14488 MEOH     889      MEOH     C1       CD33B     2.31410       11.6110           0  -1.00000       1.30000    
     14489 MEOH     889      MEOH     DC1      DRUD     -2.45410      0.400000           0   0.00000       0.00000    
     14490 MEOH     889      MEOH     O1       OD31H     2.48830       15.5990           0  -1.02800       1.30000    
     14491 MEOH     889      MEOH     DO1      DRUD     -2.48830      0.400000           0   0.00000       0.00000    
     14492 MEOH     889      MEOH     HO1      HDP1A    0.360000       1.00800           0   0.00000       0.00000    
     14493 MEOH     889      MEOH     HO2      DUMH      0.00000       1.00800           0   0.00000       0.00000    
     14494 MEOH     889      MEOH     H1A      HDA3B    0.800000E-01   1.00800           0   0.00000       0.00000    
     14495 MEOH     889      MEOH     H1B      HDA3B    0.800000E-01   1.00800           0   0.00000       0.00000    
     14496 MEOH     889      MEOH     H1C      HDA3B    0.800000E-01   1.00800           0   0.00000       0.00000    
     14497 MEOH     889      MEOH     LP1A     LPD     -0.230000       0.00000          -1   0.00000       0.00000    
     14498 MEOH     889      MEOH     LP1B     LPD     -0.230000       0.00000          -1   0.00000       0.00000    
     14499 MEOH     890      MEOH     C1       CD33B     2.31410       11.6110           0  -1.00000       1.30000    
     14500 MEOH     890      MEOH     DC1      DRUD     -2.45410      0.400000           0   0.00000       0.00000    
     14501 MEOH     890      MEOH     O1       OD31H     2.48830       15.5990           0  -1.02800       1.30000    
     14502 MEOH     890      MEOH     DO1      DRUD     -2.48830      0.400000           0   0.00000       0.00000    
     14503 MEOH     890      MEOH     HO1      HDP1A    0.360000       1.00800           0   0.00000       0.00000    
     14504 MEOH     890      MEOH     HO2      DUMH      0.00000       1.00800           0   0.00000       0.00000    
     14505 MEOH     890      MEOH     H1A      HDA3B    0.800000E-01   1.00800           0   0.00000       0.00000    
     14506 MEOH     890      MEOH     H1B      HDA3B    0.800000E-01   1.00800           0   0.00000       0.00000    
     14507 MEOH     890      MEOH     H1C      HDA3B    0.800000E-01   1.00800           0   0.00000       0.00000    
     14508 MEOH     890      MEOH     LP1A     LPD     -0.230000       0.00000          -1   0.00000       0.00000    
     14509 MEOH     890      MEOH     LP1B     LPD     -0.230000       0.00000          -1   0.00000       0.00000    
     14510 MEOH     891      MEOH     C1       CD33B     2.31410       11.6110           0  -1.00000       1.30000    
     14511 MEOH     891      MEOH     DC1      DRUD     -2.45410      0.400000           0   0.00000       0.00000    
     14512 MEOH     891      MEOH     O1       OD31H     2.48830       15.5990           0  -1.02800       1.30000    
     14513 MEOH     891      MEOH     DO1      DRUD     -2.48830      0.400000           0   0.00000       0.00000    
     14514 MEOH     891      MEOH     HO1      HDP1A    0.360000       1.00800           0   0.00000       0.00000    
     14515 MEOH     891      MEOH     HO2      DUMH      0.00000       1.00800           0   0.00000       0.00000    
     14516 MEOH     891      MEOH     H1A      HDA3B    0.800000E-01   1.00800           0   0.00000       0.00000    
     14517 MEOH     891      MEOH     H1B      HDA3B    0.800000E-01   1.00800           0   0.00000       0.00000    
     14518 MEOH     891      MEOH     H1C      HDA3B    0.800000E-01   1.00800           0   0.00000       0.00000    
     14519 MEOH     891      MEOH     LP1A     LPD     -0.230000       0.00000          -1   0.00000       0.00000    
     14520 MEOH     891      MEOH     LP1B     LPD     -0.230000       0.00000          -1   0.00000       0.00000    
     14521 MEOH     892      MEOH     C1       CD33B     2.31410       11.6110           0  -1.00000       1.30000    
     14522 MEOH     892      MEOH     DC1      DRUD     -2.45410      0.400000           0   0.00000       0.00000    
     14523 MEOH     892      MEOH     O1       OD31H     2.48830       15.5990           0  -1.02800       1.30000    
     14524 MEOH     892      MEOH     DO1      DRUD     -2.48830      0.400000           0   0.00000       0.00000    
     14525 MEOH     892      MEOH     HO1      HDP1A    0.360000       1.00800           0   0.00000       0.00000    
     14526 MEOH     892      MEOH     HO2      DUMH      0.00000       1.00800           0   0.00000       0.00000    
     14527 MEOH     892      MEOH     H1A      HDA3B    0.800000E-01   1.00800           0   0.00000       0.00000    
     14528 MEOH     892      MEOH     H1B      HDA3B    0.800000E-01   1.00800           0   0.00000       0.00000    
     14529 MEOH     892      MEOH     H1C      HDA3B    0.800000E-01   1.00800           0   0.00000       0.00000    
     14530 MEOH     892      MEOH     LP1A     LPD     -0.230000       0.00000          -1   0.00000       0.00000    
     14531 MEOH     892      MEOH     LP1B     LPD     -0.230000       0.00000          -1   0.00000       0.00000    
     14532 MEOH     893      MEOH     C1       CD33B     2.31410       11.6110           0  -1.00000       1.30000    
     14533 MEOH     893      MEOH     DC1      DRUD     -2.45410      0.400000           0   0.00000       0.00000    
     14534 MEOH     893      MEOH     O1       OD31H     2.48830       15.5990           0  -1.02800       1.30000    
     14535 MEOH     893      MEOH     DO1      DRUD     -2.48830      0.400000           0   0.00000       0.00000    
     14536 MEOH     893      MEOH     HO1      HDP1A    0.360000       1.00800           0   0.00000       0.00000    
     14537 MEOH     893      MEOH     HO2      DUMH      0.00000       1.00800           0   0.00000       0.00000    
     14538 MEOH     893      MEOH     H1A      HDA3B    0.800000E-01   1.00800           0   0.00000       0.00000    
     14539 MEOH     893      MEOH     H1B      HDA3B    0.800000E-01   1.00800           0   0.00000       0.00000    
     14540 MEOH     893      MEOH     H1C      HDA3B    0.800000E-01   1.00800           0   0.00000       0.00000    
     14541 MEOH     893      MEOH     LP1A     LPD     -0.230000       0.00000          -1   0.00000       0.00000    
     14542 MEOH     893      MEOH     LP1B     LPD     -0.230000       0.00000          -1   0.00000       0.00000    
     14543 MEOH     894      MEOH     C1       CD33B     2.31410       11.6110           0  -1.00000       1.30000    
     14544 MEOH     894      MEOH     DC1      DRUD     -2.45410      0.400000           0   0.00000       0.00000    
     14545 MEOH     894      MEOH     O1       OD31H     2.48830       15.5990           0  -1.02800       1.30000    
     14546 MEOH     894      MEOH     DO1      DRUD     -2.48830      0.400000           0   0.00000       0.00000    
     14547 MEOH     894      MEOH     HO1      HDP1A    0.360000       1.00800           0   0.00000       0.00000    
     14548 MEOH     894      MEOH     HO2      DUMH      0.00000       1.00800           0   0.00000       0.00000    
     14549 MEOH     894      MEOH     H1A      HDA3B    0.800000E-01   1.00800           0   0.00000       0.00000    
     14550 MEOH     894      MEOH     H1B      HDA3B    0.800000E-01   1.00800           0   0.00000       0.00000    
     14551 MEOH     894      MEOH     H1C      HDA3B    0.800000E-01   1.00800           0   0.00000       0.00000    
     14552 MEOH     894      MEOH     LP1A     LPD     -0.230000       0.00000          -1   0.00000       0.00000    
     14553 MEOH     894      MEOH     LP1B     LPD     -0.230000       0.00000          -1   0.00000       0.00000    
     14554 MEOH     895      MEOH     C1       CD33B     2.31410       11.6110           0  -1.00000       1.30000    
     14555 MEOH     895      MEOH     DC1      DRUD     -2.45410      0.400000           0   0.00000       0.00000    
     14556 MEOH     895      MEOH     O1       OD31H     2.48830       15.5990           0  -1.02800       1.30000    
     14557 MEOH     895      MEOH     DO1      DRUD     -2.48830      0.400000           0   0.00000       0.00000    
     14558 MEOH     895      MEOH     HO1      HDP1A    0.360000       1.00800           0   0.00000       0.00000    
     14559 MEOH     895      MEOH     HO2      DUMH      0.00000       1.00800           0   0.00000       0.00000    
     14560 MEOH     895      MEOH     H1A      HDA3B    0.800000E-01   1.00800           0   0.00000       0.00000    
     14561 MEOH     895      MEOH     H1B      HDA3B    0.800000E-01   1.00800           0   0.00000       0.00000    
     14562 MEOH     895      MEOH     H1C      HDA3B    0.800000E-01   1.00800           0   0.00000       0.00000    
     14563 MEOH     895      MEOH     LP1A     LPD     -0.230000       0.00000          -1   0.00000       0.00000    
     14564 MEOH     895      MEOH     LP1B     LPD     -0.230000       0.00000          -1   0.00000       0.00000    
     14565 MEOH     896      MEOH     C1       CD33B     2.31410       11.6110           0  -1.00000       1.30000    
     14566 MEOH     896      MEOH     DC1      DRUD     -2.45410      0.400000           0   0.00000       0.00000    
     14567 MEOH     896      MEOH     O1       OD31H     2.48830       15.5990           0  -1.02800       1.30000    
     14568 MEOH     896      MEOH     DO1      DRUD     -2.48830      0.400000           0   0.00000       0.00000    
     14569 MEOH     896      MEOH     HO1      HDP1A    0.360000       1.00800           0   0.00000       0.00000    
     14570 MEOH     896      MEOH     HO2      DUMH      0.00000       1.00800           0   0.00000       0.00000    
     14571 MEOH     896      MEOH     H1A      HDA3B    0.800000E-01   1.00800           0   0.00000       0.00000    
     14572 MEOH     896      MEOH     H1B      HDA3B    0.800000E-01   1.00800           0   0.00000       0.00000    
     14573 MEOH     896      MEOH     H1C      HDA3B    0.800000E-01   1.00800           0   0.00000       0.00000    
     14574 MEOH     896      MEOH     LP1A     LPD     -0.230000       0.00000          -1   0.00000       0.00000    
     14575 MEOH     896      MEOH     LP1B     LPD     -0.230000       0.00000          -1   0.00000       0.00000    
     14576 MEOH     897      MEOH     C1       CD33B     2.31410       11.6110           0  -1.00000       1.30000    
     14577 MEOH     897      MEOH     DC1      DRUD     -2.45410      0.400000           0   0.00000       0.00000    
     14578 MEOH     897      MEOH     O1       OD31H     2.48830       15.5990           0  -1.02800       1.30000    
     14579 MEOH     897      MEOH     DO1      DRUD     -2.48830      0.400000           0   0.00000       0.00000    
     14580 MEOH     897      MEOH     HO1      HDP1A    0.360000       1.00800           0   0.00000       0.00000    
     14581 MEOH     897      MEOH     HO2      DUMH      0.00000       1.00800           0   0.00000       0.00000    
     14582 MEOH     897      MEOH     H1A      HDA3B    0.800000E-01   1.00800           0   0.00000       0.00000    
     14583 MEOH     897      MEOH     H1B      HDA3B    0.800000E-01   1.00800           0   0.00000       0.00000    
     14584 MEOH     897      MEOH     H1C      HDA3B    0.800000E-01   1.00800           0   0.00000       0.00000    
     14585 MEOH     897      MEOH     LP1A     LPD     -0.230000       0.00000          -1   0.00000       0.00000    
     14586 MEOH     897      MEOH     LP1B     LPD     -0.230000       0.00000          -1   0.00000       0.00000    
     14587 MEOH     898      MEOH     C1       CD33B     2.31410       11.6110           0  -1.00000       1.30000    
     14588 MEOH     898      MEOH     DC1      DRUD     -2.45410      0.400000           0   0.00000       0.00000    
     14589 MEOH     898      MEOH     O1       OD31H     2.48830       15.5990           0  -1.02800       1.30000    
     14590 MEOH     898      MEOH     DO1      DRUD     -2.48830      0.400000           0   0.00000       0.00000    
     14591 MEOH     898      MEOH     HO1      HDP1A    0.360000       1.00800           0   0.00000       0.00000    
     14592 MEOH     898      MEOH     HO2      DUMH      0.00000       1.00800           0   0.00000       0.00000    
     14593 MEOH     898      MEOH     H1A      HDA3B    0.800000E-01   1.00800           0   0.00000       0.00000    
     14594 MEOH     898      MEOH     H1B      HDA3B    0.800000E-01   1.00800           0   0.00000       0.00000    
     14595 MEOH     898      MEOH     H1C      HDA3B    0.800000E-01   1.00800           0   0.00000       0.00000    
     14596 MEOH     898      MEOH     LP1A     LPD     -0.230000       0.00000          -1   0.00000       0.00000    
     14597 MEOH     898      MEOH     LP1B     LPD     -0.230000       0.00000          -1   0.00000       0.00000    
     14598 MEOH     899      MEOH     C1       CD33B     2.31410       11.6110           0  -1.00000       1.30000    
     14599 MEOH     899      MEOH     DC1      DRUD     -2.45410      0.400000           0   0.00000       0.00000    
     14600 MEOH     899      MEOH     O1       OD31H     2.48830       15.5990           0  -1.02800       1.30000    
     14601 MEOH     899      MEOH     DO1      DRUD     -2.48830      0.400000           0   0.00000       0.00000    
     14602 MEOH     899      MEOH     HO1      HDP1A    0.360000       1.00800           0   0.00000       0.00000    
     14603 MEOH     899      MEOH     HO2      DUMH      0.00000       1.00800           0   0.00000       0.00000    
     14604 MEOH     899      MEOH     H1A      HDA3B    0.800000E-01   1.00800           0   0.00000       0.00000    
     14605 MEOH     899      MEOH     H1B      HDA3B    0.800000E-01   1.00800           0   0.00000       0.00000    
     14606 MEOH     899      MEOH     H1C      HDA3B    0.800000E-01   1.00800           0   0.00000       0.00000    
     14607 MEOH     899      MEOH     LP1A     LPD     -0.230000       0.00000          -1   0.00000       0.00000    
     14608 MEOH     899      MEOH     LP1B     LPD     -0.230000       0.00000          -1   0.00000       0.00000    
     14609 MEOH     900      MEOH     C1       CD33B     2.31410       11.6110           0  -1.00000       1.30000    
     14610 MEOH     900      MEOH     DC1      DRUD     -2.45410      0.400000           0   0.00000       0.00000    
     14611 MEOH     900      MEOH     O1       OD31H     2.48830       15.5990           0  -1.02800       1.30000    
     14612 MEOH     900      MEOH     DO1      DRUD     -2.48830      0.400000           0   0.00000       0.00000    
     14613 MEOH     900      MEOH     HO1      HDP1A    0.360000       1.00800           0   0.00000       0.00000    
     14614 MEOH     900      MEOH     HO2      DUMH      0.00000       1.00800           0   0.00000       0.00000    
     14615 MEOH     900      MEOH     H1A      HDA3B    0.800000E-01   1.00800           0   0.00000       0.00000    
     14616 MEOH     900      MEOH     H1B      HDA3B    0.800000E-01   1.00800           0   0.00000       0.00000    
     14617 MEOH     900      MEOH     H1C      HDA3B    0.800000E-01   1.00800           0   0.00000       0.00000    
     14618 MEOH     900      MEOH     LP1A     LPD     -0.230000       0.00000          -1   0.00000       0.00000    
     14619 MEOH     900      MEOH     LP1B     LPD     -0.230000       0.00000          -1   0.00000       0.00000    
     14620 MEOH     901      MEOH     C1       CD33B     2.31410       11.6110           0  -1.00000       1.30000    
     14621 MEOH     901      MEOH     DC1      DRUD     -2.45410      0.400000           0   0.00000       0.00000    
     14622 MEOH     901      MEOH     O1       OD31H     2.48830       15.5990           0  -1.02800       1.30000    
     14623 MEOH     901      MEOH     DO1      DRUD     -2.48830      0.400000           0   0.00000       0.00000    
     14624 MEOH     901      MEOH     HO1      HDP1A    0.360000       1.00800           0   0.00000       0.00000    
     14625 MEOH     901      MEOH     HO2      DUMH      0.00000       1.00800           0   0.00000       0.00000    
     14626 MEOH     901      MEOH     H1A      HDA3B    0.800000E-01   1.00800           0   0.00000       0.00000    
     14627 MEOH     901      MEOH     H1B      HDA3B    0.800000E-01   1.00800           0   0.00000       0.00000    
     14628 MEOH     901      MEOH     H1C      HDA3B    0.800000E-01   1.00800           0   0.00000       0.00000    
     14629 MEOH     901      MEOH     LP1A     LPD     -0.230000       0.00000          -1   0.00000       0.00000    
     14630 MEOH     901      MEOH     LP1B     LPD     -0.230000       0.00000          -1   0.00000       0.00000    
     14631 MEOH     902      MEOH     C1       CD33B     2.31410       11.6110           0  -1.00000       1.30000    
     14632 MEOH     902      MEOH     DC1      DRUD     -2.45410      0.400000           0   0.00000       0.00000    
     14633 MEOH     902      MEOH     O1       OD31H     2.48830       15.5990           0  -1.02800       1.30000    
     14634 MEOH     902      MEOH     DO1      DRUD     -2.48830      0.400000           0   0.00000       0.00000    
     14635 MEOH     902      MEOH     HO1      HDP1A    0.360000       1.00800           0   0.00000       0.00000    
     14636 MEOH     902      MEOH     HO2      DUMH      0.00000       1.00800           0   0.00000       0.00000    
     14637 MEOH     902      MEOH     H1A      HDA3B    0.800000E-01   1.00800           0   0.00000       0.00000    
     14638 MEOH     902      MEOH     H1B      HDA3B    0.800000E-01   1.00800           0   0.00000       0.00000    
     14639 MEOH     902      MEOH     H1C      HDA3B    0.800000E-01   1.00800           0   0.00000       0.00000    
     14640 MEOH     902      MEOH     LP1A     LPD     -0.230000       0.00000          -1   0.00000       0.00000    
     14641 MEOH     902      MEOH     LP1B     LPD     -0.230000       0.00000          -1   0.00000       0.00000    
     14642 MEOH     903      MEOH     C1       CD33B     2.31410       11.6110           0  -1.00000       1.30000    
     14643 MEOH     903      MEOH     DC1      DRUD     -2.45410      0.400000           0   0.00000       0.00000    
     14644 MEOH     903      MEOH     O1       OD31H     2.48830       15.5990           0  -1.02800       1.30000    
     14645 MEOH     903      MEOH     DO1      DRUD     -2.48830      0.400000           0   0.00000       0.00000    
     14646 MEOH     903      MEOH     HO1      HDP1A    0.360000       1.00800           0   0.00000       0.00000    
     14647 MEOH     903      MEOH     HO2      DUMH      0.00000       1.00800           0   0.00000       0.00000    
     14648 MEOH     903      MEOH     H1A      HDA3B    0.800000E-01   1.00800           0   0.00000       0.00000    
     14649 MEOH     903      MEOH     H1B      HDA3B    0.800000E-01   1.00800           0   0.00000       0.00000    
     14650 MEOH     903      MEOH     H1C      HDA3B    0.800000E-01   1.00800           0   0.00000       0.00000    
     14651 MEOH     903      MEOH     LP1A     LPD     -0.230000       0.00000          -1   0.00000       0.00000    
     14652 MEOH     903      MEOH     LP1B     LPD     -0.230000       0.00000          -1   0.00000       0.00000    
     14653 MEOH     904      MEOH     C1       CD33B     2.31410       11.6110           0  -1.00000       1.30000    
     14654 MEOH     904      MEOH     DC1      DRUD     -2.45410      0.400000           0   0.00000       0.00000    
     14655 MEOH     904      MEOH     O1       OD31H     2.48830       15.5990           0  -1.02800       1.30000    
     14656 MEOH     904      MEOH     DO1      DRUD     -2.48830      0.400000           0   0.00000       0.00000    
     14657 MEOH     904      MEOH     HO1      HDP1A    0.360000       1.00800           0   0.00000       0.00000    
     14658 MEOH     904      MEOH     HO2      DUMH      0.00000       1.00800           0   0.00000       0.00000    
     14659 MEOH     904      MEOH     H1A      HDA3B    0.800000E-01   1.00800           0   0.00000       0.00000    
     14660 MEOH     904      MEOH     H1B      HDA3B    0.800000E-01   1.00800           0   0.00000       0.00000    
     14661 MEOH     904      MEOH     H1C      HDA3B    0.800000E-01   1.00800           0   0.00000       0.00000    
     14662 MEOH     904      MEOH     LP1A     LPD     -0.230000       0.00000          -1   0.00000       0.00000    
     14663 MEOH     904      MEOH     LP1B     LPD     -0.230000       0.00000          -1   0.00000       0.00000    
     14664 MEOH     905      MEOH     C1       CD33B     2.31410       11.6110           0  -1.00000       1.30000    
     14665 MEOH     905      MEOH     DC1      DRUD     -2.45410      0.400000           0   0.00000       0.00000    
     14666 MEOH     905      MEOH     O1       OD31H     2.48830       15.5990           0  -1.02800       1.30000    
     14667 MEOH     905      MEOH     DO1      DRUD     -2.48830      0.400000           0   0.00000       0.00000    
     14668 MEOH     905      MEOH     HO1      HDP1A    0.360000       1.00800           0   0.00000       0.00000    
     14669 MEOH     905      MEOH     HO2      DUMH      0.00000       1.00800           0   0.00000       0.00000    
     14670 MEOH     905      MEOH     H1A      HDA3B    0.800000E-01   1.00800           0   0.00000       0.00000    
     14671 MEOH     905      MEOH     H1B      HDA3B    0.800000E-01   1.00800           0   0.00000       0.00000    
     14672 MEOH     905      MEOH     H1C      HDA3B    0.800000E-01   1.00800           0   0.00000       0.00000    
     14673 MEOH     905      MEOH     LP1A     LPD     -0.230000       0.00000          -1   0.00000       0.00000    
     14674 MEOH     905      MEOH     LP1B     LPD     -0.230000       0.00000          -1   0.00000       0.00000    
     14675 MEOH     906      MEOH     C1       CD33B     2.31410       11.6110           0  -1.00000       1.30000    
     14676 MEOH     906      MEOH     DC1      DRUD     -2.45410      0.400000           0   0.00000       0.00000    
     14677 MEOH     906      MEOH     O1       OD31H     2.48830       15.5990           0  -1.02800       1.30000    
     14678 MEOH     906      MEOH     DO1      DRUD     -2.48830      0.400000           0   0.00000       0.00000    
     14679 MEOH     906      MEOH     HO1      HDP1A    0.360000       1.00800           0   0.00000       0.00000    
     14680 MEOH     906      MEOH     HO2      DUMH      0.00000       1.00800           0   0.00000       0.00000    
     14681 MEOH     906      MEOH     H1A      HDA3B    0.800000E-01   1.00800           0   0.00000       0.00000    
     14682 MEOH     906      MEOH     H1B      HDA3B    0.800000E-01   1.00800           0   0.00000       0.00000    
     14683 MEOH     906      MEOH     H1C      HDA3B    0.800000E-01   1.00800           0   0.00000       0.00000    
     14684 MEOH     906      MEOH     LP1A     LPD     -0.230000       0.00000          -1   0.00000       0.00000    
     14685 MEOH     906      MEOH     LP1B     LPD     -0.230000       0.00000          -1   0.00000       0.00000    
     14686 MEOH     907      MEOH     C1       CD33B     2.31410       11.6110           0  -1.00000       1.30000    
     14687 MEOH     907      MEOH     DC1      DRUD     -2.45410      0.400000           0   0.00000       0.00000    
     14688 MEOH     907      MEOH     O1       OD31H     2.48830       15.5990           0  -1.02800       1.30000    
     14689 MEOH     907      MEOH     DO1      DRUD     -2.48830      0.400000           0   0.00000       0.00000    
     14690 MEOH     907      MEOH     HO1      HDP1A    0.360000       1.00800           0   0.00000       0.00000    
     14691 MEOH     907      MEOH     HO2      DUMH      0.00000       1.00800           0   0.00000       0.00000    
     14692 MEOH     907      MEOH     H1A      HDA3B    0.800000E-01   1.00800           0   0.00000       0.00000    
     14693 MEOH     907      MEOH     H1B      HDA3B    0.800000E-01   1.00800           0   0.00000       0.00000    
     14694 MEOH     907      MEOH     H1C      HDA3B    0.800000E-01   1.00800           0   0.00000       0.00000    
     14695 MEOH     907      MEOH     LP1A     LPD     -0.230000       0.00000          -1   0.00000       0.00000    
     14696 MEOH     907      MEOH     LP1B     LPD     -0.230000       0.00000          -1   0.00000       0.00000    
     14697 MEOH     908      MEOH     C1       CD33B     2.31410       11.6110           0  -1.00000       1.30000    
     14698 MEOH     908      MEOH     DC1      DRUD     -2.45410      0.400000           0   0.00000       0.00000    
     14699 MEOH     908      MEOH     O1       OD31H     2.48830       15.5990           0  -1.02800       1.30000    
     14700 MEOH     908      MEOH     DO1      DRUD     -2.48830      0.400000           0   0.00000       0.00000    
     14701 MEOH     908      MEOH     HO1      HDP1A    0.360000       1.00800           0   0.00000       0.00000    
     14702 MEOH     908      MEOH     HO2      DUMH      0.00000       1.00800           0   0.00000       0.00000    
     14703 MEOH     908      MEOH     H1A      HDA3B    0.800000E-01   1.00800           0   0.00000       0.00000    
     14704 MEOH     908      MEOH     H1B      HDA3B    0.800000E-01   1.00800           0   0.00000       0.00000    
     14705 MEOH     908      MEOH     H1C      HDA3B    0.800000E-01   1.00800           0   0.00000       0.00000    
     14706 MEOH     908      MEOH     LP1A     LPD     -0.230000       0.00000          -1   0.00000       0.00000    
     14707 MEOH     908      MEOH     LP1B     LPD     -0.230000       0.00000          -1   0.00000       0.00000    
     14708 MEOH     909      MEOH     C1       CD33B     2.31410       11.6110           0  -1.00000       1.30000    
     14709 MEOH     909      MEOH     DC1      DRUD     -2.45410      0.400000           0   0.00000       0.00000    
     14710 MEOH     909      MEOH     O1       OD31H     2.48830       15.5990           0  -1.02800       1.30000    
     14711 MEOH     909      MEOH     DO1      DRUD     -2.48830      0.400000           0   0.00000       0.00000    
     14712 MEOH     909      MEOH     HO1      HDP1A    0.360000       1.00800           0   0.00000       0.00000    
     14713 MEOH     909      MEOH     HO2      DUMH      0.00000       1.00800           0   0.00000       0.00000    
     14714 MEOH     909      MEOH     H1A      HDA3B    0.800000E-01   1.00800           0   0.00000       0.00000    
     14715 MEOH     909      MEOH     H1B      HDA3B    0.800000E-01   1.00800           0   0.00000       0.00000    
     14716 MEOH     909      MEOH     H1C      HDA3B    0.800000E-01   1.00800           0   0.00000       0.00000    
     14717 MEOH     909      MEOH     LP1A     LPD     -0.230000       0.00000          -1   0.00000       0.00000    
     14718 MEOH     909      MEOH     LP1B     LPD     -0.230000       0.00000          -1   0.00000       0.00000    
     14719 MEOH     910      MEOH     C1       CD33B     2.31410       11.6110           0  -1.00000       1.30000    
     14720 MEOH     910      MEOH     DC1      DRUD     -2.45410      0.400000           0   0.00000       0.00000    
     14721 MEOH     910      MEOH     O1       OD31H     2.48830       15.5990           0  -1.02800       1.30000    
     14722 MEOH     910      MEOH     DO1      DRUD     -2.48830      0.400000           0   0.00000       0.00000    
     14723 MEOH     910      MEOH     HO1      HDP1A    0.360000       1.00800           0   0.00000       0.00000    
     14724 MEOH     910      MEOH     HO2      DUMH      0.00000       1.00800           0   0.00000       0.00000    
     14725 MEOH     910      MEOH     H1A      HDA3B    0.800000E-01   1.00800           0   0.00000       0.00000    
     14726 MEOH     910      MEOH     H1B      HDA3B    0.800000E-01   1.00800           0   0.00000       0.00000    
     14727 MEOH     910      MEOH     H1C      HDA3B    0.800000E-01   1.00800           0   0.00000       0.00000    
     14728 MEOH     910      MEOH     LP1A     LPD     -0.230000       0.00000          -1   0.00000       0.00000    
     14729 MEOH     910      MEOH     LP1B     LPD     -0.230000       0.00000          -1   0.00000       0.00000    
     14730 MEOH     911      MEOH     C1       CD33B     2.31410       11.6110           0  -1.00000       1.30000    
     14731 MEOH     911      MEOH     DC1      DRUD     -2.45410      0.400000           0   0.00000       0.00000    
     14732 MEOH     911      MEOH     O1       OD31H     2.48830       15.5990           0  -1.02800       1.30000    
     14733 MEOH     911      MEOH     DO1      DRUD     -2.48830      0.400000           0   0.00000       0.00000    
     14734 MEOH     911      MEOH     HO1      HDP1A    0.360000       1.00800           0   0.00000       0.00000    
     14735 MEOH     911      MEOH     HO2      DUMH      0.00000       1.00800           0   0.00000       0.00000    
     14736 MEOH     911      MEOH     H1A      HDA3B    0.800000E-01   1.00800           0   0.00000       0.00000    
     14737 MEOH     911      MEOH     H1B      HDA3B    0.800000E-01   1.00800           0   0.00000       0.00000    
     14738 MEOH     911      MEOH     H1C      HDA3B    0.800000E-01   1.00800           0   0.00000       0.00000    
     14739 MEOH     911      MEOH     LP1A     LPD     -0.230000       0.00000          -1   0.00000       0.00000    
     14740 MEOH     911      MEOH     LP1B     LPD     -0.230000       0.00000          -1   0.00000       0.00000    
     14741 MEOH     912      MEOH     C1       CD33B     2.31410       11.6110           0  -1.00000       1.30000    
     14742 MEOH     912      MEOH     DC1      DRUD     -2.45410      0.400000           0   0.00000       0.00000    
     14743 MEOH     912      MEOH     O1       OD31H     2.48830       15.5990           0  -1.02800       1.30000    
     14744 MEOH     912      MEOH     DO1      DRUD     -2.48830      0.400000           0   0.00000       0.00000    
     14745 MEOH     912      MEOH     HO1      HDP1A    0.360000       1.00800           0   0.00000       0.00000    
     14746 MEOH     912      MEOH     HO2      DUMH      0.00000       1.00800           0   0.00000       0.00000    
     14747 MEOH     912      MEOH     H1A      HDA3B    0.800000E-01   1.00800           0   0.00000       0.00000    
     14748 MEOH     912      MEOH     H1B      HDA3B    0.800000E-01   1.00800           0   0.00000       0.00000    
     14749 MEOH     912      MEOH     H1C      HDA3B    0.800000E-01   1.00800           0   0.00000       0.00000    
     14750 MEOH     912      MEOH     LP1A     LPD     -0.230000       0.00000          -1   0.00000       0.00000    
     14751 MEOH     912      MEOH     LP1B     LPD     -0.230000       0.00000          -1   0.00000       0.00000    
     14752 MEOH     913      MEOH     C1       CD33B     2.31410       11.6110           0  -1.00000       1.30000    
     14753 MEOH     913      MEOH     DC1      DRUD     -2.45410      0.400000           0   0.00000       0.00000    
     14754 MEOH     913      MEOH     O1       OD31H     2.48830       15.5990           0  -1.02800       1.30000    
     14755 MEOH     913      MEOH     DO1      DRUD     -2.48830      0.400000           0   0.00000       0.00000    
     14756 MEOH     913      MEOH     HO1      HDP1A    0.360000       1.00800           0   0.00000       0.00000    
     14757 MEOH     913      MEOH     HO2      DUMH      0.00000       1.00800           0   0.00000       0.00000    
     14758 MEOH     913      MEOH     H1A      HDA3B    0.800000E-01   1.00800           0   0.00000       0.00000    
     14759 MEOH     913      MEOH     H1B      HDA3B    0.800000E-01   1.00800           0   0.00000       0.00000    
     14760 MEOH     913      MEOH     H1C      HDA3B    0.800000E-01   1.00800           0   0.00000       0.00000    
     14761 MEOH     913      MEOH     LP1A     LPD     -0.230000       0.00000          -1   0.00000       0.00000    
     14762 MEOH     913      MEOH     LP1B     LPD     -0.230000       0.00000          -1   0.00000       0.00000    
     14763 MEOH     914      MEOH     C1       CD33B     2.31410       11.6110           0  -1.00000       1.30000    
     14764 MEOH     914      MEOH     DC1      DRUD     -2.45410      0.400000           0   0.00000       0.00000    
     14765 MEOH     914      MEOH     O1       OD31H     2.48830       15.5990           0  -1.02800       1.30000    
     14766 MEOH     914      MEOH     DO1      DRUD     -2.48830      0.400000           0   0.00000       0.00000    
     14767 MEOH     914      MEOH     HO1      HDP1A    0.360000       1.00800           0   0.00000       0.00000    
     14768 MEOH     914      MEOH     HO2      DUMH      0.00000       1.00800           0   0.00000       0.00000    
     14769 MEOH     914      MEOH     H1A      HDA3B    0.800000E-01   1.00800           0   0.00000       0.00000    
     14770 MEOH     914      MEOH     H1B      HDA3B    0.800000E-01   1.00800           0   0.00000       0.00000    
     14771 MEOH     914      MEOH     H1C      HDA3B    0.800000E-01   1.00800           0   0.00000       0.00000    
     14772 MEOH     914      MEOH     LP1A     LPD     -0.230000       0.00000          -1   0.00000       0.00000    
     14773 MEOH     914      MEOH     LP1B     LPD     -0.230000       0.00000          -1   0.00000       0.00000    
     14774 MEOH     915      MEOH     C1       CD33B     2.31410       11.6110           0  -1.00000       1.30000    
     14775 MEOH     915      MEOH     DC1      DRUD     -2.45410      0.400000           0   0.00000       0.00000    
     14776 MEOH     915      MEOH     O1       OD31H     2.48830       15.5990           0  -1.02800       1.30000    
     14777 MEOH     915      MEOH     DO1      DRUD     -2.48830      0.400000           0   0.00000       0.00000    
     14778 MEOH     915      MEOH     HO1      HDP1A    0.360000       1.00800           0   0.00000       0.00000    
     14779 MEOH     915      MEOH     HO2      DUMH      0.00000       1.00800           0   0.00000       0.00000    
     14780 MEOH     915      MEOH     H1A      HDA3B    0.800000E-01   1.00800           0   0.00000       0.00000    
     14781 MEOH     915      MEOH     H1B      HDA3B    0.800000E-01   1.00800           0   0.00000       0.00000    
     14782 MEOH     915      MEOH     H1C      HDA3B    0.800000E-01   1.00800           0   0.00000       0.00000    
     14783 MEOH     915      MEOH     LP1A     LPD     -0.230000       0.00000          -1   0.00000       0.00000    
     14784 MEOH     915      MEOH     LP1B     LPD     -0.230000       0.00000          -1   0.00000       0.00000    
     14785 MEOH     916      MEOH     C1       CD33B     2.31410       11.6110           0  -1.00000       1.30000    
     14786 MEOH     916      MEOH     DC1      DRUD     -2.45410      0.400000           0   0.00000       0.00000    
     14787 MEOH     916      MEOH     O1       OD31H     2.48830       15.5990           0  -1.02800       1.30000    
     14788 MEOH     916      MEOH     DO1      DRUD     -2.48830      0.400000           0   0.00000       0.00000    
     14789 MEOH     916      MEOH     HO1      HDP1A    0.360000       1.00800           0   0.00000       0.00000    
     14790 MEOH     916      MEOH     HO2      DUMH      0.00000       1.00800           0   0.00000       0.00000    
     14791 MEOH     916      MEOH     H1A      HDA3B    0.800000E-01   1.00800           0   0.00000       0.00000    
     14792 MEOH     916      MEOH     H1B      HDA3B    0.800000E-01   1.00800           0   0.00000       0.00000    
     14793 MEOH     916      MEOH     H1C      HDA3B    0.800000E-01   1.00800           0   0.00000       0.00000    
     14794 MEOH     916      MEOH     LP1A     LPD     -0.230000       0.00000          -1   0.00000       0.00000    
     14795 MEOH     916      MEOH     LP1B     LPD     -0.230000       0.00000          -1   0.00000       0.00000    
     14796 MEOH     917      MEOH     C1       CD33B     2.31410       11.6110           0  -1.00000       1.30000    
     14797 MEOH     917      MEOH     DC1      DRUD     -2.45410      0.400000           0   0.00000       0.00000    
     14798 MEOH     917      MEOH     O1       OD31H     2.48830       15.5990           0  -1.02800       1.30000    
     14799 MEOH     917      MEOH     DO1      DRUD     -2.48830      0.400000           0   0.00000       0.00000    
     14800 MEOH     917      MEOH     HO1      HDP1A    0.360000       1.00800           0   0.00000       0.00000    
     14801 MEOH     917      MEOH     HO2      DUMH      0.00000       1.00800           0   0.00000       0.00000    
     14802 MEOH     917      MEOH     H1A      HDA3B    0.800000E-01   1.00800           0   0.00000       0.00000    
     14803 MEOH     917      MEOH     H1B      HDA3B    0.800000E-01   1.00800           0   0.00000       0.00000    
     14804 MEOH     917      MEOH     H1C      HDA3B    0.800000E-01   1.00800           0   0.00000       0.00000    
     14805 MEOH     917      MEOH     LP1A     LPD     -0.230000       0.00000          -1   0.00000       0.00000    
     14806 MEOH     917      MEOH     LP1B     LPD     -0.230000       0.00000          -1   0.00000       0.00000    
     14807 MEOH     918      MEOH     C1       CD33B     2.31410       11.6110           0  -1.00000       1.30000    
     14808 MEOH     918      MEOH     DC1      DRUD     -2.45410      0.400000           0   0.00000       0.00000    
     14809 MEOH     918      MEOH     O1       OD31H     2.48830       15.5990           0  -1.02800       1.30000    
     14810 MEOH     918      MEOH     DO1      DRUD     -2.48830      0.400000           0   0.00000       0.00000    
     14811 MEOH     918      MEOH     HO1      HDP1A    0.360000       1.00800           0   0.00000       0.00000    
     14812 MEOH     918      MEOH     HO2      DUMH      0.00000       1.00800           0   0.00000       0.00000    
     14813 MEOH     918      MEOH     H1A      HDA3B    0.800000E-01   1.00800           0   0.00000       0.00000    
     14814 MEOH     918      MEOH     H1B      HDA3B    0.800000E-01   1.00800           0   0.00000       0.00000    
     14815 MEOH     918      MEOH     H1C      HDA3B    0.800000E-01   1.00800           0   0.00000       0.00000    
     14816 MEOH     918      MEOH     LP1A     LPD     -0.230000       0.00000          -1   0.00000       0.00000    
     14817 MEOH     918      MEOH     LP1B     LPD     -0.230000       0.00000          -1   0.00000       0.00000    
     14818 MEOH     919      MEOH     C1       CD33B     2.31410       11.6110           0  -1.00000       1.30000    
     14819 MEOH     919      MEOH     DC1      DRUD     -2.45410      0.400000           0   0.00000       0.00000    
     14820 MEOH     919      MEOH     O1       OD31H     2.48830       15.5990           0  -1.02800       1.30000    
     14821 MEOH     919      MEOH     DO1      DRUD     -2.48830      0.400000           0   0.00000       0.00000    
     14822 MEOH     919      MEOH     HO1      HDP1A    0.360000       1.00800           0   0.00000       0.00000    
     14823 MEOH     919      MEOH     HO2      DUMH      0.00000       1.00800           0   0.00000       0.00000    
     14824 MEOH     919      MEOH     H1A      HDA3B    0.800000E-01   1.00800           0   0.00000       0.00000    
     14825 MEOH     919      MEOH     H1B      HDA3B    0.800000E-01   1.00800           0   0.00000       0.00000    
     14826 MEOH     919      MEOH     H1C      HDA3B    0.800000E-01   1.00800           0   0.00000       0.00000    
     14827 MEOH     919      MEOH     LP1A     LPD     -0.230000       0.00000          -1   0.00000       0.00000    
     14828 MEOH     919      MEOH     LP1B     LPD     -0.230000       0.00000          -1   0.00000       0.00000    
     14829 MEOH     920      MEOH     C1       CD33B     2.31410       11.6110           0  -1.00000       1.30000    
     14830 MEOH     920      MEOH     DC1      DRUD     -2.45410      0.400000           0   0.00000       0.00000    
     14831 MEOH     920      MEOH     O1       OD31H     2.48830       15.5990           0  -1.02800       1.30000    
     14832 MEOH     920      MEOH     DO1      DRUD     -2.48830      0.400000           0   0.00000       0.00000    
     14833 MEOH     920      MEOH     HO1      HDP1A    0.360000       1.00800           0   0.00000       0.00000    
     14834 MEOH     920      MEOH     HO2      DUMH      0.00000       1.00800           0   0.00000       0.00000    
     14835 MEOH     920      MEOH     H1A      HDA3B    0.800000E-01   1.00800           0   0.00000       0.00000    
     14836 MEOH     920      MEOH     H1B      HDA3B    0.800000E-01   1.00800           0   0.00000       0.00000    
     14837 MEOH     920      MEOH     H1C      HDA3B    0.800000E-01   1.00800           0   0.00000       0.00000    
     14838 MEOH     920      MEOH     LP1A     LPD     -0.230000       0.00000          -1   0.00000       0.00000    
     14839 MEOH     920      MEOH     LP1B     LPD     -0.230000       0.00000          -1   0.00000       0.00000    
     14840 MEOH     921      MEOH     C1       CD33B     2.31410       11.6110           0  -1.00000       1.30000    
     14841 MEOH     921      MEOH     DC1      DRUD     -2.45410      0.400000           0   0.00000       0.00000    
     14842 MEOH     921      MEOH     O1       OD31H     2.48830       15.5990           0  -1.02800       1.30000    
     14843 MEOH     921      MEOH     DO1      DRUD     -2.48830      0.400000           0   0.00000       0.00000    
     14844 MEOH     921      MEOH     HO1      HDP1A    0.360000       1.00800           0   0.00000       0.00000    
     14845 MEOH     921      MEOH     HO2      DUMH      0.00000       1.00800           0   0.00000       0.00000    
     14846 MEOH     921      MEOH     H1A      HDA3B    0.800000E-01   1.00800           0   0.00000       0.00000    
     14847 MEOH     921      MEOH     H1B      HDA3B    0.800000E-01   1.00800           0   0.00000       0.00000    
     14848 MEOH     921      MEOH     H1C      HDA3B    0.800000E-01   1.00800           0   0.00000       0.00000    
     14849 MEOH     921      MEOH     LP1A     LPD     -0.230000       0.00000          -1   0.00000       0.00000    
     14850 MEOH     921      MEOH     LP1B     LPD     -0.230000       0.00000          -1   0.00000       0.00000    
     14851 MEOH     922      MEOH     C1       CD33B     2.31410       11.6110           0  -1.00000       1.30000    
     14852 MEOH     922      MEOH     DC1      DRUD     -2.45410      0.400000           0   0.00000       0.00000    
     14853 MEOH     922      MEOH     O1       OD31H     2.48830       15.5990           0  -1.02800       1.30000    
     14854 MEOH     922      MEOH     DO1      DRUD     -2.48830      0.400000           0   0.00000       0.00000    
     14855 MEOH     922      MEOH     HO1      HDP1A    0.360000       1.00800           0   0.00000       0.00000    
     14856 MEOH     922      MEOH     HO2      DUMH      0.00000       1.00800           0   0.00000       0.00000    
     14857 MEOH     922      MEOH     H1A      HDA3B    0.800000E-01   1.00800           0   0.00000       0.00000    
     14858 MEOH     922      MEOH     H1B      HDA3B    0.800000E-01   1.00800           0   0.00000       0.00000    
     14859 MEOH     922      MEOH     H1C      HDA3B    0.800000E-01   1.00800           0   0.00000       0.00000    
     14860 MEOH     922      MEOH     LP1A     LPD     -0.230000       0.00000          -1   0.00000       0.00000    
     14861 MEOH     922      MEOH     LP1B     LPD     -0.230000       0.00000          -1   0.00000       0.00000    
     14862 MEOH     923      MEOH     C1       CD33B     2.31410       11.6110           0  -1.00000       1.30000    
     14863 MEOH     923      MEOH     DC1      DRUD     -2.45410      0.400000           0   0.00000       0.00000    
     14864 MEOH     923      MEOH     O1       OD31H     2.48830       15.5990           0  -1.02800       1.30000    
     14865 MEOH     923      MEOH     DO1      DRUD     -2.48830      0.400000           0   0.00000       0.00000    
     14866 MEOH     923      MEOH     HO1      HDP1A    0.360000       1.00800           0   0.00000       0.00000    
     14867 MEOH     923      MEOH     HO2      DUMH      0.00000       1.00800           0   0.00000       0.00000    
     14868 MEOH     923      MEOH     H1A      HDA3B    0.800000E-01   1.00800           0   0.00000       0.00000    
     14869 MEOH     923      MEOH     H1B      HDA3B    0.800000E-01   1.00800           0   0.00000       0.00000    
     14870 MEOH     923      MEOH     H1C      HDA3B    0.800000E-01   1.00800           0   0.00000       0.00000    
     14871 MEOH     923      MEOH     LP1A     LPD     -0.230000       0.00000          -1   0.00000       0.00000    
     14872 MEOH     923      MEOH     LP1B     LPD     -0.230000       0.00000          -1   0.00000       0.00000    
     14873 MEOH     924      MEOH     C1       CD33B     2.31410       11.6110           0  -1.00000       1.30000    
     14874 MEOH     924      MEOH     DC1      DRUD     -2.45410      0.400000           0   0.00000       0.00000    
     14875 MEOH     924      MEOH     O1       OD31H     2.48830       15.5990           0  -1.02800       1.30000    
     14876 MEOH     924      MEOH     DO1      DRUD     -2.48830      0.400000           0   0.00000       0.00000    
     14877 MEOH     924      MEOH     HO1      HDP1A    0.360000       1.00800           0   0.00000       0.00000    
     14878 MEOH     924      MEOH     HO2      DUMH      0.00000       1.00800           0   0.00000       0.00000    
     14879 MEOH     924      MEOH     H1A      HDA3B    0.800000E-01   1.00800           0   0.00000       0.00000    
     14880 MEOH     924      MEOH     H1B      HDA3B    0.800000E-01   1.00800           0   0.00000       0.00000    
     14881 MEOH     924      MEOH     H1C      HDA3B    0.800000E-01   1.00800           0   0.00000       0.00000    
     14882 MEOH     924      MEOH     LP1A     LPD     -0.230000       0.00000          -1   0.00000       0.00000    
     14883 MEOH     924      MEOH     LP1B     LPD     -0.230000       0.00000          -1   0.00000       0.00000    
     14884 MEOH     925      MEOH     C1       CD33B     2.31410       11.6110           0  -1.00000       1.30000    
     14885 MEOH     925      MEOH     DC1      DRUD     -2.45410      0.400000           0   0.00000       0.00000    
     14886 MEOH     925      MEOH     O1       OD31H     2.48830       15.5990           0  -1.02800       1.30000    
     14887 MEOH     925      MEOH     DO1      DRUD     -2.48830      0.400000           0   0.00000       0.00000    
     14888 MEOH     925      MEOH     HO1      HDP1A    0.360000       1.00800           0   0.00000       0.00000    
     14889 MEOH     925      MEOH     HO2      DUMH      0.00000       1.00800           0   0.00000       0.00000    
     14890 MEOH     925      MEOH     H1A      HDA3B    0.800000E-01   1.00800           0   0.00000       0.00000    
     14891 MEOH     925      MEOH     H1B      HDA3B    0.800000E-01   1.00800           0   0.00000       0.00000    
     14892 MEOH     925      MEOH     H1C      HDA3B    0.800000E-01   1.00800           0   0.00000       0.00000    
     14893 MEOH     925      MEOH     LP1A     LPD     -0.230000       0.00000          -1   0.00000       0.00000    
     14894 MEOH     925      MEOH     LP1B     LPD     -0.230000       0.00000          -1   0.00000       0.00000    
     14895 MEOH     926      MEOH     C1       CD33B     2.31410       11.6110           0  -1.00000       1.30000    
     14896 MEOH     926      MEOH     DC1      DRUD     -2.45410      0.400000           0   0.00000       0.00000    
     14897 MEOH     926      MEOH     O1       OD31H     2.48830       15.5990           0  -1.02800       1.30000    
     14898 MEOH     926      MEOH     DO1      DRUD     -2.48830      0.400000           0   0.00000       0.00000    
     14899 MEOH     926      MEOH     HO1      HDP1A    0.360000       1.00800           0   0.00000       0.00000    
     14900 MEOH     926      MEOH     HO2      DUMH      0.00000       1.00800           0   0.00000       0.00000    
     14901 MEOH     926      MEOH     H1A      HDA3B    0.800000E-01   1.00800           0   0.00000       0.00000    
     14902 MEOH     926      MEOH     H1B      HDA3B    0.800000E-01   1.00800           0   0.00000       0.00000    
     14903 MEOH     926      MEOH     H1C      HDA3B    0.800000E-01   1.00800           0   0.00000       0.00000    
     14904 MEOH     926      MEOH     LP1A     LPD     -0.230000       0.00000          -1   0.00000       0.00000    
     14905 MEOH     926      MEOH     LP1B     LPD     -0.230000       0.00000          -1   0.00000       0.00000    
     14906 MEOH     927      MEOH     C1       CD33B     2.31410       11.6110           0  -1.00000       1.30000    
     14907 MEOH     927      MEOH     DC1      DRUD     -2.45410      0.400000           0   0.00000       0.00000    
     14908 MEOH     927      MEOH     O1       OD31H     2.48830       15.5990           0  -1.02800       1.30000    
     14909 MEOH     927      MEOH     DO1      DRUD     -2.48830      0.400000           0   0.00000       0.00000    
     14910 MEOH     927      MEOH     HO1      HDP1A    0.360000       1.00800           0   0.00000       0.00000    
     14911 MEOH     927      MEOH     HO2      DUMH      0.00000       1.00800           0   0.00000       0.00000    
     14912 MEOH     927      MEOH     H1A      HDA3B    0.800000E-01   1.00800           0   0.00000       0.00000    
     14913 MEOH     927      MEOH     H1B      HDA3B    0.800000E-01   1.00800           0   0.00000       0.00000    
     14914 MEOH     927      MEOH     H1C      HDA3B    0.800000E-01   1.00800           0   0.00000       0.00000    
     14915 MEOH     927      MEOH     LP1A     LPD     -0.230000       0.00000          -1   0.00000       0.00000    
     14916 MEOH     927      MEOH     LP1B     LPD     -0.230000       0.00000          -1   0.00000       0.00000    
     14917 MEOH     928      MEOH     C1       CD33B     2.31410       11.6110           0  -1.00000       1.30000    
     14918 MEOH     928      MEOH     DC1      DRUD     -2.45410      0.400000           0   0.00000       0.00000    
     14919 MEOH     928      MEOH     O1       OD31H     2.48830       15.5990           0  -1.02800       1.30000    
     14920 MEOH     928      MEOH     DO1      DRUD     -2.48830      0.400000           0   0.00000       0.00000    
     14921 MEOH     928      MEOH     HO1      HDP1A    0.360000       1.00800           0   0.00000       0.00000    
     14922 MEOH     928      MEOH     HO2      DUMH      0.00000       1.00800           0   0.00000       0.00000    
     14923 MEOH     928      MEOH     H1A      HDA3B    0.800000E-01   1.00800           0   0.00000       0.00000    
     14924 MEOH     928      MEOH     H1B      HDA3B    0.800000E-01   1.00800           0   0.00000       0.00000    
     14925 MEOH     928      MEOH     H1C      HDA3B    0.800000E-01   1.00800           0   0.00000       0.00000    
     14926 MEOH     928      MEOH     LP1A     LPD     -0.230000       0.00000          -1   0.00000       0.00000    
     14927 MEOH     928      MEOH     LP1B     LPD     -0.230000       0.00000          -1   0.00000       0.00000    
     14928 MEOH     929      MEOH     C1       CD33B     2.31410       11.6110           0  -1.00000       1.30000    
     14929 MEOH     929      MEOH     DC1      DRUD     -2.45410      0.400000           0   0.00000       0.00000    
     14930 MEOH     929      MEOH     O1       OD31H     2.48830       15.5990           0  -1.02800       1.30000    
     14931 MEOH     929      MEOH     DO1      DRUD     -2.48830      0.400000           0   0.00000       0.00000    
     14932 MEOH     929      MEOH     HO1      HDP1A    0.360000       1.00800           0   0.00000       0.00000    
     14933 MEOH     929      MEOH     HO2      DUMH      0.00000       1.00800           0   0.00000       0.00000    
     14934 MEOH     929      MEOH     H1A      HDA3B    0.800000E-01   1.00800           0   0.00000       0.00000    
     14935 MEOH     929      MEOH     H1B      HDA3B    0.800000E-01   1.00800           0   0.00000       0.00000    
     14936 MEOH     929      MEOH     H1C      HDA3B    0.800000E-01   1.00800           0   0.00000       0.00000    
     14937 MEOH     929      MEOH     LP1A     LPD     -0.230000       0.00000          -1   0.00000       0.00000    
     14938 MEOH     929      MEOH     LP1B     LPD     -0.230000       0.00000          -1   0.00000       0.00000    
     14939 MEOH     930      MEOH     C1       CD33B     2.31410       11.6110           0  -1.00000       1.30000    
     14940 MEOH     930      MEOH     DC1      DRUD     -2.45410      0.400000           0   0.00000       0.00000    
     14941 MEOH     930      MEOH     O1       OD31H     2.48830       15.5990           0  -1.02800       1.30000    
     14942 MEOH     930      MEOH     DO1      DRUD     -2.48830      0.400000           0   0.00000       0.00000    
     14943 MEOH     930      MEOH     HO1      HDP1A    0.360000       1.00800           0   0.00000       0.00000    
     14944 MEOH     930      MEOH     HO2      DUMH      0.00000       1.00800           0   0.00000       0.00000    
     14945 MEOH     930      MEOH     H1A      HDA3B    0.800000E-01   1.00800           0   0.00000       0.00000    
     14946 MEOH     930      MEOH     H1B      HDA3B    0.800000E-01   1.00800           0   0.00000       0.00000    
     14947 MEOH     930      MEOH     H1C      HDA3B    0.800000E-01   1.00800           0   0.00000       0.00000    
     14948 MEOH     930      MEOH     LP1A     LPD     -0.230000       0.00000          -1   0.00000       0.00000    
     14949 MEOH     930      MEOH     LP1B     LPD     -0.230000       0.00000          -1   0.00000       0.00000    
     14950 MEOH     931      MEOH     C1       CD33B     2.31410       11.6110           0  -1.00000       1.30000    
     14951 MEOH     931      MEOH     DC1      DRUD     -2.45410      0.400000           0   0.00000       0.00000    
     14952 MEOH     931      MEOH     O1       OD31H     2.48830       15.5990           0  -1.02800       1.30000    
     14953 MEOH     931      MEOH     DO1      DRUD     -2.48830      0.400000           0   0.00000       0.00000    
     14954 MEOH     931      MEOH     HO1      HDP1A    0.360000       1.00800           0   0.00000       0.00000    
     14955 MEOH     931      MEOH     HO2      DUMH      0.00000       1.00800           0   0.00000       0.00000    
     14956 MEOH     931      MEOH     H1A      HDA3B    0.800000E-01   1.00800           0   0.00000       0.00000    
     14957 MEOH     931      MEOH     H1B      HDA3B    0.800000E-01   1.00800           0   0.00000       0.00000    
     14958 MEOH     931      MEOH     H1C      HDA3B    0.800000E-01   1.00800           0   0.00000       0.00000    
     14959 MEOH     931      MEOH     LP1A     LPD     -0.230000       0.00000          -1   0.00000       0.00000    
     14960 MEOH     931      MEOH     LP1B     LPD     -0.230000       0.00000          -1   0.00000       0.00000    
     14961 MEOH     932      MEOH     C1       CD33B     2.31410       11.6110           0  -1.00000       1.30000    
     14962 MEOH     932      MEOH     DC1      DRUD     -2.45410      0.400000           0   0.00000       0.00000    
     14963 MEOH     932      MEOH     O1       OD31H     2.48830       15.5990           0  -1.02800       1.30000    
     14964 MEOH     932      MEOH     DO1      DRUD     -2.48830      0.400000           0   0.00000       0.00000    
     14965 MEOH     932      MEOH     HO1      HDP1A    0.360000       1.00800           0   0.00000       0.00000    
     14966 MEOH     932      MEOH     HO2      DUMH      0.00000       1.00800           0   0.00000       0.00000    
     14967 MEOH     932      MEOH     H1A      HDA3B    0.800000E-01   1.00800           0   0.00000       0.00000    
     14968 MEOH     932      MEOH     H1B      HDA3B    0.800000E-01   1.00800           0   0.00000       0.00000    
     14969 MEOH     932      MEOH     H1C      HDA3B    0.800000E-01   1.00800           0   0.00000       0.00000    
     14970 MEOH     932      MEOH     LP1A     LPD     -0.230000       0.00000          -1   0.00000       0.00000    
     14971 MEOH     932      MEOH     LP1B     LPD     -0.230000       0.00000          -1   0.00000       0.00000    
     14972 MEOH     933      MEOH     C1       CD33B     2.31410       11.6110           0  -1.00000       1.30000    
     14973 MEOH     933      MEOH     DC1      DRUD     -2.45410      0.400000           0   0.00000       0.00000    
     14974 MEOH     933      MEOH     O1       OD31H     2.48830       15.5990           0  -1.02800       1.30000    
     14975 MEOH     933      MEOH     DO1      DRUD     -2.48830      0.400000           0   0.00000       0.00000    
     14976 MEOH     933      MEOH     HO1      HDP1A    0.360000       1.00800           0   0.00000       0.00000    
     14977 MEOH     933      MEOH     HO2      DUMH      0.00000       1.00800           0   0.00000       0.00000    
     14978 MEOH     933      MEOH     H1A      HDA3B    0.800000E-01   1.00800           0   0.00000       0.00000    
     14979 MEOH     933      MEOH     H1B      HDA3B    0.800000E-01   1.00800           0   0.00000       0.00000    
     14980 MEOH     933      MEOH     H1C      HDA3B    0.800000E-01   1.00800           0   0.00000       0.00000    
     14981 MEOH     933      MEOH     LP1A     LPD     -0.230000       0.00000          -1   0.00000       0.00000    
     14982 MEOH     933      MEOH     LP1B     LPD     -0.230000       0.00000          -1   0.00000       0.00000    
     14983 MEOH     934      MEOH     C1       CD33B     2.31410       11.6110           0  -1.00000       1.30000    
     14984 MEOH     934      MEOH     DC1      DRUD     -2.45410      0.400000           0   0.00000       0.00000    
     14985 MEOH     934      MEOH     O1       OD31H     2.48830       15.5990           0  -1.02800       1.30000    
     14986 MEOH     934      MEOH     DO1      DRUD     -2.48830      0.400000           0   0.00000       0.00000    
     14987 MEOH     934      MEOH     HO1      HDP1A    0.360000       1.00800           0   0.00000       0.00000    
     14988 MEOH     934      MEOH     HO2      DUMH      0.00000       1.00800           0   0.00000       0.00000    
     14989 MEOH     934      MEOH     H1A      HDA3B    0.800000E-01   1.00800           0   0.00000       0.00000    
     14990 MEOH     934      MEOH     H1B      HDA3B    0.800000E-01   1.00800           0   0.00000       0.00000    
     14991 MEOH     934      MEOH     H1C      HDA3B    0.800000E-01   1.00800           0   0.00000       0.00000    
     14992 MEOH     934      MEOH     LP1A     LPD     -0.230000       0.00000          -1   0.00000       0.00000    
     14993 MEOH     934      MEOH     LP1B     LPD     -0.230000       0.00000          -1   0.00000       0.00000    
     14994 MEOH     935      MEOH     C1       CD33B     2.31410       11.6110           0  -1.00000       1.30000    
     14995 MEOH     935      MEOH     DC1      DRUD     -2.45410      0.400000           0   0.00000       0.00000    
     14996 MEOH     935      MEOH     O1       OD31H     2.48830       15.5990           0  -1.02800       1.30000    
     14997 MEOH     935      MEOH     DO1      DRUD     -2.48830      0.400000           0   0.00000       0.00000    
     14998 MEOH     935      MEOH     HO1      HDP1A    0.360000       1.00800           0   0.00000       0.00000    
     14999 MEOH     935      MEOH     HO2      DUMH      0.00000       1.00800           0   0.00000       0.00000    
     15000 MEOH     935      MEOH     H1A      HDA3B    0.800000E-01   1.00800           0   0.00000       0.00000    
     15001 MEOH     935      MEOH     H1B      HDA3B    0.800000E-01   1.00800           0   0.00000       0.00000    
     15002 MEOH     935      MEOH     H1C      HDA3B    0.800000E-01   1.00800           0   0.00000       0.00000    
     15003 MEOH     935      MEOH     LP1A     LPD     -0.230000       0.00000          -1   0.00000       0.00000    
     15004 MEOH     935      MEOH     LP1B     LPD     -0.230000       0.00000          -1   0.00000       0.00000    
     15005 MEOH     936      MEOH     C1       CD33B     2.31410       11.6110           0  -1.00000       1.30000    
     15006 MEOH     936      MEOH     DC1      DRUD     -2.45410      0.400000           0   0.00000       0.00000    
     15007 MEOH     936      MEOH     O1       OD31H     2.48830       15.5990           0  -1.02800       1.30000    
     15008 MEOH     936      MEOH     DO1      DRUD     -2.48830      0.400000           0   0.00000       0.00000    
     15009 MEOH     936      MEOH     HO1      HDP1A    0.360000       1.00800           0   0.00000       0.00000    
     15010 MEOH     936      MEOH     HO2      DUMH      0.00000       1.00800           0   0.00000       0.00000    
     15011 MEOH     936      MEOH     H1A      HDA3B    0.800000E-01   1.00800           0   0.00000       0.00000    
     15012 MEOH     936      MEOH     H1B      HDA3B    0.800000E-01   1.00800           0   0.00000       0.00000    
     15013 MEOH     936      MEOH     H1C      HDA3B    0.800000E-01   1.00800           0   0.00000       0.00000    
     15014 MEOH     936      MEOH     LP1A     LPD     -0.230000       0.00000          -1   0.00000       0.00000    
     15015 MEOH     936      MEOH     LP1B     LPD     -0.230000       0.00000          -1   0.00000       0.00000    
     15016 MEOH     937      MEOH     C1       CD33B     2.31410       11.6110           0  -1.00000       1.30000    
     15017 MEOH     937      MEOH     DC1      DRUD     -2.45410      0.400000           0   0.00000       0.00000    
     15018 MEOH     937      MEOH     O1       OD31H     2.48830       15.5990           0  -1.02800       1.30000    
     15019 MEOH     937      MEOH     DO1      DRUD     -2.48830      0.400000           0   0.00000       0.00000    
     15020 MEOH     937      MEOH     HO1      HDP1A    0.360000       1.00800           0   0.00000       0.00000    
     15021 MEOH     937      MEOH     HO2      DUMH      0.00000       1.00800           0   0.00000       0.00000    
     15022 MEOH     937      MEOH     H1A      HDA3B    0.800000E-01   1.00800           0   0.00000       0.00000    
     15023 MEOH     937      MEOH     H1B      HDA3B    0.800000E-01   1.00800           0   0.00000       0.00000    
     15024 MEOH     937      MEOH     H1C      HDA3B    0.800000E-01   1.00800           0   0.00000       0.00000    
     15025 MEOH     937      MEOH     LP1A     LPD     -0.230000       0.00000          -1   0.00000       0.00000    
     15026 MEOH     937      MEOH     LP1B     LPD     -0.230000       0.00000          -1   0.00000       0.00000    
     15027 MEOH     938      MEOH     C1       CD33B     2.31410       11.6110           0  -1.00000       1.30000    
     15028 MEOH     938      MEOH     DC1      DRUD     -2.45410      0.400000           0   0.00000       0.00000    
     15029 MEOH     938      MEOH     O1       OD31H     2.48830       15.5990           0  -1.02800       1.30000    
     15030 MEOH     938      MEOH     DO1      DRUD     -2.48830      0.400000           0   0.00000       0.00000    
     15031 MEOH     938      MEOH     HO1      HDP1A    0.360000       1.00800           0   0.00000       0.00000    
     15032 MEOH     938      MEOH     HO2      DUMH      0.00000       1.00800           0   0.00000       0.00000    
     15033 MEOH     938      MEOH     H1A      HDA3B    0.800000E-01   1.00800           0   0.00000       0.00000    
     15034 MEOH     938      MEOH     H1B      HDA3B    0.800000E-01   1.00800           0   0.00000       0.00000    
     15035 MEOH     938      MEOH     H1C      HDA3B    0.800000E-01   1.00800           0   0.00000       0.00000    
     15036 MEOH     938      MEOH     LP1A     LPD     -0.230000       0.00000          -1   0.00000       0.00000    
     15037 MEOH     938      MEOH     LP1B     LPD     -0.230000       0.00000          -1   0.00000       0.00000    
     15038 MEOH     939      MEOH     C1       CD33B     2.31410       11.6110           0  -1.00000       1.30000    
     15039 MEOH     939      MEOH     DC1      DRUD     -2.45410      0.400000           0   0.00000       0.00000    
     15040 MEOH     939      MEOH     O1       OD31H     2.48830       15.5990           0  -1.02800       1.30000    
     15041 MEOH     939      MEOH     DO1      DRUD     -2.48830      0.400000           0   0.00000       0.00000    
     15042 MEOH     939      MEOH     HO1      HDP1A    0.360000       1.00800           0   0.00000       0.00000    
     15043 MEOH     939      MEOH     HO2      DUMH      0.00000       1.00800           0   0.00000       0.00000    
     15044 MEOH     939      MEOH     H1A      HDA3B    0.800000E-01   1.00800           0   0.00000       0.00000    
     15045 MEOH     939      MEOH     H1B      HDA3B    0.800000E-01   1.00800           0   0.00000       0.00000    
     15046 MEOH     939      MEOH     H1C      HDA3B    0.800000E-01   1.00800           0   0.00000       0.00000    
     15047 MEOH     939      MEOH     LP1A     LPD     -0.230000       0.00000          -1   0.00000       0.00000    
     15048 MEOH     939      MEOH     LP1B     LPD     -0.230000       0.00000          -1   0.00000       0.00000    
     15049 MEOH     940      MEOH     C1       CD33B     2.31410       11.6110           0  -1.00000       1.30000    
     15050 MEOH     940      MEOH     DC1      DRUD     -2.45410      0.400000           0   0.00000       0.00000    
     15051 MEOH     940      MEOH     O1       OD31H     2.48830       15.5990           0  -1.02800       1.30000    
     15052 MEOH     940      MEOH     DO1      DRUD     -2.48830      0.400000           0   0.00000       0.00000    
     15053 MEOH     940      MEOH     HO1      HDP1A    0.360000       1.00800           0   0.00000       0.00000    
     15054 MEOH     940      MEOH     HO2      DUMH      0.00000       1.00800           0   0.00000       0.00000    
     15055 MEOH     940      MEOH     H1A      HDA3B    0.800000E-01   1.00800           0   0.00000       0.00000    
     15056 MEOH     940      MEOH     H1B      HDA3B    0.800000E-01   1.00800           0   0.00000       0.00000    
     15057 MEOH     940      MEOH     H1C      HDA3B    0.800000E-01   1.00800           0   0.00000       0.00000    
     15058 MEOH     940      MEOH     LP1A     LPD     -0.230000       0.00000          -1   0.00000       0.00000    
     15059 MEOH     940      MEOH     LP1B     LPD     -0.230000       0.00000          -1   0.00000       0.00000    
     15060 MEOH     941      MEOH     C1       CD33B     2.31410       11.6110           0  -1.00000       1.30000    
     15061 MEOH     941      MEOH     DC1      DRUD     -2.45410      0.400000           0   0.00000       0.00000    
     15062 MEOH     941      MEOH     O1       OD31H     2.48830       15.5990           0  -1.02800       1.30000    
     15063 MEOH     941      MEOH     DO1      DRUD     -2.48830      0.400000           0   0.00000       0.00000    
     15064 MEOH     941      MEOH     HO1      HDP1A    0.360000       1.00800           0   0.00000       0.00000    
     15065 MEOH     941      MEOH     HO2      DUMH      0.00000       1.00800           0   0.00000       0.00000    
     15066 MEOH     941      MEOH     H1A      HDA3B    0.800000E-01   1.00800           0   0.00000       0.00000    
     15067 MEOH     941      MEOH     H1B      HDA3B    0.800000E-01   1.00800           0   0.00000       0.00000    
     15068 MEOH     941      MEOH     H1C      HDA3B    0.800000E-01   1.00800           0   0.00000       0.00000    
     15069 MEOH     941      MEOH     LP1A     LPD     -0.230000       0.00000          -1   0.00000       0.00000    
     15070 MEOH     941      MEOH     LP1B     LPD     -0.230000       0.00000          -1   0.00000       0.00000    
     15071 MEOH     942      MEOH     C1       CD33B     2.31410       11.6110           0  -1.00000       1.30000    
     15072 MEOH     942      MEOH     DC1      DRUD     -2.45410      0.400000           0   0.00000       0.00000    
     15073 MEOH     942      MEOH     O1       OD31H     2.48830       15.5990           0  -1.02800       1.30000    
     15074 MEOH     942      MEOH     DO1      DRUD     -2.48830      0.400000           0   0.00000       0.00000    
     15075 MEOH     942      MEOH     HO1      HDP1A    0.360000       1.00800           0   0.00000       0.00000    
     15076 MEOH     942      MEOH     HO2      DUMH      0.00000       1.00800           0   0.00000       0.00000    
     15077 MEOH     942      MEOH     H1A      HDA3B    0.800000E-01   1.00800           0   0.00000       0.00000    
     15078 MEOH     942      MEOH     H1B      HDA3B    0.800000E-01   1.00800           0   0.00000       0.00000    
     15079 MEOH     942      MEOH     H1C      HDA3B    0.800000E-01   1.00800           0   0.00000       0.00000    
     15080 MEOH     942      MEOH     LP1A     LPD     -0.230000       0.00000          -1   0.00000       0.00000    
     15081 MEOH     942      MEOH     LP1B     LPD     -0.230000       0.00000          -1   0.00000       0.00000    
     15082 MEOH     943      MEOH     C1       CD33B     2.31410       11.6110           0  -1.00000       1.30000    
     15083 MEOH     943      MEOH     DC1      DRUD     -2.45410      0.400000           0   0.00000       0.00000    
     15084 MEOH     943      MEOH     O1       OD31H     2.48830       15.5990           0  -1.02800       1.30000    
     15085 MEOH     943      MEOH     DO1      DRUD     -2.48830      0.400000           0   0.00000       0.00000    
     15086 MEOH     943      MEOH     HO1      HDP1A    0.360000       1.00800           0   0.00000       0.00000    
     15087 MEOH     943      MEOH     HO2      DUMH      0.00000       1.00800           0   0.00000       0.00000    
     15088 MEOH     943      MEOH     H1A      HDA3B    0.800000E-01   1.00800           0   0.00000       0.00000    
     15089 MEOH     943      MEOH     H1B      HDA3B    0.800000E-01   1.00800           0   0.00000       0.00000    
     15090 MEOH     943      MEOH     H1C      HDA3B    0.800000E-01   1.00800           0   0.00000       0.00000    
     15091 MEOH     943      MEOH     LP1A     LPD     -0.230000       0.00000          -1   0.00000       0.00000    
     15092 MEOH     943      MEOH     LP1B     LPD     -0.230000       0.00000          -1   0.00000       0.00000    
     15093 MEOH     944      MEOH     C1       CD33B     2.31410       11.6110           0  -1.00000       1.30000    
     15094 MEOH     944      MEOH     DC1      DRUD     -2.45410      0.400000           0   0.00000       0.00000    
     15095 MEOH     944      MEOH     O1       OD31H     2.48830       15.5990           0  -1.02800       1.30000    
     15096 MEOH     944      MEOH     DO1      DRUD     -2.48830      0.400000           0   0.00000       0.00000    
     15097 MEOH     944      MEOH     HO1      HDP1A    0.360000       1.00800           0   0.00000       0.00000    
     15098 MEOH     944      MEOH     HO2      DUMH      0.00000       1.00800           0   0.00000       0.00000    
     15099 MEOH     944      MEOH     H1A      HDA3B    0.800000E-01   1.00800           0   0.00000       0.00000    
     15100 MEOH     944      MEOH     H1B      HDA3B    0.800000E-01   1.00800           0   0.00000       0.00000    
     15101 MEOH     944      MEOH     H1C      HDA3B    0.800000E-01   1.00800           0   0.00000       0.00000    
     15102 MEOH     944      MEOH     LP1A     LPD     -0.230000       0.00000          -1   0.00000       0.00000    
     15103 MEOH     944      MEOH     LP1B     LPD     -0.230000       0.00000          -1   0.00000       0.00000    
     15104 MEOH     945      MEOH     C1       CD33B     2.31410       11.6110           0  -1.00000       1.30000    
     15105 MEOH     945      MEOH     DC1      DRUD     -2.45410      0.400000           0   0.00000       0.00000    
     15106 MEOH     945      MEOH     O1       OD31H     2.48830       15.5990           0  -1.02800       1.30000    
     15107 MEOH     945      MEOH     DO1      DRUD     -2.48830      0.400000           0   0.00000       0.00000    
     15108 MEOH     945      MEOH     HO1      HDP1A    0.360000       1.00800           0   0.00000       0.00000    
     15109 MEOH     945      MEOH     HO2      DUMH      0.00000       1.00800           0   0.00000       0.00000    
     15110 MEOH     945      MEOH     H1A      HDA3B    0.800000E-01   1.00800           0   0.00000       0.00000    
     15111 MEOH     945      MEOH     H1B      HDA3B    0.800000E-01   1.00800           0   0.00000       0.00000    
     15112 MEOH     945      MEOH     H1C      HDA3B    0.800000E-01   1.00800           0   0.00000       0.00000    
     15113 MEOH     945      MEOH     LP1A     LPD     -0.230000       0.00000          -1   0.00000       0.00000    
     15114 MEOH     945      MEOH     LP1B     LPD     -0.230000       0.00000          -1   0.00000       0.00000    
     15115 MEOH     946      MEOH     C1       CD33B     2.31410       11.6110           0  -1.00000       1.30000    
     15116 MEOH     946      MEOH     DC1      DRUD     -2.45410      0.400000           0   0.00000       0.00000    
     15117 MEOH     946      MEOH     O1       OD31H     2.48830       15.5990           0  -1.02800       1.30000    
     15118 MEOH     946      MEOH     DO1      DRUD     -2.48830      0.400000           0   0.00000       0.00000    
     15119 MEOH     946      MEOH     HO1      HDP1A    0.360000       1.00800           0   0.00000       0.00000    
     15120 MEOH     946      MEOH     HO2      DUMH      0.00000       1.00800           0   0.00000       0.00000    
     15121 MEOH     946      MEOH     H1A      HDA3B    0.800000E-01   1.00800           0   0.00000       0.00000    
     15122 MEOH     946      MEOH     H1B      HDA3B    0.800000E-01   1.00800           0   0.00000       0.00000    
     15123 MEOH     946      MEOH     H1C      HDA3B    0.800000E-01   1.00800           0   0.00000       0.00000    
     15124 MEOH     946      MEOH     LP1A     LPD     -0.230000       0.00000          -1   0.00000       0.00000    
     15125 MEOH     946      MEOH     LP1B     LPD     -0.230000       0.00000          -1   0.00000       0.00000    
     15126 MEOH     947      MEOH     C1       CD33B     2.31410       11.6110           0  -1.00000       1.30000    
     15127 MEOH     947      MEOH     DC1      DRUD     -2.45410      0.400000           0   0.00000       0.00000    
     15128 MEOH     947      MEOH     O1       OD31H     2.48830       15.5990           0  -1.02800       1.30000    
     15129 MEOH     947      MEOH     DO1      DRUD     -2.48830      0.400000           0   0.00000       0.00000    
     15130 MEOH     947      MEOH     HO1      HDP1A    0.360000       1.00800           0   0.00000       0.00000    
     15131 MEOH     947      MEOH     HO2      DUMH      0.00000       1.00800           0   0.00000       0.00000    
     15132 MEOH     947      MEOH     H1A      HDA3B    0.800000E-01   1.00800           0   0.00000       0.00000    
     15133 MEOH     947      MEOH     H1B      HDA3B    0.800000E-01   1.00800           0   0.00000       0.00000    
     15134 MEOH     947      MEOH     H1C      HDA3B    0.800000E-01   1.00800           0   0.00000       0.00000    
     15135 MEOH     947      MEOH     LP1A     LPD     -0.230000       0.00000          -1   0.00000       0.00000    
     15136 MEOH     947      MEOH     LP1B     LPD     -0.230000       0.00000          -1   0.00000       0.00000    
     15137 MEOH     948      MEOH     C1       CD33B     2.31410       11.6110           0  -1.00000       1.30000    
     15138 MEOH     948      MEOH     DC1      DRUD     -2.45410      0.400000           0   0.00000       0.00000    
     15139 MEOH     948      MEOH     O1       OD31H     2.48830       15.5990           0  -1.02800       1.30000    
     15140 MEOH     948      MEOH     DO1      DRUD     -2.48830      0.400000           0   0.00000       0.00000    
     15141 MEOH     948      MEOH     HO1      HDP1A    0.360000       1.00800           0   0.00000       0.00000    
     15142 MEOH     948      MEOH     HO2      DUMH      0.00000       1.00800           0   0.00000       0.00000    
     15143 MEOH     948      MEOH     H1A      HDA3B    0.800000E-01   1.00800           0   0.00000       0.00000    
     15144 MEOH     948      MEOH     H1B      HDA3B    0.800000E-01   1.00800           0   0.00000       0.00000    
     15145 MEOH     948      MEOH     H1C      HDA3B    0.800000E-01   1.00800           0   0.00000       0.00000    
     15146 MEOH     948      MEOH     LP1A     LPD     -0.230000       0.00000          -1   0.00000       0.00000    
     15147 MEOH     948      MEOH     LP1B     LPD     -0.230000       0.00000          -1   0.00000       0.00000    
     15148 MEOH     949      MEOH     C1       CD33B     2.31410       11.6110           0  -1.00000       1.30000    
     15149 MEOH     949      MEOH     DC1      DRUD     -2.45410      0.400000           0   0.00000       0.00000    
     15150 MEOH     949      MEOH     O1       OD31H     2.48830       15.5990           0  -1.02800       1.30000    
     15151 MEOH     949      MEOH     DO1      DRUD     -2.48830      0.400000           0   0.00000       0.00000    
     15152 MEOH     949      MEOH     HO1      HDP1A    0.360000       1.00800           0   0.00000       0.00000    
     15153 MEOH     949      MEOH     HO2      DUMH      0.00000       1.00800           0   0.00000       0.00000    
     15154 MEOH     949      MEOH     H1A      HDA3B    0.800000E-01   1.00800           0   0.00000       0.00000    
     15155 MEOH     949      MEOH     H1B      HDA3B    0.800000E-01   1.00800           0   0.00000       0.00000    
     15156 MEOH     949      MEOH     H1C      HDA3B    0.800000E-01   1.00800           0   0.00000       0.00000    
     15157 MEOH     949      MEOH     LP1A     LPD     -0.230000       0.00000          -1   0.00000       0.00000    
     15158 MEOH     949      MEOH     LP1B     LPD     -0.230000       0.00000          -1   0.00000       0.00000    
     15159 MEOH     950      MEOH     C1       CD33B     2.31410       11.6110           0  -1.00000       1.30000    
     15160 MEOH     950      MEOH     DC1      DRUD     -2.45410      0.400000           0   0.00000       0.00000    
     15161 MEOH     950      MEOH     O1       OD31H     2.48830       15.5990           0  -1.02800       1.30000    
     15162 MEOH     950      MEOH     DO1      DRUD     -2.48830      0.400000           0   0.00000       0.00000    
     15163 MEOH     950      MEOH     HO1      HDP1A    0.360000       1.00800           0   0.00000       0.00000    
     15164 MEOH     950      MEOH     HO2      DUMH      0.00000       1.00800           0   0.00000       0.00000    
     15165 MEOH     950      MEOH     H1A      HDA3B    0.800000E-01   1.00800           0   0.00000       0.00000    
     15166 MEOH     950      MEOH     H1B      HDA3B    0.800000E-01   1.00800           0   0.00000       0.00000    
     15167 MEOH     950      MEOH     H1C      HDA3B    0.800000E-01   1.00800           0   0.00000       0.00000    
     15168 MEOH     950      MEOH     LP1A     LPD     -0.230000       0.00000          -1   0.00000       0.00000    
     15169 MEOH     950      MEOH     LP1B     LPD     -0.230000       0.00000          -1   0.00000       0.00000    
     15170 MEOH     951      MEOH     C1       CD33B     2.31410       11.6110           0  -1.00000       1.30000    
     15171 MEOH     951      MEOH     DC1      DRUD     -2.45410      0.400000           0   0.00000       0.00000    
     15172 MEOH     951      MEOH     O1       OD31H     2.48830       15.5990           0  -1.02800       1.30000    
     15173 MEOH     951      MEOH     DO1      DRUD     -2.48830      0.400000           0   0.00000       0.00000    
     15174 MEOH     951      MEOH     HO1      HDP1A    0.360000       1.00800           0   0.00000       0.00000    
     15175 MEOH     951      MEOH     HO2      DUMH      0.00000       1.00800           0   0.00000       0.00000    
     15176 MEOH     951      MEOH     H1A      HDA3B    0.800000E-01   1.00800           0   0.00000       0.00000    
     15177 MEOH     951      MEOH     H1B      HDA3B    0.800000E-01   1.00800           0   0.00000       0.00000    
     15178 MEOH     951      MEOH     H1C      HDA3B    0.800000E-01   1.00800           0   0.00000       0.00000    
     15179 MEOH     951      MEOH     LP1A     LPD     -0.230000       0.00000          -1   0.00000       0.00000    
     15180 MEOH     951      MEOH     LP1B     LPD     -0.230000       0.00000          -1   0.00000       0.00000    
     15181 MEOH     952      MEOH     C1       CD33B     2.31410       11.6110           0  -1.00000       1.30000    
     15182 MEOH     952      MEOH     DC1      DRUD     -2.45410      0.400000           0   0.00000       0.00000    
     15183 MEOH     952      MEOH     O1       OD31H     2.48830       15.5990           0  -1.02800       1.30000    
     15184 MEOH     952      MEOH     DO1      DRUD     -2.48830      0.400000           0   0.00000       0.00000    
     15185 MEOH     952      MEOH     HO1      HDP1A    0.360000       1.00800           0   0.00000       0.00000    
     15186 MEOH     952      MEOH     HO2      DUMH      0.00000       1.00800           0   0.00000       0.00000    
     15187 MEOH     952      MEOH     H1A      HDA3B    0.800000E-01   1.00800           0   0.00000       0.00000    
     15188 MEOH     952      MEOH     H1B      HDA3B    0.800000E-01   1.00800           0   0.00000       0.00000    
     15189 MEOH     952      MEOH     H1C      HDA3B    0.800000E-01   1.00800           0   0.00000       0.00000    
     15190 MEOH     952      MEOH     LP1A     LPD     -0.230000       0.00000          -1   0.00000       0.00000    
     15191 MEOH     952      MEOH     LP1B     LPD     -0.230000       0.00000          -1   0.00000       0.00000    
     15192 MEOH     953      MEOH     C1       CD33B     2.31410       11.6110           0  -1.00000       1.30000    
     15193 MEOH     953      MEOH     DC1      DRUD     -2.45410      0.400000           0   0.00000       0.00000    
     15194 MEOH     953      MEOH     O1       OD31H     2.48830       15.5990           0  -1.02800       1.30000    
     15195 MEOH     953      MEOH     DO1      DRUD     -2.48830      0.400000           0   0.00000       0.00000    
     15196 MEOH     953      MEOH     HO1      HDP1A    0.360000       1.00800           0   0.00000       0.00000    
     15197 MEOH     953      MEOH     HO2      DUMH      0.00000       1.00800           0   0.00000       0.00000    
     15198 MEOH     953      MEOH     H1A      HDA3B    0.800000E-01   1.00800           0   0.00000       0.00000    
     15199 MEOH     953      MEOH     H1B      HDA3B    0.800000E-01   1.00800           0   0.00000       0.00000    
     15200 MEOH     953      MEOH     H1C      HDA3B    0.800000E-01   1.00800           0   0.00000       0.00000    
     15201 MEOH     953      MEOH     LP1A     LPD     -0.230000       0.00000          -1   0.00000       0.00000    
     15202 MEOH     953      MEOH     LP1B     LPD     -0.230000       0.00000          -1   0.00000       0.00000    
     15203 MEOH     954      MEOH     C1       CD33B     2.31410       11.6110           0  -1.00000       1.30000    
     15204 MEOH     954      MEOH     DC1      DRUD     -2.45410      0.400000           0   0.00000       0.00000    
     15205 MEOH     954      MEOH     O1       OD31H     2.48830       15.5990           0  -1.02800       1.30000    
     15206 MEOH     954      MEOH     DO1      DRUD     -2.48830      0.400000           0   0.00000       0.00000    
     15207 MEOH     954      MEOH     HO1      HDP1A    0.360000       1.00800           0   0.00000       0.00000    
     15208 MEOH     954      MEOH     HO2      DUMH      0.00000       1.00800           0   0.00000       0.00000    
     15209 MEOH     954      MEOH     H1A      HDA3B    0.800000E-01   1.00800           0   0.00000       0.00000    
     15210 MEOH     954      MEOH     H1B      HDA3B    0.800000E-01   1.00800           0   0.00000       0.00000    
     15211 MEOH     954      MEOH     H1C      HDA3B    0.800000E-01   1.00800           0   0.00000       0.00000    
     15212 MEOH     954      MEOH     LP1A     LPD     -0.230000       0.00000          -1   0.00000       0.00000    
     15213 MEOH     954      MEOH     LP1B     LPD     -0.230000       0.00000          -1   0.00000       0.00000    
     15214 MEOH     955      MEOH     C1       CD33B     2.31410       11.6110           0  -1.00000       1.30000    
     15215 MEOH     955      MEOH     DC1      DRUD     -2.45410      0.400000           0   0.00000       0.00000    
     15216 MEOH     955      MEOH     O1       OD31H     2.48830       15.5990           0  -1.02800       1.30000    
     15217 MEOH     955      MEOH     DO1      DRUD     -2.48830      0.400000           0   0.00000       0.00000    
     15218 MEOH     955      MEOH     HO1      HDP1A    0.360000       1.00800           0   0.00000       0.00000    
     15219 MEOH     955      MEOH     HO2      DUMH      0.00000       1.00800           0   0.00000       0.00000    
     15220 MEOH     955      MEOH     H1A      HDA3B    0.800000E-01   1.00800           0   0.00000       0.00000    
     15221 MEOH     955      MEOH     H1B      HDA3B    0.800000E-01   1.00800           0   0.00000       0.00000    
     15222 MEOH     955      MEOH     H1C      HDA3B    0.800000E-01   1.00800           0   0.00000       0.00000    
     15223 MEOH     955      MEOH     LP1A     LPD     -0.230000       0.00000          -1   0.00000       0.00000    
     15224 MEOH     955      MEOH     LP1B     LPD     -0.230000       0.00000          -1   0.00000       0.00000    
     15225 MEOH     956      MEOH     C1       CD33B     2.31410       11.6110           0  -1.00000       1.30000    
     15226 MEOH     956      MEOH     DC1      DRUD     -2.45410      0.400000           0   0.00000       0.00000    
     15227 MEOH     956      MEOH     O1       OD31H     2.48830       15.5990           0  -1.02800       1.30000    
     15228 MEOH     956      MEOH     DO1      DRUD     -2.48830      0.400000           0   0.00000       0.00000    
     15229 MEOH     956      MEOH     HO1      HDP1A    0.360000       1.00800           0   0.00000       0.00000    
     15230 MEOH     956      MEOH     HO2      DUMH      0.00000       1.00800           0   0.00000       0.00000    
     15231 MEOH     956      MEOH     H1A      HDA3B    0.800000E-01   1.00800           0   0.00000       0.00000    
     15232 MEOH     956      MEOH     H1B      HDA3B    0.800000E-01   1.00800           0   0.00000       0.00000    
     15233 MEOH     956      MEOH     H1C      HDA3B    0.800000E-01   1.00800           0   0.00000       0.00000    
     15234 MEOH     956      MEOH     LP1A     LPD     -0.230000       0.00000          -1   0.00000       0.00000    
     15235 MEOH     956      MEOH     LP1B     LPD     -0.230000       0.00000          -1   0.00000       0.00000    
     15236 MEOH     957      MEOH     C1       CD33B     2.31410       11.6110           0  -1.00000       1.30000    
     15237 MEOH     957      MEOH     DC1      DRUD     -2.45410      0.400000           0   0.00000       0.00000    
     15238 MEOH     957      MEOH     O1       OD31H     2.48830       15.5990           0  -1.02800       1.30000    
     15239 MEOH     957      MEOH     DO1      DRUD     -2.48830      0.400000           0   0.00000       0.00000    
     15240 MEOH     957      MEOH     HO1      HDP1A    0.360000       1.00800           0   0.00000       0.00000    
     15241 MEOH     957      MEOH     HO2      DUMH      0.00000       1.00800           0   0.00000       0.00000    
     15242 MEOH     957      MEOH     H1A      HDA3B    0.800000E-01   1.00800           0   0.00000       0.00000    
     15243 MEOH     957      MEOH     H1B      HDA3B    0.800000E-01   1.00800           0   0.00000       0.00000    
     15244 MEOH     957      MEOH     H1C      HDA3B    0.800000E-01   1.00800           0   0.00000       0.00000    
     15245 MEOH     957      MEOH     LP1A     LPD     -0.230000       0.00000          -1   0.00000       0.00000    
     15246 MEOH     957      MEOH     LP1B     LPD     -0.230000       0.00000          -1   0.00000       0.00000    
     15247 MEOH     958      MEOH     C1       CD33B     2.31410       11.6110           0  -1.00000       1.30000    
     15248 MEOH     958      MEOH     DC1      DRUD     -2.45410      0.400000           0   0.00000       0.00000    
     15249 MEOH     958      MEOH     O1       OD31H     2.48830       15.5990           0  -1.02800       1.30000    
     15250 MEOH     958      MEOH     DO1      DRUD     -2.48830      0.400000           0   0.00000       0.00000    
     15251 MEOH     958      MEOH     HO1      HDP1A    0.360000       1.00800           0   0.00000       0.00000    
     15252 MEOH     958      MEOH     HO2      DUMH      0.00000       1.00800           0   0.00000       0.00000    
     15253 MEOH     958      MEOH     H1A      HDA3B    0.800000E-01   1.00800           0   0.00000       0.00000    
     15254 MEOH     958      MEOH     H1B      HDA3B    0.800000E-01   1.00800           0   0.00000       0.00000    
     15255 MEOH     958      MEOH     H1C      HDA3B    0.800000E-01   1.00800           0   0.00000       0.00000    
     15256 MEOH     958      MEOH     LP1A     LPD     -0.230000       0.00000          -1   0.00000       0.00000    
     15257 MEOH     958      MEOH     LP1B     LPD     -0.230000       0.00000          -1   0.00000       0.00000    
     15258 MEOH     959      MEOH     C1       CD33B     2.31410       11.6110           0  -1.00000       1.30000    
     15259 MEOH     959      MEOH     DC1      DRUD     -2.45410      0.400000           0   0.00000       0.00000    
     15260 MEOH     959      MEOH     O1       OD31H     2.48830       15.5990           0  -1.02800       1.30000    
     15261 MEOH     959      MEOH     DO1      DRUD     -2.48830      0.400000           0   0.00000       0.00000    
     15262 MEOH     959      MEOH     HO1      HDP1A    0.360000       1.00800           0   0.00000       0.00000    
     15263 MEOH     959      MEOH     HO2      DUMH      0.00000       1.00800           0   0.00000       0.00000    
     15264 MEOH     959      MEOH     H1A      HDA3B    0.800000E-01   1.00800           0   0.00000       0.00000    
     15265 MEOH     959      MEOH     H1B      HDA3B    0.800000E-01   1.00800           0   0.00000       0.00000    
     15266 MEOH     959      MEOH     H1C      HDA3B    0.800000E-01   1.00800           0   0.00000       0.00000    
     15267 MEOH     959      MEOH     LP1A     LPD     -0.230000       0.00000          -1   0.00000       0.00000    
     15268 MEOH     959      MEOH     LP1B     LPD     -0.230000       0.00000          -1   0.00000       0.00000    
     15269 MEOH     960      MEOH     C1       CD33B     2.31410       11.6110           0  -1.00000       1.30000    
     15270 MEOH     960      MEOH     DC1      DRUD     -2.45410      0.400000           0   0.00000       0.00000    
     15271 MEOH     960      MEOH     O1       OD31H     2.48830       15.5990           0  -1.02800       1.30000    
     15272 MEOH     960      MEOH     DO1      DRUD     -2.48830      0.400000           0   0.00000       0.00000    
     15273 MEOH     960      MEOH     HO1      HDP1A    0.360000       1.00800           0   0.00000       0.00000    
     15274 MEOH     960      MEOH     HO2      DUMH      0.00000       1.00800           0   0.00000       0.00000    
     15275 MEOH     960      MEOH     H1A      HDA3B    0.800000E-01   1.00800           0   0.00000       0.00000    
     15276 MEOH     960      MEOH     H1B      HDA3B    0.800000E-01   1.00800           0   0.00000       0.00000    
     15277 MEOH     960      MEOH     H1C      HDA3B    0.800000E-01   1.00800           0   0.00000       0.00000    
     15278 MEOH     960      MEOH     LP1A     LPD     -0.230000       0.00000          -1   0.00000       0.00000    
     15279 MEOH     960      MEOH     LP1B     LPD     -0.230000       0.00000          -1   0.00000       0.00000    
     15280 MEOH     961      MEOH     C1       CD33B     2.31410       11.6110           0  -1.00000       1.30000    
     15281 MEOH     961      MEOH     DC1      DRUD     -2.45410      0.400000           0   0.00000       0.00000    
     15282 MEOH     961      MEOH     O1       OD31H     2.48830       15.5990           0  -1.02800       1.30000    
     15283 MEOH     961      MEOH     DO1      DRUD     -2.48830      0.400000           0   0.00000       0.00000    
     15284 MEOH     961      MEOH     HO1      HDP1A    0.360000       1.00800           0   0.00000       0.00000    
     15285 MEOH     961      MEOH     HO2      DUMH      0.00000       1.00800           0   0.00000       0.00000    
     15286 MEOH     961      MEOH     H1A      HDA3B    0.800000E-01   1.00800           0   0.00000       0.00000    
     15287 MEOH     961      MEOH     H1B      HDA3B    0.800000E-01   1.00800           0   0.00000       0.00000    
     15288 MEOH     961      MEOH     H1C      HDA3B    0.800000E-01   1.00800           0   0.00000       0.00000    
     15289 MEOH     961      MEOH     LP1A     LPD     -0.230000       0.00000          -1   0.00000       0.00000    
     15290 MEOH     961      MEOH     LP1B     LPD     -0.230000       0.00000          -1   0.00000       0.00000    
     15291 MEOH     962      MEOH     C1       CD33B     2.31410       11.6110           0  -1.00000       1.30000    
     15292 MEOH     962      MEOH     DC1      DRUD     -2.45410      0.400000           0   0.00000       0.00000    
     15293 MEOH     962      MEOH     O1       OD31H     2.48830       15.5990           0  -1.02800       1.30000    
     15294 MEOH     962      MEOH     DO1      DRUD     -2.48830      0.400000           0   0.00000       0.00000    
     15295 MEOH     962      MEOH     HO1      HDP1A    0.360000       1.00800           0   0.00000       0.00000    
     15296 MEOH     962      MEOH     HO2      DUMH      0.00000       1.00800           0   0.00000       0.00000    
     15297 MEOH     962      MEOH     H1A      HDA3B    0.800000E-01   1.00800           0   0.00000       0.00000    
     15298 MEOH     962      MEOH     H1B      HDA3B    0.800000E-01   1.00800           0   0.00000       0.00000    
     15299 MEOH     962      MEOH     H1C      HDA3B    0.800000E-01   1.00800           0   0.00000       0.00000    
     15300 MEOH     962      MEOH     LP1A     LPD     -0.230000       0.00000          -1   0.00000       0.00000    
     15301 MEOH     962      MEOH     LP1B     LPD     -0.230000       0.00000          -1   0.00000       0.00000    
     15302 MEOH     963      MEOH     C1       CD33B     2.31410       11.6110           0  -1.00000       1.30000    
     15303 MEOH     963      MEOH     DC1      DRUD     -2.45410      0.400000           0   0.00000       0.00000    
     15304 MEOH     963      MEOH     O1       OD31H     2.48830       15.5990           0  -1.02800       1.30000    
     15305 MEOH     963      MEOH     DO1      DRUD     -2.48830      0.400000           0   0.00000       0.00000    
     15306 MEOH     963      MEOH     HO1      HDP1A    0.360000       1.00800           0   0.00000       0.00000    
     15307 MEOH     963      MEOH     HO2      DUMH      0.00000       1.00800           0   0.00000       0.00000    
     15308 MEOH     963      MEOH     H1A      HDA3B    0.800000E-01   1.00800           0   0.00000       0.00000    
     15309 MEOH     963      MEOH     H1B      HDA3B    0.800000E-01   1.00800           0   0.00000       0.00000    
     15310 MEOH     963      MEOH     H1C      HDA3B    0.800000E-01   1.00800           0   0.00000       0.00000    
     15311 MEOH     963      MEOH     LP1A     LPD     -0.230000       0.00000          -1   0.00000       0.00000    
     15312 MEOH     963      MEOH     LP1B     LPD     -0.230000       0.00000          -1   0.00000       0.00000    
     15313 MEOH     964      MEOH     C1       CD33B     2.31410       11.6110           0  -1.00000       1.30000    
     15314 MEOH     964      MEOH     DC1      DRUD     -2.45410      0.400000           0   0.00000       0.00000    
     15315 MEOH     964      MEOH     O1       OD31H     2.48830       15.5990           0  -1.02800       1.30000    
     15316 MEOH     964      MEOH     DO1      DRUD     -2.48830      0.400000           0   0.00000       0.00000    
     15317 MEOH     964      MEOH     HO1      HDP1A    0.360000       1.00800           0   0.00000       0.00000    
     15318 MEOH     964      MEOH     HO2      DUMH      0.00000       1.00800           0   0.00000       0.00000    
     15319 MEOH     964      MEOH     H1A      HDA3B    0.800000E-01   1.00800           0   0.00000       0.00000    
     15320 MEOH     964      MEOH     H1B      HDA3B    0.800000E-01   1.00800           0   0.00000       0.00000    
     15321 MEOH     964      MEOH     H1C      HDA3B    0.800000E-01   1.00800           0   0.00000       0.00000    
     15322 MEOH     964      MEOH     LP1A     LPD     -0.230000       0.00000          -1   0.00000       0.00000    
     15323 MEOH     964      MEOH     LP1B     LPD     -0.230000       0.00000          -1   0.00000       0.00000    
     15324 MEOH     965      MEOH     C1       CD33B     2.31410       11.6110           0  -1.00000       1.30000    
     15325 MEOH     965      MEOH     DC1      DRUD     -2.45410      0.400000           0   0.00000       0.00000    
     15326 MEOH     965      MEOH     O1       OD31H     2.48830       15.5990           0  -1.02800       1.30000    
     15327 MEOH     965      MEOH     DO1      DRUD     -2.48830      0.400000           0   0.00000       0.00000    
     15328 MEOH     965      MEOH     HO1      HDP1A    0.360000       1.00800           0   0.00000       0.00000    
     15329 MEOH     965      MEOH     HO2      DUMH      0.00000       1.00800           0   0.00000       0.00000    
     15330 MEOH     965      MEOH     H1A      HDA3B    0.800000E-01   1.00800           0   0.00000       0.00000    
     15331 MEOH     965      MEOH     H1B      HDA3B    0.800000E-01   1.00800           0   0.00000       0.00000    
     15332 MEOH     965      MEOH     H1C      HDA3B    0.800000E-01   1.00800           0   0.00000       0.00000    
     15333 MEOH     965      MEOH     LP1A     LPD     -0.230000       0.00000          -1   0.00000       0.00000    
     15334 MEOH     965      MEOH     LP1B     LPD     -0.230000       0.00000          -1   0.00000       0.00000    
     15335 MEOH     966      MEOH     C1       CD33B     2.31410       11.6110           0  -1.00000       1.30000    
     15336 MEOH     966      MEOH     DC1      DRUD     -2.45410      0.400000           0   0.00000       0.00000    
     15337 MEOH     966      MEOH     O1       OD31H     2.48830       15.5990           0  -1.02800       1.30000    
     15338 MEOH     966      MEOH     DO1      DRUD     -2.48830      0.400000           0   0.00000       0.00000    
     15339 MEOH     966      MEOH     HO1      HDP1A    0.360000       1.00800           0   0.00000       0.00000    
     15340 MEOH     966      MEOH     HO2      DUMH      0.00000       1.00800           0   0.00000       0.00000    
     15341 MEOH     966      MEOH     H1A      HDA3B    0.800000E-01   1.00800           0   0.00000       0.00000    
     15342 MEOH     966      MEOH     H1B      HDA3B    0.800000E-01   1.00800           0   0.00000       0.00000    
     15343 MEOH     966      MEOH     H1C      HDA3B    0.800000E-01   1.00800           0   0.00000       0.00000    
     15344 MEOH     966      MEOH     LP1A     LPD     -0.230000       0.00000          -1   0.00000       0.00000    
     15345 MEOH     966      MEOH     LP1B     LPD     -0.230000       0.00000          -1   0.00000       0.00000    
     15346 MEOH     967      MEOH     C1       CD33B     2.31410       11.6110           0  -1.00000       1.30000    
     15347 MEOH     967      MEOH     DC1      DRUD     -2.45410      0.400000           0   0.00000       0.00000    
     15348 MEOH     967      MEOH     O1       OD31H     2.48830       15.5990           0  -1.02800       1.30000    
     15349 MEOH     967      MEOH     DO1      DRUD     -2.48830      0.400000           0   0.00000       0.00000    
     15350 MEOH     967      MEOH     HO1      HDP1A    0.360000       1.00800           0   0.00000       0.00000    
     15351 MEOH     967      MEOH     HO2      DUMH      0.00000       1.00800           0   0.00000       0.00000    
     15352 MEOH     967      MEOH     H1A      HDA3B    0.800000E-01   1.00800           0   0.00000       0.00000    
     15353 MEOH     967      MEOH     H1B      HDA3B    0.800000E-01   1.00800           0   0.00000       0.00000    
     15354 MEOH     967      MEOH     H1C      HDA3B    0.800000E-01   1.00800           0   0.00000       0.00000    
     15355 MEOH     967      MEOH     LP1A     LPD     -0.230000       0.00000          -1   0.00000       0.00000    
     15356 MEOH     967      MEOH     LP1B     LPD     -0.230000       0.00000          -1   0.00000       0.00000    
     15357 MEOH     968      MEOH     C1       CD33B     2.31410       11.6110           0  -1.00000       1.30000    
     15358 MEOH     968      MEOH     DC1      DRUD     -2.45410      0.400000           0   0.00000       0.00000    
     15359 MEOH     968      MEOH     O1       OD31H     2.48830       15.5990           0  -1.02800       1.30000    
     15360 MEOH     968      MEOH     DO1      DRUD     -2.48830      0.400000           0   0.00000       0.00000    
     15361 MEOH     968      MEOH     HO1      HDP1A    0.360000       1.00800           0   0.00000       0.00000    
     15362 MEOH     968      MEOH     HO2      DUMH      0.00000       1.00800           0   0.00000       0.00000    
     15363 MEOH     968      MEOH     H1A      HDA3B    0.800000E-01   1.00800           0   0.00000       0.00000    
     15364 MEOH     968      MEOH     H1B      HDA3B    0.800000E-01   1.00800           0   0.00000       0.00000    
     15365 MEOH     968      MEOH     H1C      HDA3B    0.800000E-01   1.00800           0   0.00000       0.00000    
     15366 MEOH     968      MEOH     LP1A     LPD     -0.230000       0.00000          -1   0.00000       0.00000    
     15367 MEOH     968      MEOH     LP1B     LPD     -0.230000       0.00000          -1   0.00000       0.00000    
     15368 MEOH     969      MEOH     C1       CD33B     2.31410       11.6110           0  -1.00000       1.30000    
     15369 MEOH     969      MEOH     DC1      DRUD     -2.45410      0.400000           0   0.00000       0.00000    
     15370 MEOH     969      MEOH     O1       OD31H     2.48830       15.5990           0  -1.02800       1.30000    
     15371 MEOH     969      MEOH     DO1      DRUD     -2.48830      0.400000           0   0.00000       0.00000    
     15372 MEOH     969      MEOH     HO1      HDP1A    0.360000       1.00800           0   0.00000       0.00000    
     15373 MEOH     969      MEOH     HO2      DUMH      0.00000       1.00800           0   0.00000       0.00000    
     15374 MEOH     969      MEOH     H1A      HDA3B    0.800000E-01   1.00800           0   0.00000       0.00000    
     15375 MEOH     969      MEOH     H1B      HDA3B    0.800000E-01   1.00800           0   0.00000       0.00000    
     15376 MEOH     969      MEOH     H1C      HDA3B    0.800000E-01   1.00800           0   0.00000       0.00000    
     15377 MEOH     969      MEOH     LP1A     LPD     -0.230000       0.00000          -1   0.00000       0.00000    
     15378 MEOH     969      MEOH     LP1B     LPD     -0.230000       0.00000          -1   0.00000       0.00000    
     15379 MEOH     970      MEOH     C1       CD33B     2.31410       11.6110           0  -1.00000       1.30000    
     15380 MEOH     970      MEOH     DC1      DRUD     -2.45410      0.400000           0   0.00000       0.00000    
     15381 MEOH     970      MEOH     O1       OD31H     2.48830       15.5990           0  -1.02800       1.30000    
     15382 MEOH     970      MEOH     DO1      DRUD     -2.48830      0.400000           0   0.00000       0.00000    
     15383 MEOH     970      MEOH     HO1      HDP1A    0.360000       1.00800           0   0.00000       0.00000    
     15384 MEOH     970      MEOH     HO2      DUMH      0.00000       1.00800           0   0.00000       0.00000    
     15385 MEOH     970      MEOH     H1A      HDA3B    0.800000E-01   1.00800           0   0.00000       0.00000    
     15386 MEOH     970      MEOH     H1B      HDA3B    0.800000E-01   1.00800           0   0.00000       0.00000    
     15387 MEOH     970      MEOH     H1C      HDA3B    0.800000E-01   1.00800           0   0.00000       0.00000    
     15388 MEOH     970      MEOH     LP1A     LPD     -0.230000       0.00000          -1   0.00000       0.00000    
     15389 MEOH     970      MEOH     LP1B     LPD     -0.230000       0.00000          -1   0.00000       0.00000    
     15390 MEOH     971      MEOH     C1       CD33B     2.31410       11.6110           0  -1.00000       1.30000    
     15391 MEOH     971      MEOH     DC1      DRUD     -2.45410      0.400000           0   0.00000       0.00000    
     15392 MEOH     971      MEOH     O1       OD31H     2.48830       15.5990           0  -1.02800       1.30000    
     15393 MEOH     971      MEOH     DO1      DRUD     -2.48830      0.400000           0   0.00000       0.00000    
     15394 MEOH     971      MEOH     HO1      HDP1A    0.360000       1.00800           0   0.00000       0.00000    
     15395 MEOH     971      MEOH     HO2      DUMH      0.00000       1.00800           0   0.00000       0.00000    
     15396 MEOH     971      MEOH     H1A      HDA3B    0.800000E-01   1.00800           0   0.00000       0.00000    
     15397 MEOH     971      MEOH     H1B      HDA3B    0.800000E-01   1.00800           0   0.00000       0.00000    
     15398 MEOH     971      MEOH     H1C      HDA3B    0.800000E-01   1.00800           0   0.00000       0.00000    
     15399 MEOH     971      MEOH     LP1A     LPD     -0.230000       0.00000          -1   0.00000       0.00000    
     15400 MEOH     971      MEOH     LP1B     LPD     -0.230000       0.00000          -1   0.00000       0.00000    
     15401 MEOH     972      MEOH     C1       CD33B     2.31410       11.6110           0  -1.00000       1.30000    
     15402 MEOH     972      MEOH     DC1      DRUD     -2.45410      0.400000           0   0.00000       0.00000    
     15403 MEOH     972      MEOH     O1       OD31H     2.48830       15.5990           0  -1.02800       1.30000    
     15404 MEOH     972      MEOH     DO1      DRUD     -2.48830      0.400000           0   0.00000       0.00000    
     15405 MEOH     972      MEOH     HO1      HDP1A    0.360000       1.00800           0   0.00000       0.00000    
     15406 MEOH     972      MEOH     HO2      DUMH      0.00000       1.00800           0   0.00000       0.00000    
     15407 MEOH     972      MEOH     H1A      HDA3B    0.800000E-01   1.00800           0   0.00000       0.00000    
     15408 MEOH     972      MEOH     H1B      HDA3B    0.800000E-01   1.00800           0   0.00000       0.00000    
     15409 MEOH     972      MEOH     H1C      HDA3B    0.800000E-01   1.00800           0   0.00000       0.00000    
     15410 MEOH     972      MEOH     LP1A     LPD     -0.230000       0.00000          -1   0.00000       0.00000    
     15411 MEOH     972      MEOH     LP1B     LPD     -0.230000       0.00000          -1   0.00000       0.00000    
     15412 MEOH     973      MEOH     C1       CD33B     2.31410       11.6110           0  -1.00000       1.30000    
     15413 MEOH     973      MEOH     DC1      DRUD     -2.45410      0.400000           0   0.00000       0.00000    
     15414 MEOH     973      MEOH     O1       OD31H     2.48830       15.5990           0  -1.02800       1.30000    
     15415 MEOH     973      MEOH     DO1      DRUD     -2.48830      0.400000           0   0.00000       0.00000    
     15416 MEOH     973      MEOH     HO1      HDP1A    0.360000       1.00800           0   0.00000       0.00000    
     15417 MEOH     973      MEOH     HO2      DUMH      0.00000       1.00800           0   0.00000       0.00000    
     15418 MEOH     973      MEOH     H1A      HDA3B    0.800000E-01   1.00800           0   0.00000       0.00000    
     15419 MEOH     973      MEOH     H1B      HDA3B    0.800000E-01   1.00800           0   0.00000       0.00000    
     15420 MEOH     973      MEOH     H1C      HDA3B    0.800000E-01   1.00800           0   0.00000       0.00000    
     15421 MEOH     973      MEOH     LP1A     LPD     -0.230000       0.00000          -1   0.00000       0.00000    
     15422 MEOH     973      MEOH     LP1B     LPD     -0.230000       0.00000          -1   0.00000       0.00000    
     15423 MEOH     974      MEOH     C1       CD33B     2.31410       11.6110           0  -1.00000       1.30000    
     15424 MEOH     974      MEOH     DC1      DRUD     -2.45410      0.400000           0   0.00000       0.00000    
     15425 MEOH     974      MEOH     O1       OD31H     2.48830       15.5990           0  -1.02800       1.30000    
     15426 MEOH     974      MEOH     DO1      DRUD     -2.48830      0.400000           0   0.00000       0.00000    
     15427 MEOH     974      MEOH     HO1      HDP1A    0.360000       1.00800           0   0.00000       0.00000    
     15428 MEOH     974      MEOH     HO2      DUMH      0.00000       1.00800           0   0.00000       0.00000    
     15429 MEOH     974      MEOH     H1A      HDA3B    0.800000E-01   1.00800           0   0.00000       0.00000    
     15430 MEOH     974      MEOH     H1B      HDA3B    0.800000E-01   1.00800           0   0.00000       0.00000    
     15431 MEOH     974      MEOH     H1C      HDA3B    0.800000E-01   1.00800           0   0.00000       0.00000    
     15432 MEOH     974      MEOH     LP1A     LPD     -0.230000       0.00000          -1   0.00000       0.00000    
     15433 MEOH     974      MEOH     LP1B     LPD     -0.230000       0.00000          -1   0.00000       0.00000    
     15434 MEOH     975      MEOH     C1       CD33B     2.31410       11.6110           0  -1.00000       1.30000    
     15435 MEOH     975      MEOH     DC1      DRUD     -2.45410      0.400000           0   0.00000       0.00000    
     15436 MEOH     975      MEOH     O1       OD31H     2.48830       15.5990           0  -1.02800       1.30000    
     15437 MEOH     975      MEOH     DO1      DRUD     -2.48830      0.400000           0   0.00000       0.00000    
     15438 MEOH     975      MEOH     HO1      HDP1A    0.360000       1.00800           0   0.00000       0.00000    
     15439 MEOH     975      MEOH     HO2      DUMH      0.00000       1.00800           0   0.00000       0.00000    
     15440 MEOH     975      MEOH     H1A      HDA3B    0.800000E-01   1.00800           0   0.00000       0.00000    
     15441 MEOH     975      MEOH     H1B      HDA3B    0.800000E-01   1.00800           0   0.00000       0.00000    
     15442 MEOH     975      MEOH     H1C      HDA3B    0.800000E-01   1.00800           0   0.00000       0.00000    
     15443 MEOH     975      MEOH     LP1A     LPD     -0.230000       0.00000          -1   0.00000       0.00000    
     15444 MEOH     975      MEOH     LP1B     LPD     -0.230000       0.00000          -1   0.00000       0.00000    
     15445 MEOH     976      MEOH     C1       CD33B     2.31410       11.6110           0  -1.00000       1.30000    
     15446 MEOH     976      MEOH     DC1      DRUD     -2.45410      0.400000           0   0.00000       0.00000    
     15447 MEOH     976      MEOH     O1       OD31H     2.48830       15.5990           0  -1.02800       1.30000    
     15448 MEOH     976      MEOH     DO1      DRUD     -2.48830      0.400000           0   0.00000       0.00000    
     15449 MEOH     976      MEOH     HO1      HDP1A    0.360000       1.00800           0   0.00000       0.00000    
     15450 MEOH     976      MEOH     HO2      DUMH      0.00000       1.00800           0   0.00000       0.00000    
     15451 MEOH     976      MEOH     H1A      HDA3B    0.800000E-01   1.00800           0   0.00000       0.00000    
     15452 MEOH     976      MEOH     H1B      HDA3B    0.800000E-01   1.00800           0   0.00000       0.00000    
     15453 MEOH     976      MEOH     H1C      HDA3B    0.800000E-01   1.00800           0   0.00000       0.00000    
     15454 MEOH     976      MEOH     LP1A     LPD     -0.230000       0.00000          -1   0.00000       0.00000    
     15455 MEOH     976      MEOH     LP1B     LPD     -0.230000       0.00000          -1   0.00000       0.00000    
     15456 MEOH     977      MEOH     C1       CD33B     2.31410       11.6110           0  -1.00000       1.30000    
     15457 MEOH     977      MEOH     DC1      DRUD     -2.45410      0.400000           0   0.00000       0.00000    
     15458 MEOH     977      MEOH     O1       OD31H     2.48830       15.5990           0  -1.02800       1.30000    
     15459 MEOH     977      MEOH     DO1      DRUD     -2.48830      0.400000           0   0.00000       0.00000    
     15460 MEOH     977      MEOH     HO1      HDP1A    0.360000       1.00800           0   0.00000       0.00000    
     15461 MEOH     977      MEOH     HO2      DUMH      0.00000       1.00800           0   0.00000       0.00000    
     15462 MEOH     977      MEOH     H1A      HDA3B    0.800000E-01   1.00800           0   0.00000       0.00000    
     15463 MEOH     977      MEOH     H1B      HDA3B    0.800000E-01   1.00800           0   0.00000       0.00000    
     15464 MEOH     977      MEOH     H1C      HDA3B    0.800000E-01   1.00800           0   0.00000       0.00000    
     15465 MEOH     977      MEOH     LP1A     LPD     -0.230000       0.00000          -1   0.00000       0.00000    
     15466 MEOH     977      MEOH     LP1B     LPD     -0.230000       0.00000          -1   0.00000       0.00000    
     15467 MEOH     978      MEOH     C1       CD33B     2.31410       11.6110           0  -1.00000       1.30000    
     15468 MEOH     978      MEOH     DC1      DRUD     -2.45410      0.400000           0   0.00000       0.00000    
     15469 MEOH     978      MEOH     O1       OD31H     2.48830       15.5990           0  -1.02800       1.30000    
     15470 MEOH     978      MEOH     DO1      DRUD     -2.48830      0.400000           0   0.00000       0.00000    
     15471 MEOH     978      MEOH     HO1      HDP1A    0.360000       1.00800           0   0.00000       0.00000    
     15472 MEOH     978      MEOH     HO2      DUMH      0.00000       1.00800           0   0.00000       0.00000    
     15473 MEOH     978      MEOH     H1A      HDA3B    0.800000E-01   1.00800           0   0.00000       0.00000    
     15474 MEOH     978      MEOH     H1B      HDA3B    0.800000E-01   1.00800           0   0.00000       0.00000    
     15475 MEOH     978      MEOH     H1C      HDA3B    0.800000E-01   1.00800           0   0.00000       0.00000    
     15476 MEOH     978      MEOH     LP1A     LPD     -0.230000       0.00000          -1   0.00000       0.00000    
     15477 MEOH     978      MEOH     LP1B     LPD     -0.230000       0.00000          -1   0.00000       0.00000    
     15478 MEOH     979      MEOH     C1       CD33B     2.31410       11.6110           0  -1.00000       1.30000    
     15479 MEOH     979      MEOH     DC1      DRUD     -2.45410      0.400000           0   0.00000       0.00000    
     15480 MEOH     979      MEOH     O1       OD31H     2.48830       15.5990           0  -1.02800       1.30000    
     15481 MEOH     979      MEOH     DO1      DRUD     -2.48830      0.400000           0   0.00000       0.00000    
     15482 MEOH     979      MEOH     HO1      HDP1A    0.360000       1.00800           0   0.00000       0.00000    
     15483 MEOH     979      MEOH     HO2      DUMH      0.00000       1.00800           0   0.00000       0.00000    
     15484 MEOH     979      MEOH     H1A      HDA3B    0.800000E-01   1.00800           0   0.00000       0.00000    
     15485 MEOH     979      MEOH     H1B      HDA3B    0.800000E-01   1.00800           0   0.00000       0.00000    
     15486 MEOH     979      MEOH     H1C      HDA3B    0.800000E-01   1.00800           0   0.00000       0.00000    
     15487 MEOH     979      MEOH     LP1A     LPD     -0.230000       0.00000          -1   0.00000       0.00000    
     15488 MEOH     979      MEOH     LP1B     LPD     -0.230000       0.00000          -1   0.00000       0.00000    
     15489 MEOH     980      MEOH     C1       CD33B     2.31410       11.6110           0  -1.00000       1.30000    
     15490 MEOH     980      MEOH     DC1      DRUD     -2.45410      0.400000           0   0.00000       0.00000    
     15491 MEOH     980      MEOH     O1       OD31H     2.48830       15.5990           0  -1.02800       1.30000    
     15492 MEOH     980      MEOH     DO1      DRUD     -2.48830      0.400000           0   0.00000       0.00000    
     15493 MEOH     980      MEOH     HO1      HDP1A    0.360000       1.00800           0   0.00000       0.00000    
     15494 MEOH     980      MEOH     HO2      DUMH      0.00000       1.00800           0   0.00000       0.00000    
     15495 MEOH     980      MEOH     H1A      HDA3B    0.800000E-01   1.00800           0   0.00000       0.00000    
     15496 MEOH     980      MEOH     H1B      HDA3B    0.800000E-01   1.00800           0   0.00000       0.00000    
     15497 MEOH     980      MEOH     H1C      HDA3B    0.800000E-01   1.00800           0   0.00000       0.00000    
     15498 MEOH     980      MEOH     LP1A     LPD     -0.230000       0.00000          -1   0.00000       0.00000    
     15499 MEOH     980      MEOH     LP1B     LPD     -0.230000       0.00000          -1   0.00000       0.00000    
     15500 MEOH     981      MEOH     C1       CD33B     2.31410       11.6110           0  -1.00000       1.30000    
     15501 MEOH     981      MEOH     DC1      DRUD     -2.45410      0.400000           0   0.00000       0.00000    
     15502 MEOH     981      MEOH     O1       OD31H     2.48830       15.5990           0  -1.02800       1.30000    
     15503 MEOH     981      MEOH     DO1      DRUD     -2.48830      0.400000           0   0.00000       0.00000    
     15504 MEOH     981      MEOH     HO1      HDP1A    0.360000       1.00800           0   0.00000       0.00000    
     15505 MEOH     981      MEOH     HO2      DUMH      0.00000       1.00800           0   0.00000       0.00000    
     15506 MEOH     981      MEOH     H1A      HDA3B    0.800000E-01   1.00800           0   0.00000       0.00000    
     15507 MEOH     981      MEOH     H1B      HDA3B    0.800000E-01   1.00800           0   0.00000       0.00000    
     15508 MEOH     981      MEOH     H1C      HDA3B    0.800000E-01   1.00800           0   0.00000       0.00000    
     15509 MEOH     981      MEOH     LP1A     LPD     -0.230000       0.00000          -1   0.00000       0.00000    
     15510 MEOH     981      MEOH     LP1B     LPD     -0.230000       0.00000          -1   0.00000       0.00000    
     15511 MEOH     982      MEOH     C1       CD33B     2.31410       11.6110           0  -1.00000       1.30000    
     15512 MEOH     982      MEOH     DC1      DRUD     -2.45410      0.400000           0   0.00000       0.00000    
     15513 MEOH     982      MEOH     O1       OD31H     2.48830       15.5990           0  -1.02800       1.30000    
     15514 MEOH     982      MEOH     DO1      DRUD     -2.48830      0.400000           0   0.00000       0.00000    
     15515 MEOH     982      MEOH     HO1      HDP1A    0.360000       1.00800           0   0.00000       0.00000    
     15516 MEOH     982      MEOH     HO2      DUMH      0.00000       1.00800           0   0.00000       0.00000    
     15517 MEOH     982      MEOH     H1A      HDA3B    0.800000E-01   1.00800           0   0.00000       0.00000    
     15518 MEOH     982      MEOH     H1B      HDA3B    0.800000E-01   1.00800           0   0.00000       0.00000    
     15519 MEOH     982      MEOH     H1C      HDA3B    0.800000E-01   1.00800           0   0.00000       0.00000    
     15520 MEOH     982      MEOH     LP1A     LPD     -0.230000       0.00000          -1   0.00000       0.00000    
     15521 MEOH     982      MEOH     LP1B     LPD     -0.230000       0.00000          -1   0.00000       0.00000    
     15522 MEOH     983      MEOH     C1       CD33B     2.31410       11.6110           0  -1.00000       1.30000    
     15523 MEOH     983      MEOH     DC1      DRUD     -2.45410      0.400000           0   0.00000       0.00000    
     15524 MEOH     983      MEOH     O1       OD31H     2.48830       15.5990           0  -1.02800       1.30000    
     15525 MEOH     983      MEOH     DO1      DRUD     -2.48830      0.400000           0   0.00000       0.00000    
     15526 MEOH     983      MEOH     HO1      HDP1A    0.360000       1.00800           0   0.00000       0.00000    
     15527 MEOH     983      MEOH     HO2      DUMH      0.00000       1.00800           0   0.00000       0.00000    
     15528 MEOH     983      MEOH     H1A      HDA3B    0.800000E-01   1.00800           0   0.00000       0.00000    
     15529 MEOH     983      MEOH     H1B      HDA3B    0.800000E-01   1.00800           0   0.00000       0.00000    
     15530 MEOH     983      MEOH     H1C      HDA3B    0.800000E-01   1.00800           0   0.00000       0.00000    
     15531 MEOH     983      MEOH     LP1A     LPD     -0.230000       0.00000          -1   0.00000       0.00000    
     15532 MEOH     983      MEOH     LP1B     LPD     -0.230000       0.00000          -1   0.00000       0.00000    
     15533 MEOH     984      MEOH     C1       CD33B     2.31410       11.6110           0  -1.00000       1.30000    
     15534 MEOH     984      MEOH     DC1      DRUD     -2.45410      0.400000           0   0.00000       0.00000    
     15535 MEOH     984      MEOH     O1       OD31H     2.48830       15.5990           0  -1.02800       1.30000    
     15536 MEOH     984      MEOH     DO1      DRUD     -2.48830      0.400000           0   0.00000       0.00000    
     15537 MEOH     984      MEOH     HO1      HDP1A    0.360000       1.00800           0   0.00000       0.00000    
     15538 MEOH     984      MEOH     HO2      DUMH      0.00000       1.00800           0   0.00000       0.00000    
     15539 MEOH     984      MEOH     H1A      HDA3B    0.800000E-01   1.00800           0   0.00000       0.00000    
     15540 MEOH     984      MEOH     H1B      HDA3B    0.800000E-01   1.00800           0   0.00000       0.00000    
     15541 MEOH     984      MEOH     H1C      HDA3B    0.800000E-01   1.00800           0   0.00000       0.00000    
     15542 MEOH     984      MEOH     LP1A     LPD     -0.230000       0.00000          -1   0.00000       0.00000    
     15543 MEOH     984      MEOH     LP1B     LPD     -0.230000       0.00000          -1   0.00000       0.00000    
     15544 MEOH     985      MEOH     C1       CD33B     2.31410       11.6110           0  -1.00000       1.30000    
     15545 MEOH     985      MEOH     DC1      DRUD     -2.45410      0.400000           0   0.00000       0.00000    
     15546 MEOH     985      MEOH     O1       OD31H     2.48830       15.5990           0  -1.02800       1.30000    
     15547 MEOH     985      MEOH     DO1      DRUD     -2.48830      0.400000           0   0.00000       0.00000    
     15548 MEOH     985      MEOH     HO1      HDP1A    0.360000       1.00800           0   0.00000       0.00000    
     15549 MEOH     985      MEOH     HO2      DUMH      0.00000       1.00800           0   0.00000       0.00000    
     15550 MEOH     985      MEOH     H1A      HDA3B    0.800000E-01   1.00800           0   0.00000       0.00000    
     15551 MEOH     985      MEOH     H1B      HDA3B    0.800000E-01   1.00800           0   0.00000       0.00000    
     15552 MEOH     985      MEOH     H1C      HDA3B    0.800000E-01   1.00800           0   0.00000       0.00000    
     15553 MEOH     985      MEOH     LP1A     LPD     -0.230000       0.00000          -1   0.00000       0.00000    
     15554 MEOH     985      MEOH     LP1B     LPD     -0.230000       0.00000          -1   0.00000       0.00000    
     15555 MEOH     986      MEOH     C1       CD33B     2.31410       11.6110           0  -1.00000       1.30000    
     15556 MEOH     986      MEOH     DC1      DRUD     -2.45410      0.400000           0   0.00000       0.00000    
     15557 MEOH     986      MEOH     O1       OD31H     2.48830       15.5990           0  -1.02800       1.30000    
     15558 MEOH     986      MEOH     DO1      DRUD     -2.48830      0.400000           0   0.00000       0.00000    
     15559 MEOH     986      MEOH     HO1      HDP1A    0.360000       1.00800           0   0.00000       0.00000    
     15560 MEOH     986      MEOH     HO2      DUMH      0.00000       1.00800           0   0.00000       0.00000    
     15561 MEOH     986      MEOH     H1A      HDA3B    0.800000E-01   1.00800           0   0.00000       0.00000    
     15562 MEOH     986      MEOH     H1B      HDA3B    0.800000E-01   1.00800           0   0.00000       0.00000    
     15563 MEOH     986      MEOH     H1C      HDA3B    0.800000E-01   1.00800           0   0.00000       0.00000    
     15564 MEOH     986      MEOH     LP1A     LPD     -0.230000       0.00000          -1   0.00000       0.00000    
     15565 MEOH     986      MEOH     LP1B     LPD     -0.230000       0.00000          -1   0.00000       0.00000    
     15566 MEOH     987      MEOH     C1       CD33B     2.31410       11.6110           0  -1.00000       1.30000    
     15567 MEOH     987      MEOH     DC1      DRUD     -2.45410      0.400000           0   0.00000       0.00000    
     15568 MEOH     987      MEOH     O1       OD31H     2.48830       15.5990           0  -1.02800       1.30000    
     15569 MEOH     987      MEOH     DO1      DRUD     -2.48830      0.400000           0   0.00000       0.00000    
     15570 MEOH     987      MEOH     HO1      HDP1A    0.360000       1.00800           0   0.00000       0.00000    
     15571 MEOH     987      MEOH     HO2      DUMH      0.00000       1.00800           0   0.00000       0.00000    
     15572 MEOH     987      MEOH     H1A      HDA3B    0.800000E-01   1.00800           0   0.00000       0.00000    
     15573 MEOH     987      MEOH     H1B      HDA3B    0.800000E-01   1.00800           0   0.00000       0.00000    
     15574 MEOH     987      MEOH     H1C      HDA3B    0.800000E-01   1.00800           0   0.00000       0.00000    
     15575 MEOH     987      MEOH     LP1A     LPD     -0.230000       0.00000          -1   0.00000       0.00000    
     15576 MEOH     987      MEOH     LP1B     LPD     -0.230000       0.00000          -1   0.00000       0.00000    
     15577 MEOH     988      MEOH     C1       CD33B     2.31410       11.6110           0  -1.00000       1.30000    
     15578 MEOH     988      MEOH     DC1      DRUD     -2.45410      0.400000           0   0.00000       0.00000    
     15579 MEOH     988      MEOH     O1       OD31H     2.48830       15.5990           0  -1.02800       1.30000    
     15580 MEOH     988      MEOH     DO1      DRUD     -2.48830      0.400000           0   0.00000       0.00000    
     15581 MEOH     988      MEOH     HO1      HDP1A    0.360000       1.00800           0   0.00000       0.00000    
     15582 MEOH     988      MEOH     HO2      DUMH      0.00000       1.00800           0   0.00000       0.00000    
     15583 MEOH     988      MEOH     H1A      HDA3B    0.800000E-01   1.00800           0   0.00000       0.00000    
     15584 MEOH     988      MEOH     H1B      HDA3B    0.800000E-01   1.00800           0   0.00000       0.00000    
     15585 MEOH     988      MEOH     H1C      HDA3B    0.800000E-01   1.00800           0   0.00000       0.00000    
     15586 MEOH     988      MEOH     LP1A     LPD     -0.230000       0.00000          -1   0.00000       0.00000    
     15587 MEOH     988      MEOH     LP1B     LPD     -0.230000       0.00000          -1   0.00000       0.00000    
     15588 MEOH     989      MEOH     C1       CD33B     2.31410       11.6110           0  -1.00000       1.30000    
     15589 MEOH     989      MEOH     DC1      DRUD     -2.45410      0.400000           0   0.00000       0.00000    
     15590 MEOH     989      MEOH     O1       OD31H     2.48830       15.5990           0  -1.02800       1.30000    
     15591 MEOH     989      MEOH     DO1      DRUD     -2.48830      0.400000           0   0.00000       0.00000    
     15592 MEOH     989      MEOH     HO1      HDP1A    0.360000       1.00800           0   0.00000       0.00000    
     15593 MEOH     989      MEOH     HO2      DUMH      0.00000       1.00800           0   0.00000       0.00000    
     15594 MEOH     989      MEOH     H1A      HDA3B    0.800000E-01   1.00800           0   0.00000       0.00000    
     15595 MEOH     989      MEOH     H1B      HDA3B    0.800000E-01   1.00800           0   0.00000       0.00000    
     15596 MEOH     989      MEOH     H1C      HDA3B    0.800000E-01   1.00800           0   0.00000       0.00000    
     15597 MEOH     989      MEOH     LP1A     LPD     -0.230000       0.00000          -1   0.00000       0.00000    
     15598 MEOH     989      MEOH     LP1B     LPD     -0.230000       0.00000          -1   0.00000       0.00000    
     15599 MEOH     990      MEOH     C1       CD33B     2.31410       11.6110           0  -1.00000       1.30000    
     15600 MEOH     990      MEOH     DC1      DRUD     -2.45410      0.400000           0   0.00000       0.00000    
     15601 MEOH     990      MEOH     O1       OD31H     2.48830       15.5990           0  -1.02800       1.30000    
     15602 MEOH     990      MEOH     DO1      DRUD     -2.48830      0.400000           0   0.00000       0.00000    
     15603 MEOH     990      MEOH     HO1      HDP1A    0.360000       1.00800           0   0.00000       0.00000    
     15604 MEOH     990      MEOH     HO2      DUMH      0.00000       1.00800           0   0.00000       0.00000    
     15605 MEOH     990      MEOH     H1A      HDA3B    0.800000E-01   1.00800           0   0.00000       0.00000    
     15606 MEOH     990      MEOH     H1B      HDA3B    0.800000E-01   1.00800           0   0.00000       0.00000    
     15607 MEOH     990      MEOH     H1C      HDA3B    0.800000E-01   1.00800           0   0.00000       0.00000    
     15608 MEOH     990      MEOH     LP1A     LPD     -0.230000       0.00000          -1   0.00000       0.00000    
     15609 MEOH     990      MEOH     LP1B     LPD     -0.230000       0.00000          -1   0.00000       0.00000    
     15610 MEOH     991      MEOH     C1       CD33B     2.31410       11.6110           0  -1.00000       1.30000    
     15611 MEOH     991      MEOH     DC1      DRUD     -2.45410      0.400000           0   0.00000       0.00000    
     15612 MEOH     991      MEOH     O1       OD31H     2.48830       15.5990           0  -1.02800       1.30000    
     15613 MEOH     991      MEOH     DO1      DRUD     -2.48830      0.400000           0   0.00000       0.00000    
     15614 MEOH     991      MEOH     HO1      HDP1A    0.360000       1.00800           0   0.00000       0.00000    
     15615 MEOH     991      MEOH     HO2      DUMH      0.00000       1.00800           0   0.00000       0.00000    
     15616 MEOH     991      MEOH     H1A      HDA3B    0.800000E-01   1.00800           0   0.00000       0.00000    
     15617 MEOH     991      MEOH     H1B      HDA3B    0.800000E-01   1.00800           0   0.00000       0.00000    
     15618 MEOH     991      MEOH     H1C      HDA3B    0.800000E-01   1.00800           0   0.00000       0.00000    
     15619 MEOH     991      MEOH     LP1A     LPD     -0.230000       0.00000          -1   0.00000       0.00000    
     15620 MEOH     991      MEOH     LP1B     LPD     -0.230000       0.00000          -1   0.00000       0.00000    
     15621 MEOH     992      MEOH     C1       CD33B     2.31410       11.6110           0  -1.00000       1.30000    
     15622 MEOH     992      MEOH     DC1      DRUD     -2.45410      0.400000           0   0.00000       0.00000    
     15623 MEOH     992      MEOH     O1       OD31H     2.48830       15.5990           0  -1.02800       1.30000    
     15624 MEOH     992      MEOH     DO1      DRUD     -2.48830      0.400000           0   0.00000       0.00000    
     15625 MEOH     992      MEOH     HO1      HDP1A    0.360000       1.00800           0   0.00000       0.00000    
     15626 MEOH     992      MEOH     HO2      DUMH      0.00000       1.00800           0   0.00000       0.00000    
     15627 MEOH     992      MEOH     H1A      HDA3B    0.800000E-01   1.00800           0   0.00000       0.00000    
     15628 MEOH     992      MEOH     H1B      HDA3B    0.800000E-01   1.00800           0   0.00000       0.00000    
     15629 MEOH     992      MEOH     H1C      HDA3B    0.800000E-01   1.00800           0   0.00000       0.00000    
     15630 MEOH     992      MEOH     LP1A     LPD     -0.230000       0.00000          -1   0.00000       0.00000    
     15631 MEOH     992      MEOH     LP1B     LPD     -0.230000       0.00000          -1   0.00000       0.00000    
     15632 MEOH     993      MEOH     C1       CD33B     2.31410       11.6110           0  -1.00000       1.30000    
     15633 MEOH     993      MEOH     DC1      DRUD     -2.45410      0.400000           0   0.00000       0.00000    
     15634 MEOH     993      MEOH     O1       OD31H     2.48830       15.5990           0  -1.02800       1.30000    
     15635 MEOH     993      MEOH     DO1      DRUD     -2.48830      0.400000           0   0.00000       0.00000    
     15636 MEOH     993      MEOH     HO1      HDP1A    0.360000       1.00800           0   0.00000       0.00000    
     15637 MEOH     993      MEOH     HO2      DUMH      0.00000       1.00800           0   0.00000       0.00000    
     15638 MEOH     993      MEOH     H1A      HDA3B    0.800000E-01   1.00800           0   0.00000       0.00000    
     15639 MEOH     993      MEOH     H1B      HDA3B    0.800000E-01   1.00800           0   0.00000       0.00000    
     15640 MEOH     993      MEOH     H1C      HDA3B    0.800000E-01   1.00800           0   0.00000       0.00000    
     15641 MEOH     993      MEOH     LP1A     LPD     -0.230000       0.00000          -1   0.00000       0.00000    
     15642 MEOH     993      MEOH     LP1B     LPD     -0.230000       0.00000          -1   0.00000       0.00000    
     15643 MEOH     994      MEOH     C1       CD33B     2.31410       11.6110           0  -1.00000       1.30000    
     15644 MEOH     994      MEOH     DC1      DRUD     -2.45410      0.400000           0   0.00000       0.00000    
     15645 MEOH     994      MEOH     O1       OD31H     2.48830       15.5990           0  -1.02800       1.30000    
     15646 MEOH     994      MEOH     DO1      DRUD     -2.48830      0.400000           0   0.00000       0.00000    
     15647 MEOH     994      MEOH     HO1      HDP1A    0.360000       1.00800           0   0.00000       0.00000    
     15648 MEOH     994      MEOH     HO2      DUMH      0.00000       1.00800           0   0.00000       0.00000    
     15649 MEOH     994      MEOH     H1A      HDA3B    0.800000E-01   1.00800           0   0.00000       0.00000    
     15650 MEOH     994      MEOH     H1B      HDA3B    0.800000E-01   1.00800           0   0.00000       0.00000    
     15651 MEOH     994      MEOH     H1C      HDA3B    0.800000E-01   1.00800           0   0.00000       0.00000    
     15652 MEOH     994      MEOH     LP1A     LPD     -0.230000       0.00000          -1   0.00000       0.00000    
     15653 MEOH     994      MEOH     LP1B     LPD     -0.230000       0.00000          -1   0.00000       0.00000    
     15654 MEOH     995      MEOH     C1       CD33B     2.31410       11.6110           0  -1.00000       1.30000    
     15655 MEOH     995      MEOH     DC1      DRUD     -2.45410      0.400000           0   0.00000       0.00000    
     15656 MEOH     995      MEOH     O1       OD31H     2.48830       15.5990           0  -1.02800       1.30000    
     15657 MEOH     995      MEOH     DO1      DRUD     -2.48830      0.400000           0   0.00000       0.00000    
     15658 MEOH     995      MEOH     HO1      HDP1A    0.360000       1.00800           0   0.00000       0.00000    
     15659 MEOH     995      MEOH     HO2      DUMH      0.00000       1.00800           0   0.00000       0.00000    
     15660 MEOH     995      MEOH     H1A      HDA3B    0.800000E-01   1.00800           0   0.00000       0.00000    
     15661 MEOH     995      MEOH     H1B      HDA3B    0.800000E-01   1.00800           0   0.00000       0.00000    
     15662 MEOH     995      MEOH     H1C      HDA3B    0.800000E-01   1.00800           0   0.00000       0.00000    
     15663 MEOH     995      MEOH     LP1A     LPD     -0.230000       0.00000          -1   0.00000       0.00000    
     15664 MEOH     995      MEOH     LP1B     LPD     -0.230000       0.00000          -1   0.00000       0.00000    
     15665 MEOH     996      MEOH     C1       CD33B     2.31410       11.6110           0  -1.00000       1.30000    
     15666 MEOH     996      MEOH     DC1      DRUD     -2.45410      0.400000           0   0.00000       0.00000    
     15667 MEOH     996      MEOH     O1       OD31H     2.48830       15.5990           0  -1.02800       1.30000    
     15668 MEOH     996      MEOH     DO1      DRUD     -2.48830      0.400000           0   0.00000       0.00000    
     15669 MEOH     996      MEOH     HO1      HDP1A    0.360000       1.00800           0   0.00000       0.00000    
     15670 MEOH     996      MEOH     HO2      DUMH      0.00000       1.00800           0   0.00000       0.00000    
     15671 MEOH     996      MEOH     H1A      HDA3B    0.800000E-01   1.00800           0   0.00000       0.00000    
     15672 MEOH     996      MEOH     H1B      HDA3B    0.800000E-01   1.00800           0   0.00000       0.00000    
     15673 MEOH     996      MEOH     H1C      HDA3B    0.800000E-01   1.00800           0   0.00000       0.00000    
     15674 MEOH     996      MEOH     LP1A     LPD     -0.230000       0.00000          -1   0.00000       0.00000    
     15675 MEOH     996      MEOH     LP1B     LPD     -0.230000       0.00000          -1   0.00000       0.00000    
     15676 MEOH     997      MEOH     C1       CD33B     2.31410       11.6110           0  -1.00000       1.30000    
     15677 MEOH     997      MEOH     DC1      DRUD     -2.45410      0.400000           0   0.00000       0.00000    
     15678 MEOH     997      MEOH     O1       OD31H     2.48830       15.5990           0  -1.02800       1.30000    
     15679 MEOH     997      MEOH     DO1      DRUD     -2.48830      0.400000           0   0.00000       0.00000    
     15680 MEOH     997      MEOH     HO1      HDP1A    0.360000       1.00800           0   0.00000       0.00000    
     15681 MEOH     997      MEOH     HO2      DUMH      0.00000       1.00800           0   0.00000       0.00000    
     15682 MEOH     997      MEOH     H1A      HDA3B    0.800000E-01   1.00800           0   0.00000       0.00000    
     15683 MEOH     997      MEOH     H1B      HDA3B    0.800000E-01   1.00800           0   0.00000       0.00000    
     15684 MEOH     997      MEOH     H1C      HDA3B    0.800000E-01   1.00800           0   0.00000       0.00000    
     15685 MEOH     997      MEOH     LP1A     LPD     -0.230000       0.00000          -1   0.00000       0.00000    
     15686 MEOH     997      MEOH     LP1B     LPD     -0.230000       0.00000          -1   0.00000       0.00000    
     15687 MEOH     998      MEOH     C1       CD33B     2.31410       11.6110           0  -1.00000       1.30000    
     15688 MEOH     998      MEOH     DC1      DRUD     -2.45410      0.400000           0   0.00000       0.00000    
     15689 MEOH     998      MEOH     O1       OD31H     2.48830       15.5990           0  -1.02800       1.30000    
     15690 MEOH     998      MEOH     DO1      DRUD     -2.48830      0.400000           0   0.00000       0.00000    
     15691 MEOH     998      MEOH     HO1      HDP1A    0.360000       1.00800           0   0.00000       0.00000    
     15692 MEOH     998      MEOH     HO2      DUMH      0.00000       1.00800           0   0.00000       0.00000    
     15693 MEOH     998      MEOH     H1A      HDA3B    0.800000E-01   1.00800           0   0.00000       0.00000    
     15694 MEOH     998      MEOH     H1B      HDA3B    0.800000E-01   1.00800           0   0.00000       0.00000    
     15695 MEOH     998      MEOH     H1C      HDA3B    0.800000E-01   1.00800           0   0.00000       0.00000    
     15696 MEOH     998      MEOH     LP1A     LPD     -0.230000       0.00000          -1   0.00000       0.00000    
     15697 MEOH     998      MEOH     LP1B     LPD     -0.230000       0.00000          -1   0.00000       0.00000    
     15698 MEOH     999      MEOH     C1       CD33B     2.31410       11.6110           0  -1.00000       1.30000    
     15699 MEOH     999      MEOH     DC1      DRUD     -2.45410      0.400000           0   0.00000       0.00000    
     15700 MEOH     999      MEOH     O1       OD31H     2.48830       15.5990           0  -1.02800       1.30000    
     15701 MEOH     999      MEOH     DO1      DRUD     -2.48830      0.400000           0   0.00000       0.00000    
     15702 MEOH     999      MEOH     HO1      HDP1A    0.360000       1.00800           0   0.00000       0.00000    
     15703 MEOH     999      MEOH     HO2      DUMH      0.00000       1.00800           0   0.00000       0.00000    
     15704 MEOH     999      MEOH     H1A      HDA3B    0.800000E-01   1.00800           0   0.00000       0.00000    
     15705 MEOH     999      MEOH     H1B      HDA3B    0.800000E-01   1.00800           0   0.00000       0.00000    
     15706 MEOH     999      MEOH     H1C      HDA3B    0.800000E-01   1.00800           0   0.00000       0.00000    
     15707 MEOH     999      MEOH     LP1A     LPD     -0.230000       0.00000          -1   0.00000       0.00000    
     15708 MEOH     999      MEOH     LP1B     LPD     -0.230000       0.00000          -1   0.00000       0.00000    
     15709 MEOH     1000     MEOH     C1       CD33B     2.31410       11.6110           0  -1.00000       1.30000    
     15710 MEOH     1000     MEOH     DC1      DRUD     -2.45410      0.400000           0   0.00000       0.00000    
     15711 MEOH     1000     MEOH     O1       OD31H     2.48830       15.5990           0  -1.02800       1.30000    
     15712 MEOH     1000     MEOH     DO1      DRUD     -2.48830      0.400000           0   0.00000       0.00000    
     15713 MEOH     1000     MEOH     HO1      HDP1A    0.360000       1.00800           0   0.00000       0.00000    
     15714 MEOH     1000     MEOH     HO2      DUMH      0.00000       1.00800           0   0.00000       0.00000    
     15715 MEOH     1000     MEOH     H1A      HDA3B    0.800000E-01   1.00800           0   0.00000       0.00000    
     15716 MEOH     1000     MEOH     H1B      HDA3B    0.800000E-01   1.00800           0   0.00000       0.00000    
     15717 MEOH     1000     MEOH     H1C      HDA3B    0.800000E-01   1.00800           0   0.00000       0.00000    
     15718 MEOH     1000     MEOH     LP1A     LPD     -0.230000       0.00000          -1   0.00000       0.00000    
     15719 MEOH     1000     MEOH     LP1B     LPD     -0.230000       0.00000          -1   0.00000       0.00000    
     15720 MEOH     1001     MEOH     C1       CD33B     2.31410       11.6110           0  -1.00000       1.30000    
     15721 MEOH     1001     MEOH     DC1      DRUD     -2.45410      0.400000           0   0.00000       0.00000    
     15722 MEOH     1001     MEOH     O1       OD31H     2.48830       15.5990           0  -1.02800       1.30000    
     15723 MEOH     1001     MEOH     DO1      DRUD     -2.48830      0.400000           0   0.00000       0.00000    
     15724 MEOH     1001     MEOH     HO1      HDP1A    0.360000       1.00800           0   0.00000       0.00000    
     15725 MEOH     1001     MEOH     HO2      DUMH      0.00000       1.00800           0   0.00000       0.00000    
     15726 MEOH     1001     MEOH     H1A      HDA3B    0.800000E-01   1.00800           0   0.00000       0.00000    
     15727 MEOH     1001     MEOH     H1B      HDA3B    0.800000E-01   1.00800           0   0.00000       0.00000    
     15728 MEOH     1001     MEOH     H1C      HDA3B    0.800000E-01   1.00800           0   0.00000       0.00000    
     15729 MEOH     1001     MEOH     LP1A     LPD     -0.230000       0.00000          -1   0.00000       0.00000    
     15730 MEOH     1001     MEOH     LP1B     LPD     -0.230000       0.00000          -1   0.00000       0.00000    
     15731 MEOH     1002     MEOH     C1       CD33B     2.31410       11.6110           0  -1.00000       1.30000    
     15732 MEOH     1002     MEOH     DC1      DRUD     -2.45410      0.400000           0   0.00000       0.00000    
     15733 MEOH     1002     MEOH     O1       OD31H     2.48830       15.5990           0  -1.02800       1.30000    
     15734 MEOH     1002     MEOH     DO1      DRUD     -2.48830      0.400000           0   0.00000       0.00000    
     15735 MEOH     1002     MEOH     HO1      HDP1A    0.360000       1.00800           0   0.00000       0.00000    
     15736 MEOH     1002     MEOH     HO2      DUMH      0.00000       1.00800           0   0.00000       0.00000    
     15737 MEOH     1002     MEOH     H1A      HDA3B    0.800000E-01   1.00800           0   0.00000       0.00000    
     15738 MEOH     1002     MEOH     H1B      HDA3B    0.800000E-01   1.00800           0   0.00000       0.00000    
     15739 MEOH     1002     MEOH     H1C      HDA3B    0.800000E-01   1.00800           0   0.00000       0.00000    
     15740 MEOH     1002     MEOH     LP1A     LPD     -0.230000       0.00000          -1   0.00000       0.00000    
     15741 MEOH     1002     MEOH     LP1B     LPD     -0.230000       0.00000          -1   0.00000       0.00000    
     15742 MEOH     1003     MEOH     C1       CD33B     2.31410       11.6110           0  -1.00000       1.30000    
     15743 MEOH     1003     MEOH     DC1      DRUD     -2.45410      0.400000           0   0.00000       0.00000    
     15744 MEOH     1003     MEOH     O1       OD31H     2.48830       15.5990           0  -1.02800       1.30000    
     15745 MEOH     1003     MEOH     DO1      DRUD     -2.48830      0.400000           0   0.00000       0.00000    
     15746 MEOH     1003     MEOH     HO1      HDP1A    0.360000       1.00800           0   0.00000       0.00000    
     15747 MEOH     1003     MEOH     HO2      DUMH      0.00000       1.00800           0   0.00000       0.00000    
     15748 MEOH     1003     MEOH     H1A      HDA3B    0.800000E-01   1.00800           0   0.00000       0.00000    
     15749 MEOH     1003     MEOH     H1B      HDA3B    0.800000E-01   1.00800           0   0.00000       0.00000    
     15750 MEOH     1003     MEOH     H1C      HDA3B    0.800000E-01   1.00800           0   0.00000       0.00000    
     15751 MEOH     1003     MEOH     LP1A     LPD     -0.230000       0.00000          -1   0.00000       0.00000    
     15752 MEOH     1003     MEOH     LP1B     LPD     -0.230000       0.00000          -1   0.00000       0.00000    
     15753 MEOH     1004     MEOH     C1       CD33B     2.31410       11.6110           0  -1.00000       1.30000    
     15754 MEOH     1004     MEOH     DC1      DRUD     -2.45410      0.400000           0   0.00000       0.00000    
     15755 MEOH     1004     MEOH     O1       OD31H     2.48830       15.5990           0  -1.02800       1.30000    
     15756 MEOH     1004     MEOH     DO1      DRUD     -2.48830      0.400000           0   0.00000       0.00000    
     15757 MEOH     1004     MEOH     HO1      HDP1A    0.360000       1.00800           0   0.00000       0.00000    
     15758 MEOH     1004     MEOH     HO2      DUMH      0.00000       1.00800           0   0.00000       0.00000    
     15759 MEOH     1004     MEOH     H1A      HDA3B    0.800000E-01   1.00800           0   0.00000       0.00000    
     15760 MEOH     1004     MEOH     H1B      HDA3B    0.800000E-01   1.00800           0   0.00000       0.00000    
     15761 MEOH     1004     MEOH     H1C      HDA3B    0.800000E-01   1.00800           0   0.00000       0.00000    
     15762 MEOH     1004     MEOH     LP1A     LPD     -0.230000       0.00000          -1   0.00000       0.00000    
     15763 MEOH     1004     MEOH     LP1B     LPD     -0.230000       0.00000          -1   0.00000       0.00000    
     15764 MEOH     1005     MEOH     C1       CD33B     2.31410       11.6110           0  -1.00000       1.30000    
     15765 MEOH     1005     MEOH     DC1      DRUD     -2.45410      0.400000           0   0.00000       0.00000    
     15766 MEOH     1005     MEOH     O1       OD31H     2.48830       15.5990           0  -1.02800       1.30000    
     15767 MEOH     1005     MEOH     DO1      DRUD     -2.48830      0.400000           0   0.00000       0.00000    
     15768 MEOH     1005     MEOH     HO1      HDP1A    0.360000       1.00800           0   0.00000       0.00000    
     15769 MEOH     1005     MEOH     HO2      DUMH      0.00000       1.00800           0   0.00000       0.00000    
     15770 MEOH     1005     MEOH     H1A      HDA3B    0.800000E-01   1.00800           0   0.00000       0.00000    
     15771 MEOH     1005     MEOH     H1B      HDA3B    0.800000E-01   1.00800           0   0.00000       0.00000    
     15772 MEOH     1005     MEOH     H1C      HDA3B    0.800000E-01   1.00800           0   0.00000       0.00000    
     15773 MEOH     1005     MEOH     LP1A     LPD     -0.230000       0.00000          -1   0.00000       0.00000    
     15774 MEOH     1005     MEOH     LP1B     LPD     -0.230000       0.00000          -1   0.00000       0.00000    
     15775 MEOH     1006     MEOH     C1       CD33B     2.31410       11.6110           0  -1.00000       1.30000    
     15776 MEOH     1006     MEOH     DC1      DRUD     -2.45410      0.400000           0   0.00000       0.00000    
     15777 MEOH     1006     MEOH     O1       OD31H     2.48830       15.5990           0  -1.02800       1.30000    
     15778 MEOH     1006     MEOH     DO1      DRUD     -2.48830      0.400000           0   0.00000       0.00000    
     15779 MEOH     1006     MEOH     HO1      HDP1A    0.360000       1.00800           0   0.00000       0.00000    
     15780 MEOH     1006     MEOH     HO2      DUMH      0.00000       1.00800           0   0.00000       0.00000    
     15781 MEOH     1006     MEOH     H1A      HDA3B    0.800000E-01   1.00800           0   0.00000       0.00000    
     15782 MEOH     1006     MEOH     H1B      HDA3B    0.800000E-01   1.00800           0   0.00000       0.00000    
     15783 MEOH     1006     MEOH     H1C      HDA3B    0.800000E-01   1.00800           0   0.00000       0.00000    
     15784 MEOH     1006     MEOH     LP1A     LPD     -0.230000       0.00000          -1   0.00000       0.00000    
     15785 MEOH     1006     MEOH     LP1B     LPD     -0.230000       0.00000          -1   0.00000       0.00000    
     15786 MEOH     1007     MEOH     C1       CD33B     2.31410       11.6110           0  -1.00000       1.30000    
     15787 MEOH     1007     MEOH     DC1      DRUD     -2.45410      0.400000           0   0.00000       0.00000    
     15788 MEOH     1007     MEOH     O1       OD31H     2.48830       15.5990           0  -1.02800       1.30000    
     15789 MEOH     1007     MEOH     DO1      DRUD     -2.48830      0.400000           0   0.00000       0.00000    
     15790 MEOH     1007     MEOH     HO1      HDP1A    0.360000       1.00800           0   0.00000       0.00000    
     15791 MEOH     1007     MEOH     HO2      DUMH      0.00000       1.00800           0   0.00000       0.00000    
     15792 MEOH     1007     MEOH     H1A      HDA3B    0.800000E-01   1.00800           0   0.00000       0.00000    
     15793 MEOH     1007     MEOH     H1B      HDA3B    0.800000E-01   1.00800           0   0.00000       0.00000    
     15794 MEOH     1007     MEOH     H1C      HDA3B    0.800000E-01   1.00800           0   0.00000       0.00000    
     15795 MEOH     1007     MEOH     LP1A     LPD     -0.230000       0.00000          -1   0.00000       0.00000    
     15796 MEOH     1007     MEOH     LP1B     LPD     -0.230000       0.00000          -1   0.00000       0.00000    
     15797 MEOH     1008     MEOH     C1       CD33B     2.31410       11.6110           0  -1.00000       1.30000    
     15798 MEOH     1008     MEOH     DC1      DRUD     -2.45410      0.400000           0   0.00000       0.00000    
     15799 MEOH     1008     MEOH     O1       OD31H     2.48830       15.5990           0  -1.02800       1.30000    
     15800 MEOH     1008     MEOH     DO1      DRUD     -2.48830      0.400000           0   0.00000       0.00000    
     15801 MEOH     1008     MEOH     HO1      HDP1A    0.360000       1.00800           0   0.00000       0.00000    
     15802 MEOH     1008     MEOH     HO2      DUMH      0.00000       1.00800           0   0.00000       0.00000    
     15803 MEOH     1008     MEOH     H1A      HDA3B    0.800000E-01   1.00800           0   0.00000       0.00000    
     15804 MEOH     1008     MEOH     H1B      HDA3B    0.800000E-01   1.00800           0   0.00000       0.00000    
     15805 MEOH     1008     MEOH     H1C      HDA3B    0.800000E-01   1.00800           0   0.00000       0.00000    
     15806 MEOH     1008     MEOH     LP1A     LPD     -0.230000       0.00000          -1   0.00000       0.00000    
     15807 MEOH     1008     MEOH     LP1B     LPD     -0.230000       0.00000          -1   0.00000       0.00000    
     15808 MEOH     1009     MEOH     C1       CD33B     2.31410       11.6110           0  -1.00000       1.30000    
     15809 MEOH     1009     MEOH     DC1      DRUD     -2.45410      0.400000           0   0.00000       0.00000    
     15810 MEOH     1009     MEOH     O1       OD31H     2.48830       15.5990           0  -1.02800       1.30000    
     15811 MEOH     1009     MEOH     DO1      DRUD     -2.48830      0.400000           0   0.00000       0.00000    
     15812 MEOH     1009     MEOH     HO1      HDP1A    0.360000       1.00800           0   0.00000       0.00000    
     15813 MEOH     1009     MEOH     HO2      DUMH      0.00000       1.00800           0   0.00000       0.00000    
     15814 MEOH     1009     MEOH     H1A      HDA3B    0.800000E-01   1.00800           0   0.00000       0.00000    
     15815 MEOH     1009     MEOH     H1B      HDA3B    0.800000E-01   1.00800           0   0.00000       0.00000    
     15816 MEOH     1009     MEOH     H1C      HDA3B    0.800000E-01   1.00800           0   0.00000       0.00000    
     15817 MEOH     1009     MEOH     LP1A     LPD     -0.230000       0.00000          -1   0.00000       0.00000    
     15818 MEOH     1009     MEOH     LP1B     LPD     -0.230000       0.00000          -1   0.00000       0.00000    
     15819 MEOH     1010     MEOH     C1       CD33B     2.31410       11.6110           0  -1.00000       1.30000    
     15820 MEOH     1010     MEOH     DC1      DRUD     -2.45410      0.400000           0   0.00000       0.00000    
     15821 MEOH     1010     MEOH     O1       OD31H     2.48830       15.5990           0  -1.02800       1.30000    
     15822 MEOH     1010     MEOH     DO1      DRUD     -2.48830      0.400000           0   0.00000       0.00000    
     15823 MEOH     1010     MEOH     HO1      HDP1A    0.360000       1.00800           0   0.00000       0.00000    
     15824 MEOH     1010     MEOH     HO2      DUMH      0.00000       1.00800           0   0.00000       0.00000    
     15825 MEOH     1010     MEOH     H1A      HDA3B    0.800000E-01   1.00800           0   0.00000       0.00000    
     15826 MEOH     1010     MEOH     H1B      HDA3B    0.800000E-01   1.00800           0   0.00000       0.00000    
     15827 MEOH     1010     MEOH     H1C      HDA3B    0.800000E-01   1.00800           0   0.00000       0.00000    
     15828 MEOH     1010     MEOH     LP1A     LPD     -0.230000       0.00000          -1   0.00000       0.00000    
     15829 MEOH     1010     MEOH     LP1B     LPD     -0.230000       0.00000          -1   0.00000       0.00000    
     15830 MEOH     1011     MEOH     C1       CD33B     2.31410       11.6110           0  -1.00000       1.30000    
     15831 MEOH     1011     MEOH     DC1      DRUD     -2.45410      0.400000           0   0.00000       0.00000    
     15832 MEOH     1011     MEOH     O1       OD31H     2.48830       15.5990           0  -1.02800       1.30000    
     15833 MEOH     1011     MEOH     DO1      DRUD     -2.48830      0.400000           0   0.00000       0.00000    
     15834 MEOH     1011     MEOH     HO1      HDP1A    0.360000       1.00800           0   0.00000       0.00000    
     15835 MEOH     1011     MEOH     HO2      DUMH      0.00000       1.00800           0   0.00000       0.00000    
     15836 MEOH     1011     MEOH     H1A      HDA3B    0.800000E-01   1.00800           0   0.00000       0.00000    
     15837 MEOH     1011     MEOH     H1B      HDA3B    0.800000E-01   1.00800           0   0.00000       0.00000    
     15838 MEOH     1011     MEOH     H1C      HDA3B    0.800000E-01   1.00800           0   0.00000       0.00000    
     15839 MEOH     1011     MEOH     LP1A     LPD     -0.230000       0.00000          -1   0.00000       0.00000    
     15840 MEOH     1011     MEOH     LP1B     LPD     -0.230000       0.00000          -1   0.00000       0.00000    
     15841 MEOH     1012     MEOH     C1       CD33B     2.31410       11.6110           0  -1.00000       1.30000    
     15842 MEOH     1012     MEOH     DC1      DRUD     -2.45410      0.400000           0   0.00000       0.00000    
     15843 MEOH     1012     MEOH     O1       OD31H     2.48830       15.5990           0  -1.02800       1.30000    
     15844 MEOH     1012     MEOH     DO1      DRUD     -2.48830      0.400000           0   0.00000       0.00000    
     15845 MEOH     1012     MEOH     HO1      HDP1A    0.360000       1.00800           0   0.00000       0.00000    
     15846 MEOH     1012     MEOH     HO2      DUMH      0.00000       1.00800           0   0.00000       0.00000    
     15847 MEOH     1012     MEOH     H1A      HDA3B    0.800000E-01   1.00800           0   0.00000       0.00000    
     15848 MEOH     1012     MEOH     H1B      HDA3B    0.800000E-01   1.00800           0   0.00000       0.00000    
     15849 MEOH     1012     MEOH     H1C      HDA3B    0.800000E-01   1.00800           0   0.00000       0.00000    
     15850 MEOH     1012     MEOH     LP1A     LPD     -0.230000       0.00000          -1   0.00000       0.00000    
     15851 MEOH     1012     MEOH     LP1B     LPD     -0.230000       0.00000          -1   0.00000       0.00000    
     15852 MEOH     1013     MEOH     C1       CD33B     2.31410       11.6110           0  -1.00000       1.30000    
     15853 MEOH     1013     MEOH     DC1      DRUD     -2.45410      0.400000           0   0.00000       0.00000    
     15854 MEOH     1013     MEOH     O1       OD31H     2.48830       15.5990           0  -1.02800       1.30000    
     15855 MEOH     1013     MEOH     DO1      DRUD     -2.48830      0.400000           0   0.00000       0.00000    
     15856 MEOH     1013     MEOH     HO1      HDP1A    0.360000       1.00800           0   0.00000       0.00000    
     15857 MEOH     1013     MEOH     HO2      DUMH      0.00000       1.00800           0   0.00000       0.00000    
     15858 MEOH     1013     MEOH     H1A      HDA3B    0.800000E-01   1.00800           0   0.00000       0.00000    
     15859 MEOH     1013     MEOH     H1B      HDA3B    0.800000E-01   1.00800           0   0.00000       0.00000    
     15860 MEOH     1013     MEOH     H1C      HDA3B    0.800000E-01   1.00800           0   0.00000       0.00000    
     15861 MEOH     1013     MEOH     LP1A     LPD     -0.230000       0.00000          -1   0.00000       0.00000    
     15862 MEOH     1013     MEOH     LP1B     LPD     -0.230000       0.00000          -1   0.00000       0.00000    
     15863 MEOH     1014     MEOH     C1       CD33B     2.31410       11.6110           0  -1.00000       1.30000    
     15864 MEOH     1014     MEOH     DC1      DRUD     -2.45410      0.400000           0   0.00000       0.00000    
     15865 MEOH     1014     MEOH     O1       OD31H     2.48830       15.5990           0  -1.02800       1.30000    
     15866 MEOH     1014     MEOH     DO1      DRUD     -2.48830      0.400000           0   0.00000       0.00000    
     15867 MEOH     1014     MEOH     HO1      HDP1A    0.360000       1.00800           0   0.00000       0.00000    
     15868 MEOH     1014     MEOH     HO2      DUMH      0.00000       1.00800           0   0.00000       0.00000    
     15869 MEOH     1014     MEOH     H1A      HDA3B    0.800000E-01   1.00800           0   0.00000       0.00000    
     15870 MEOH     1014     MEOH     H1B      HDA3B    0.800000E-01   1.00800           0   0.00000       0.00000    
     15871 MEOH     1014     MEOH     H1C      HDA3B    0.800000E-01   1.00800           0   0.00000       0.00000    
     15872 MEOH     1014     MEOH     LP1A     LPD     -0.230000       0.00000          -1   0.00000       0.00000    
     15873 MEOH     1014     MEOH     LP1B     LPD     -0.230000       0.00000          -1   0.00000       0.00000    
     15874 MEOH     1015     MEOH     C1       CD33B     2.31410       11.6110           0  -1.00000       1.30000    
     15875 MEOH     1015     MEOH     DC1      DRUD     -2.45410      0.400000           0   0.00000       0.00000    
     15876 MEOH     1015     MEOH     O1       OD31H     2.48830       15.5990           0  -1.02800       1.30000    
     15877 MEOH     1015     MEOH     DO1      DRUD     -2.48830      0.400000           0   0.00000       0.00000    
     15878 MEOH     1015     MEOH     HO1      HDP1A    0.360000       1.00800           0   0.00000       0.00000    
     15879 MEOH     1015     MEOH     HO2      DUMH      0.00000       1.00800           0   0.00000       0.00000    
     15880 MEOH     1015     MEOH     H1A      HDA3B    0.800000E-01   1.00800           0   0.00000       0.00000    
     15881 MEOH     1015     MEOH     H1B      HDA3B    0.800000E-01   1.00800           0   0.00000       0.00000    
     15882 MEOH     1015     MEOH     H1C      HDA3B    0.800000E-01   1.00800           0   0.00000       0.00000    
     15883 MEOH     1015     MEOH     LP1A     LPD     -0.230000       0.00000          -1   0.00000       0.00000    
     15884 MEOH     1015     MEOH     LP1B     LPD     -0.230000       0.00000          -1   0.00000       0.00000    
     15885 MEOH     1016     MEOH     C1       CD33B     2.31410       11.6110           0  -1.00000       1.30000    
     15886 MEOH     1016     MEOH     DC1      DRUD     -2.45410      0.400000           0   0.00000       0.00000    
     15887 MEOH     1016     MEOH     O1       OD31H     2.48830       15.5990           0  -1.02800       1.30000    
     15888 MEOH     1016     MEOH     DO1      DRUD     -2.48830      0.400000           0   0.00000       0.00000    
     15889 MEOH     1016     MEOH     HO1      HDP1A    0.360000       1.00800           0   0.00000       0.00000    
     15890 MEOH     1016     MEOH     HO2      DUMH      0.00000       1.00800           0   0.00000       0.00000    
     15891 MEOH     1016     MEOH     H1A      HDA3B    0.800000E-01   1.00800           0   0.00000       0.00000    
     15892 MEOH     1016     MEOH     H1B      HDA3B    0.800000E-01   1.00800           0   0.00000       0.00000    
     15893 MEOH     1016     MEOH     H1C      HDA3B    0.800000E-01   1.00800           0   0.00000       0.00000    
     15894 MEOH     1016     MEOH     LP1A     LPD     -0.230000       0.00000          -1   0.00000       0.00000    
     15895 MEOH     1016     MEOH     LP1B     LPD     -0.230000       0.00000          -1   0.00000       0.00000    
     15896 MEOH     1017     MEOH     C1       CD33B     2.31410       11.6110           0  -1.00000       1.30000    
     15897 MEOH     1017     MEOH     DC1      DRUD     -2.45410      0.400000           0   0.00000       0.00000    
     15898 MEOH     1017     MEOH     O1       OD31H     2.48830       15.5990           0  -1.02800       1.30000    
     15899 MEOH     1017     MEOH     DO1      DRUD     -2.48830      0.400000           0   0.00000       0.00000    
     15900 MEOH     1017     MEOH     HO1      HDP1A    0.360000       1.00800           0   0.00000       0.00000    
     15901 MEOH     1017     MEOH     HO2      DUMH      0.00000       1.00800           0   0.00000       0.00000    
     15902 MEOH     1017     MEOH     H1A      HDA3B    0.800000E-01   1.00800           0   0.00000       0.00000    
     15903 MEOH     1017     MEOH     H1B      HDA3B    0.800000E-01   1.00800           0   0.00000       0.00000    
     15904 MEOH     1017     MEOH     H1C      HDA3B    0.800000E-01   1.00800           0   0.00000       0.00000    
     15905 MEOH     1017     MEOH     LP1A     LPD     -0.230000       0.00000          -1   0.00000       0.00000    
     15906 MEOH     1017     MEOH     LP1B     LPD     -0.230000       0.00000          -1   0.00000       0.00000    
     15907 MEOH     1018     MEOH     C1       CD33B     2.31410       11.6110           0  -1.00000       1.30000    
     15908 MEOH     1018     MEOH     DC1      DRUD     -2.45410      0.400000           0   0.00000       0.00000    
     15909 MEOH     1018     MEOH     O1       OD31H     2.48830       15.5990           0  -1.02800       1.30000    
     15910 MEOH     1018     MEOH     DO1      DRUD     -2.48830      0.400000           0   0.00000       0.00000    
     15911 MEOH     1018     MEOH     HO1      HDP1A    0.360000       1.00800           0   0.00000       0.00000    
     15912 MEOH     1018     MEOH     HO2      DUMH      0.00000       1.00800           0   0.00000       0.00000    
     15913 MEOH     1018     MEOH     H1A      HDA3B    0.800000E-01   1.00800           0   0.00000       0.00000    
     15914 MEOH     1018     MEOH     H1B      HDA3B    0.800000E-01   1.00800           0   0.00000       0.00000    
     15915 MEOH     1018     MEOH     H1C      HDA3B    0.800000E-01   1.00800           0   0.00000       0.00000    
     15916 MEOH     1018     MEOH     LP1A     LPD     -0.230000       0.00000          -1   0.00000       0.00000    
     15917 MEOH     1018     MEOH     LP1B     LPD     -0.230000       0.00000          -1   0.00000       0.00000    
     15918 MEOH     1019     MEOH     C1       CD33B     2.31410       11.6110           0  -1.00000       1.30000    
     15919 MEOH     1019     MEOH     DC1      DRUD     -2.45410      0.400000           0   0.00000       0.00000    
     15920 MEOH     1019     MEOH     O1       OD31H     2.48830       15.5990           0  -1.02800       1.30000    
     15921 MEOH     1019     MEOH     DO1      DRUD     -2.48830      0.400000           0   0.00000       0.00000    
     15922 MEOH     1019     MEOH     HO1      HDP1A    0.360000       1.00800           0   0.00000       0.00000    
     15923 MEOH     1019     MEOH     HO2      DUMH      0.00000       1.00800           0   0.00000       0.00000    
     15924 MEOH     1019     MEOH     H1A      HDA3B    0.800000E-01   1.00800           0   0.00000       0.00000    
     15925 MEOH     1019     MEOH     H1B      HDA3B    0.800000E-01   1.00800           0   0.00000       0.00000    
     15926 MEOH     1019     MEOH     H1C      HDA3B    0.800000E-01   1.00800           0   0.00000       0.00000    
     15927 MEOH     1019     MEOH     LP1A     LPD     -0.230000       0.00000          -1   0.00000       0.00000    
     15928 MEOH     1019     MEOH     LP1B     LPD     -0.230000       0.00000          -1   0.00000       0.00000    
     15929 MEOH     1020     MEOH     C1       CD33B     2.31410       11.6110           0  -1.00000       1.30000    
     15930 MEOH     1020     MEOH     DC1      DRUD     -2.45410      0.400000           0   0.00000       0.00000    
     15931 MEOH     1020     MEOH     O1       OD31H     2.48830       15.5990           0  -1.02800       1.30000    
     15932 MEOH     1020     MEOH     DO1      DRUD     -2.48830      0.400000           0   0.00000       0.00000    
     15933 MEOH     1020     MEOH     HO1      HDP1A    0.360000       1.00800           0   0.00000       0.00000    
     15934 MEOH     1020     MEOH     HO2      DUMH      0.00000       1.00800           0   0.00000       0.00000    
     15935 MEOH     1020     MEOH     H1A      HDA3B    0.800000E-01   1.00800           0   0.00000       0.00000    
     15936 MEOH     1020     MEOH     H1B      HDA3B    0.800000E-01   1.00800           0   0.00000       0.00000    
     15937 MEOH     1020     MEOH     H1C      HDA3B    0.800000E-01   1.00800           0   0.00000       0.00000    
     15938 MEOH     1020     MEOH     LP1A     LPD     -0.230000       0.00000          -1   0.00000       0.00000    
     15939 MEOH     1020     MEOH     LP1B     LPD     -0.230000       0.00000          -1   0.00000       0.00000    
     15940 MEOH     1021     MEOH     C1       CD33B     2.31410       11.6110           0  -1.00000       1.30000    
     15941 MEOH     1021     MEOH     DC1      DRUD     -2.45410      0.400000           0   0.00000       0.00000    
     15942 MEOH     1021     MEOH     O1       OD31H     2.48830       15.5990           0  -1.02800       1.30000    
     15943 MEOH     1021     MEOH     DO1      DRUD     -2.48830      0.400000           0   0.00000       0.00000    
     15944 MEOH     1021     MEOH     HO1      HDP1A    0.360000       1.00800           0   0.00000       0.00000    
     15945 MEOH     1021     MEOH     HO2      DUMH      0.00000       1.00800           0   0.00000       0.00000    
     15946 MEOH     1021     MEOH     H1A      HDA3B    0.800000E-01   1.00800           0   0.00000       0.00000    
     15947 MEOH     1021     MEOH     H1B      HDA3B    0.800000E-01   1.00800           0   0.00000       0.00000    
     15948 MEOH     1021     MEOH     H1C      HDA3B    0.800000E-01   1.00800           0   0.00000       0.00000    
     15949 MEOH     1021     MEOH     LP1A     LPD     -0.230000       0.00000          -1   0.00000       0.00000    
     15950 MEOH     1021     MEOH     LP1B     LPD     -0.230000       0.00000          -1   0.00000       0.00000    
     15951 MEOH     1022     MEOH     C1       CD33B     2.31410       11.6110           0  -1.00000       1.30000    
     15952 MEOH     1022     MEOH     DC1      DRUD     -2.45410      0.400000           0   0.00000       0.00000    
     15953 MEOH     1022     MEOH     O1       OD31H     2.48830       15.5990           0  -1.02800       1.30000    
     15954 MEOH     1022     MEOH     DO1      DRUD     -2.48830      0.400000           0   0.00000       0.00000    
     15955 MEOH     1022     MEOH     HO1      HDP1A    0.360000       1.00800           0   0.00000       0.00000    
     15956 MEOH     1022     MEOH     HO2      DUMH      0.00000       1.00800           0   0.00000       0.00000    
     15957 MEOH     1022     MEOH     H1A      HDA3B    0.800000E-01   1.00800           0   0.00000       0.00000    
     15958 MEOH     1022     MEOH     H1B      HDA3B    0.800000E-01   1.00800           0   0.00000       0.00000    
     15959 MEOH     1022     MEOH     H1C      HDA3B    0.800000E-01   1.00800           0   0.00000       0.00000    
     15960 MEOH     1022     MEOH     LP1A     LPD     -0.230000       0.00000          -1   0.00000       0.00000    
     15961 MEOH     1022     MEOH     LP1B     LPD     -0.230000       0.00000          -1   0.00000       0.00000    
     15962 MEOH     1023     MEOH     C1       CD33B     2.31410       11.6110           0  -1.00000       1.30000    
     15963 MEOH     1023     MEOH     DC1      DRUD     -2.45410      0.400000           0   0.00000       0.00000    
     15964 MEOH     1023     MEOH     O1       OD31H     2.48830       15.5990           0  -1.02800       1.30000    
     15965 MEOH     1023     MEOH     DO1      DRUD     -2.48830      0.400000           0   0.00000       0.00000    
     15966 MEOH     1023     MEOH     HO1      HDP1A    0.360000       1.00800           0   0.00000       0.00000    
     15967 MEOH     1023     MEOH     HO2      DUMH      0.00000       1.00800           0   0.00000       0.00000    
     15968 MEOH     1023     MEOH     H1A      HDA3B    0.800000E-01   1.00800           0   0.00000       0.00000    
     15969 MEOH     1023     MEOH     H1B      HDA3B    0.800000E-01   1.00800           0   0.00000       0.00000    
     15970 MEOH     1023     MEOH     H1C      HDA3B    0.800000E-01   1.00800           0   0.00000       0.00000    
     15971 MEOH     1023     MEOH     LP1A     LPD     -0.230000       0.00000          -1   0.00000       0.00000    
     15972 MEOH     1023     MEOH     LP1B     LPD     -0.230000       0.00000          -1   0.00000       0.00000    
     15973 MEOH     1024     MEOH     C1       CD33B     2.31410       11.6110           0  -1.00000       1.30000    
     15974 MEOH     1024     MEOH     DC1      DRUD     -2.45410      0.400000           0   0.00000       0.00000    
     15975 MEOH     1024     MEOH     O1       OD31H     2.48830       15.5990           0  -1.02800       1.30000    
     15976 MEOH     1024     MEOH     DO1      DRUD     -2.48830      0.400000           0   0.00000       0.00000    
     15977 MEOH     1024     MEOH     HO1      HDP1A    0.360000       1.00800           0   0.00000       0.00000    
     15978 MEOH     1024     MEOH     HO2      DUMH      0.00000       1.00800           0   0.00000       0.00000    
     15979 MEOH     1024     MEOH     H1A      HDA3B    0.800000E-01   1.00800           0   0.00000       0.00000    
     15980 MEOH     1024     MEOH     H1B      HDA3B    0.800000E-01   1.00800           0   0.00000       0.00000    
     15981 MEOH     1024     MEOH     H1C      HDA3B    0.800000E-01   1.00800           0   0.00000       0.00000    
     15982 MEOH     1024     MEOH     LP1A     LPD     -0.230000       0.00000          -1   0.00000       0.00000    
     15983 MEOH     1024     MEOH     LP1B     LPD     -0.230000       0.00000          -1   0.00000       0.00000    
     15984 MEOH     1025     MEOH     C1       CD33B     2.31410       11.6110           0  -1.00000       1.30000    
     15985 MEOH     1025     MEOH     DC1      DRUD     -2.45410      0.400000           0   0.00000       0.00000    
     15986 MEOH     1025     MEOH     O1       OD31H     2.48830       15.5990           0  -1.02800       1.30000    
     15987 MEOH     1025     MEOH     DO1      DRUD     -2.48830      0.400000           0   0.00000       0.00000    
     15988 MEOH     1025     MEOH     HO1      HDP1A    0.360000       1.00800           0   0.00000       0.00000    
     15989 MEOH     1025     MEOH     HO2      DUMH      0.00000       1.00800           0   0.00000       0.00000    
     15990 MEOH     1025     MEOH     H1A      HDA3B    0.800000E-01   1.00800           0   0.00000       0.00000    
     15991 MEOH     1025     MEOH     H1B      HDA3B    0.800000E-01   1.00800           0   0.00000       0.00000    
     15992 MEOH     1025     MEOH     H1C      HDA3B    0.800000E-01   1.00800           0   0.00000       0.00000    
     15993 MEOH     1025     MEOH     LP1A     LPD     -0.230000       0.00000          -1   0.00000       0.00000    
     15994 MEOH     1025     MEOH     LP1B     LPD     -0.230000       0.00000          -1   0.00000       0.00000    
     15995 MEOH     1026     MEOH     C1       CD33B     2.31410       11.6110           0  -1.00000       1.30000    
     15996 MEOH     1026     MEOH     DC1      DRUD     -2.45410      0.400000           0   0.00000       0.00000    
     15997 MEOH     1026     MEOH     O1       OD31H     2.48830       15.5990           0  -1.02800       1.30000    
     15998 MEOH     1026     MEOH     DO1      DRUD     -2.48830      0.400000           0   0.00000       0.00000    
     15999 MEOH     1026     MEOH     HO1      HDP1A    0.360000       1.00800           0   0.00000       0.00000    
     16000 MEOH     1026     MEOH     HO2      DUMH      0.00000       1.00800           0   0.00000       0.00000    
     16001 MEOH     1026     MEOH     H1A      HDA3B    0.800000E-01   1.00800           0   0.00000       0.00000    
     16002 MEOH     1026     MEOH     H1B      HDA3B    0.800000E-01   1.00800           0   0.00000       0.00000    
     16003 MEOH     1026     MEOH     H1C      HDA3B    0.800000E-01   1.00800           0   0.00000       0.00000    
     16004 MEOH     1026     MEOH     LP1A     LPD     -0.230000       0.00000          -1   0.00000       0.00000    
     16005 MEOH     1026     MEOH     LP1B     LPD     -0.230000       0.00000          -1   0.00000       0.00000    
     16006 MEOH     1027     MEOH     C1       CD33B     2.31410       11.6110           0  -1.00000       1.30000    
     16007 MEOH     1027     MEOH     DC1      DRUD     -2.45410      0.400000           0   0.00000       0.00000    
     16008 MEOH     1027     MEOH     O1       OD31H     2.48830       15.5990           0  -1.02800       1.30000    
     16009 MEOH     1027     MEOH     DO1      DRUD     -2.48830      0.400000           0   0.00000       0.00000    
     16010 MEOH     1027     MEOH     HO1      HDP1A    0.360000       1.00800           0   0.00000       0.00000    
     16011 MEOH     1027     MEOH     HO2      DUMH      0.00000       1.00800           0   0.00000       0.00000    
     16012 MEOH     1027     MEOH     H1A      HDA3B    0.800000E-01   1.00800           0   0.00000       0.00000    
     16013 MEOH     1027     MEOH     H1B      HDA3B    0.800000E-01   1.00800           0   0.00000       0.00000    
     16014 MEOH     1027     MEOH     H1C      HDA3B    0.800000E-01   1.00800           0   0.00000       0.00000    
     16015 MEOH     1027     MEOH     LP1A     LPD     -0.230000       0.00000          -1   0.00000       0.00000    
     16016 MEOH     1027     MEOH     LP1B     LPD     -0.230000       0.00000          -1   0.00000       0.00000    
     16017 MEOH     1028     MEOH     C1       CD33B     2.31410       11.6110           0  -1.00000       1.30000    
     16018 MEOH     1028     MEOH     DC1      DRUD     -2.45410      0.400000           0   0.00000       0.00000    
     16019 MEOH     1028     MEOH     O1       OD31H     2.48830       15.5990           0  -1.02800       1.30000    
     16020 MEOH     1028     MEOH     DO1      DRUD     -2.48830      0.400000           0   0.00000       0.00000    
     16021 MEOH     1028     MEOH     HO1      HDP1A    0.360000       1.00800           0   0.00000       0.00000    
     16022 MEOH     1028     MEOH     HO2      DUMH      0.00000       1.00800           0   0.00000       0.00000    
     16023 MEOH     1028     MEOH     H1A      HDA3B    0.800000E-01   1.00800           0   0.00000       0.00000    
     16024 MEOH     1028     MEOH     H1B      HDA3B    0.800000E-01   1.00800           0   0.00000       0.00000    
     16025 MEOH     1028     MEOH     H1C      HDA3B    0.800000E-01   1.00800           0   0.00000       0.00000    
     16026 MEOH     1028     MEOH     LP1A     LPD     -0.230000       0.00000          -1   0.00000       0.00000    
     16027 MEOH     1028     MEOH     LP1B     LPD     -0.230000       0.00000          -1   0.00000       0.00000    
     16028 MEOH     1029     MEOH     C1       CD33B     2.31410       11.6110           0  -1.00000       1.30000    
     16029 MEOH     1029     MEOH     DC1      DRUD     -2.45410      0.400000           0   0.00000       0.00000    
     16030 MEOH     1029     MEOH     O1       OD31H     2.48830       15.5990           0  -1.02800       1.30000    
     16031 MEOH     1029     MEOH     DO1      DRUD     -2.48830      0.400000           0   0.00000       0.00000    
     16032 MEOH     1029     MEOH     HO1      HDP1A    0.360000       1.00800           0   0.00000       0.00000    
     16033 MEOH     1029     MEOH     HO2      DUMH      0.00000       1.00800           0   0.00000       0.00000    
     16034 MEOH     1029     MEOH     H1A      HDA3B    0.800000E-01   1.00800           0   0.00000       0.00000    
     16035 MEOH     1029     MEOH     H1B      HDA3B    0.800000E-01   1.00800           0   0.00000       0.00000    
     16036 MEOH     1029     MEOH     H1C      HDA3B    0.800000E-01   1.00800           0   0.00000       0.00000    
     16037 MEOH     1029     MEOH     LP1A     LPD     -0.230000       0.00000          -1   0.00000       0.00000    
     16038 MEOH     1029     MEOH     LP1B     LPD     -0.230000       0.00000          -1   0.00000       0.00000    
     16039 MEOH     1030     MEOH     C1       CD33B     2.31410       11.6110           0  -1.00000       1.30000    
     16040 MEOH     1030     MEOH     DC1      DRUD     -2.45410      0.400000           0   0.00000       0.00000    
     16041 MEOH     1030     MEOH     O1       OD31H     2.48830       15.5990           0  -1.02800       1.30000    
     16042 MEOH     1030     MEOH     DO1      DRUD     -2.48830      0.400000           0   0.00000       0.00000    
     16043 MEOH     1030     MEOH     HO1      HDP1A    0.360000       1.00800           0   0.00000       0.00000    
     16044 MEOH     1030     MEOH     HO2      DUMH      0.00000       1.00800           0   0.00000       0.00000    
     16045 MEOH     1030     MEOH     H1A      HDA3B    0.800000E-01   1.00800           0   0.00000       0.00000    
     16046 MEOH     1030     MEOH     H1B      HDA3B    0.800000E-01   1.00800           0   0.00000       0.00000    
     16047 MEOH     1030     MEOH     H1C      HDA3B    0.800000E-01   1.00800           0   0.00000       0.00000    
     16048 MEOH     1030     MEOH     LP1A     LPD     -0.230000       0.00000          -1   0.00000       0.00000    
     16049 MEOH     1030     MEOH     LP1B     LPD     -0.230000       0.00000          -1   0.00000       0.00000    
     16050 MEOH     1031     MEOH     C1       CD33B     2.31410       11.6110           0  -1.00000       1.30000    
     16051 MEOH     1031     MEOH     DC1      DRUD     -2.45410      0.400000           0   0.00000       0.00000    
     16052 MEOH     1031     MEOH     O1       OD31H     2.48830       15.5990           0  -1.02800       1.30000    
     16053 MEOH     1031     MEOH     DO1      DRUD     -2.48830      0.400000           0   0.00000       0.00000    
     16054 MEOH     1031     MEOH     HO1      HDP1A    0.360000       1.00800           0   0.00000       0.00000    
     16055 MEOH     1031     MEOH     HO2      DUMH      0.00000       1.00800           0   0.00000       0.00000    
     16056 MEOH     1031     MEOH     H1A      HDA3B    0.800000E-01   1.00800           0   0.00000       0.00000    
     16057 MEOH     1031     MEOH     H1B      HDA3B    0.800000E-01   1.00800           0   0.00000       0.00000    
     16058 MEOH     1031     MEOH     H1C      HDA3B    0.800000E-01   1.00800           0   0.00000       0.00000    
     16059 MEOH     1031     MEOH     LP1A     LPD     -0.230000       0.00000          -1   0.00000       0.00000    
     16060 MEOH     1031     MEOH     LP1B     LPD     -0.230000       0.00000          -1   0.00000       0.00000    
     16061 MEOH     1032     MEOH     C1       CD33B     2.31410       11.6110           0  -1.00000       1.30000    
     16062 MEOH     1032     MEOH     DC1      DRUD     -2.45410      0.400000           0   0.00000       0.00000    
     16063 MEOH     1032     MEOH     O1       OD31H     2.48830       15.5990           0  -1.02800       1.30000    
     16064 MEOH     1032     MEOH     DO1      DRUD     -2.48830      0.400000           0   0.00000       0.00000    
     16065 MEOH     1032     MEOH     HO1      HDP1A    0.360000       1.00800           0   0.00000       0.00000    
     16066 MEOH     1032     MEOH     HO2      DUMH      0.00000       1.00800           0   0.00000       0.00000    
     16067 MEOH     1032     MEOH     H1A      HDA3B    0.800000E-01   1.00800           0   0.00000       0.00000    
     16068 MEOH     1032     MEOH     H1B      HDA3B    0.800000E-01   1.00800           0   0.00000       0.00000    
     16069 MEOH     1032     MEOH     H1C      HDA3B    0.800000E-01   1.00800           0   0.00000       0.00000    
     16070 MEOH     1032     MEOH     LP1A     LPD     -0.230000       0.00000          -1   0.00000       0.00000    
     16071 MEOH     1032     MEOH     LP1B     LPD     -0.230000       0.00000          -1   0.00000       0.00000    
     16072 MEOH     1033     MEOH     C1       CD33B     2.31410       11.6110           0  -1.00000       1.30000    
     16073 MEOH     1033     MEOH     DC1      DRUD     -2.45410      0.400000           0   0.00000       0.00000    
     16074 MEOH     1033     MEOH     O1       OD31H     2.48830       15.5990           0  -1.02800       1.30000    
     16075 MEOH     1033     MEOH     DO1      DRUD     -2.48830      0.400000           0   0.00000       0.00000    
     16076 MEOH     1033     MEOH     HO1      HDP1A    0.360000       1.00800           0   0.00000       0.00000    
     16077 MEOH     1033     MEOH     HO2      DUMH      0.00000       1.00800           0   0.00000       0.00000    
     16078 MEOH     1033     MEOH     H1A      HDA3B    0.800000E-01   1.00800           0   0.00000       0.00000    
     16079 MEOH     1033     MEOH     H1B      HDA3B    0.800000E-01   1.00800           0   0.00000       0.00000    
     16080 MEOH     1033     MEOH     H1C      HDA3B    0.800000E-01   1.00800           0   0.00000       0.00000    
     16081 MEOH     1033     MEOH     LP1A     LPD     -0.230000       0.00000          -1   0.00000       0.00000    
     16082 MEOH     1033     MEOH     LP1B     LPD     -0.230000       0.00000          -1   0.00000       0.00000    
     16083 MEOH     1034     MEOH     C1       CD33B     2.31410       11.6110           0  -1.00000       1.30000    
     16084 MEOH     1034     MEOH     DC1      DRUD     -2.45410      0.400000           0   0.00000       0.00000    
     16085 MEOH     1034     MEOH     O1       OD31H     2.48830       15.5990           0  -1.02800       1.30000    
     16086 MEOH     1034     MEOH     DO1      DRUD     -2.48830      0.400000           0   0.00000       0.00000    
     16087 MEOH     1034     MEOH     HO1      HDP1A    0.360000       1.00800           0   0.00000       0.00000    
     16088 MEOH     1034     MEOH     HO2      DUMH      0.00000       1.00800           0   0.00000       0.00000    
     16089 MEOH     1034     MEOH     H1A      HDA3B    0.800000E-01   1.00800           0   0.00000       0.00000    
     16090 MEOH     1034     MEOH     H1B      HDA3B    0.800000E-01   1.00800           0   0.00000       0.00000    
     16091 MEOH     1034     MEOH     H1C      HDA3B    0.800000E-01   1.00800           0   0.00000       0.00000    
     16092 MEOH     1034     MEOH     LP1A     LPD     -0.230000       0.00000          -1   0.00000       0.00000    
     16093 MEOH     1034     MEOH     LP1B     LPD     -0.230000       0.00000          -1   0.00000       0.00000    
     16094 MEOH     1035     MEOH     C1       CD33B     2.31410       11.6110           0  -1.00000       1.30000    
     16095 MEOH     1035     MEOH     DC1      DRUD     -2.45410      0.400000           0   0.00000       0.00000    
     16096 MEOH     1035     MEOH     O1       OD31H     2.48830       15.5990           0  -1.02800       1.30000    
     16097 MEOH     1035     MEOH     DO1      DRUD     -2.48830      0.400000           0   0.00000       0.00000    
     16098 MEOH     1035     MEOH     HO1      HDP1A    0.360000       1.00800           0   0.00000       0.00000    
     16099 MEOH     1035     MEOH     HO2      DUMH      0.00000       1.00800           0   0.00000       0.00000    
     16100 MEOH     1035     MEOH     H1A      HDA3B    0.800000E-01   1.00800           0   0.00000       0.00000    
     16101 MEOH     1035     MEOH     H1B      HDA3B    0.800000E-01   1.00800           0   0.00000       0.00000    
     16102 MEOH     1035     MEOH     H1C      HDA3B    0.800000E-01   1.00800           0   0.00000       0.00000    
     16103 MEOH     1035     MEOH     LP1A     LPD     -0.230000       0.00000          -1   0.00000       0.00000    
     16104 MEOH     1035     MEOH     LP1B     LPD     -0.230000       0.00000          -1   0.00000       0.00000    
     16105 MEOH     1036     MEOH     C1       CD33B     2.31410       11.6110           0  -1.00000       1.30000    
     16106 MEOH     1036     MEOH     DC1      DRUD     -2.45410      0.400000           0   0.00000       0.00000    
     16107 MEOH     1036     MEOH     O1       OD31H     2.48830       15.5990           0  -1.02800       1.30000    
     16108 MEOH     1036     MEOH     DO1      DRUD     -2.48830      0.400000           0   0.00000       0.00000    
     16109 MEOH     1036     MEOH     HO1      HDP1A    0.360000       1.00800           0   0.00000       0.00000    
     16110 MEOH     1036     MEOH     HO2      DUMH      0.00000       1.00800           0   0.00000       0.00000    
     16111 MEOH     1036     MEOH     H1A      HDA3B    0.800000E-01   1.00800           0   0.00000       0.00000    
     16112 MEOH     1036     MEOH     H1B      HDA3B    0.800000E-01   1.00800           0   0.00000       0.00000    
     16113 MEOH     1036     MEOH     H1C      HDA3B    0.800000E-01   1.00800           0   0.00000       0.00000    
     16114 MEOH     1036     MEOH     LP1A     LPD     -0.230000       0.00000          -1   0.00000       0.00000    
     16115 MEOH     1036     MEOH     LP1B     LPD     -0.230000       0.00000          -1   0.00000       0.00000    
     16116 MEOH     1037     MEOH     C1       CD33B     2.31410       11.6110           0  -1.00000       1.30000    
     16117 MEOH     1037     MEOH     DC1      DRUD     -2.45410      0.400000           0   0.00000       0.00000    
     16118 MEOH     1037     MEOH     O1       OD31H     2.48830       15.5990           0  -1.02800       1.30000    
     16119 MEOH     1037     MEOH     DO1      DRUD     -2.48830      0.400000           0   0.00000       0.00000    
     16120 MEOH     1037     MEOH     HO1      HDP1A    0.360000       1.00800           0   0.00000       0.00000    
     16121 MEOH     1037     MEOH     HO2      DUMH      0.00000       1.00800           0   0.00000       0.00000    
     16122 MEOH     1037     MEOH     H1A      HDA3B    0.800000E-01   1.00800           0   0.00000       0.00000    
     16123 MEOH     1037     MEOH     H1B      HDA3B    0.800000E-01   1.00800           0   0.00000       0.00000    
     16124 MEOH     1037     MEOH     H1C      HDA3B    0.800000E-01   1.00800           0   0.00000       0.00000    
     16125 MEOH     1037     MEOH     LP1A     LPD     -0.230000       0.00000          -1   0.00000       0.00000    
     16126 MEOH     1037     MEOH     LP1B     LPD     -0.230000       0.00000          -1   0.00000       0.00000    
     16127 MEOH     1038     MEOH     C1       CD33B     2.31410       11.6110           0  -1.00000       1.30000    
     16128 MEOH     1038     MEOH     DC1      DRUD     -2.45410      0.400000           0   0.00000       0.00000    
     16129 MEOH     1038     MEOH     O1       OD31H     2.48830       15.5990           0  -1.02800       1.30000    
     16130 MEOH     1038     MEOH     DO1      DRUD     -2.48830      0.400000           0   0.00000       0.00000    
     16131 MEOH     1038     MEOH     HO1      HDP1A    0.360000       1.00800           0   0.00000       0.00000    
     16132 MEOH     1038     MEOH     HO2      DUMH      0.00000       1.00800           0   0.00000       0.00000    
     16133 MEOH     1038     MEOH     H1A      HDA3B    0.800000E-01   1.00800           0   0.00000       0.00000    
     16134 MEOH     1038     MEOH     H1B      HDA3B    0.800000E-01   1.00800           0   0.00000       0.00000    
     16135 MEOH     1038     MEOH     H1C      HDA3B    0.800000E-01   1.00800           0   0.00000       0.00000    
     16136 MEOH     1038     MEOH     LP1A     LPD     -0.230000       0.00000          -1   0.00000       0.00000    
     16137 MEOH     1038     MEOH     LP1B     LPD     -0.230000       0.00000          -1   0.00000       0.00000    
     16138 MEOH     1039     MEOH     C1       CD33B     2.31410       11.6110           0  -1.00000       1.30000    
     16139 MEOH     1039     MEOH     DC1      DRUD     -2.45410      0.400000           0   0.00000       0.00000    
     16140 MEOH     1039     MEOH     O1       OD31H     2.48830       15.5990           0  -1.02800       1.30000    
     16141 MEOH     1039     MEOH     DO1      DRUD     -2.48830      0.400000           0   0.00000       0.00000    
     16142 MEOH     1039     MEOH     HO1      HDP1A    0.360000       1.00800           0   0.00000       0.00000    
     16143 MEOH     1039     MEOH     HO2      DUMH      0.00000       1.00800           0   0.00000       0.00000    
     16144 MEOH     1039     MEOH     H1A      HDA3B    0.800000E-01   1.00800           0   0.00000       0.00000    
     16145 MEOH     1039     MEOH     H1B      HDA3B    0.800000E-01   1.00800           0   0.00000       0.00000    
     16146 MEOH     1039     MEOH     H1C      HDA3B    0.800000E-01   1.00800           0   0.00000       0.00000    
     16147 MEOH     1039     MEOH     LP1A     LPD     -0.230000       0.00000          -1   0.00000       0.00000    
     16148 MEOH     1039     MEOH     LP1B     LPD     -0.230000       0.00000          -1   0.00000       0.00000    
     16149 MEOH     1040     MEOH     C1       CD33B     2.31410       11.6110           0  -1.00000       1.30000    
     16150 MEOH     1040     MEOH     DC1      DRUD     -2.45410      0.400000           0   0.00000       0.00000    
     16151 MEOH     1040     MEOH     O1       OD31H     2.48830       15.5990           0  -1.02800       1.30000    
     16152 MEOH     1040     MEOH     DO1      DRUD     -2.48830      0.400000           0   0.00000       0.00000    
     16153 MEOH     1040     MEOH     HO1      HDP1A    0.360000       1.00800           0   0.00000       0.00000    
     16154 MEOH     1040     MEOH     HO2      DUMH      0.00000       1.00800           0   0.00000       0.00000    
     16155 MEOH     1040     MEOH     H1A      HDA3B    0.800000E-01   1.00800           0   0.00000       0.00000    
     16156 MEOH     1040     MEOH     H1B      HDA3B    0.800000E-01   1.00800           0   0.00000       0.00000    
     16157 MEOH     1040     MEOH     H1C      HDA3B    0.800000E-01   1.00800           0   0.00000       0.00000    
     16158 MEOH     1040     MEOH     LP1A     LPD     -0.230000       0.00000          -1   0.00000       0.00000    
     16159 MEOH     1040     MEOH     LP1B     LPD     -0.230000       0.00000          -1   0.00000       0.00000    
     16160 MEOH     1041     MEOH     C1       CD33B     2.31410       11.6110           0  -1.00000       1.30000    
     16161 MEOH     1041     MEOH     DC1      DRUD     -2.45410      0.400000           0   0.00000       0.00000    
     16162 MEOH     1041     MEOH     O1       OD31H     2.48830       15.5990           0  -1.02800       1.30000    
     16163 MEOH     1041     MEOH     DO1      DRUD     -2.48830      0.400000           0   0.00000       0.00000    
     16164 MEOH     1041     MEOH     HO1      HDP1A    0.360000       1.00800           0   0.00000       0.00000    
     16165 MEOH     1041     MEOH     HO2      DUMH      0.00000       1.00800           0   0.00000       0.00000    
     16166 MEOH     1041     MEOH     H1A      HDA3B    0.800000E-01   1.00800           0   0.00000       0.00000    
     16167 MEOH     1041     MEOH     H1B      HDA3B    0.800000E-01   1.00800           0   0.00000       0.00000    
     16168 MEOH     1041     MEOH     H1C      HDA3B    0.800000E-01   1.00800           0   0.00000       0.00000    
     16169 MEOH     1041     MEOH     LP1A     LPD     -0.230000       0.00000          -1   0.00000       0.00000    
     16170 MEOH     1041     MEOH     LP1B     LPD     -0.230000       0.00000          -1   0.00000       0.00000    
     16171 MEOH     1042     MEOH     C1       CD33B     2.31410       11.6110           0  -1.00000       1.30000    
     16172 MEOH     1042     MEOH     DC1      DRUD     -2.45410      0.400000           0   0.00000       0.00000    
     16173 MEOH     1042     MEOH     O1       OD31H     2.48830       15.5990           0  -1.02800       1.30000    
     16174 MEOH     1042     MEOH     DO1      DRUD     -2.48830      0.400000           0   0.00000       0.00000    
     16175 MEOH     1042     MEOH     HO1      HDP1A    0.360000       1.00800           0   0.00000       0.00000    
     16176 MEOH     1042     MEOH     HO2      DUMH      0.00000       1.00800           0   0.00000       0.00000    
     16177 MEOH     1042     MEOH     H1A      HDA3B    0.800000E-01   1.00800           0   0.00000       0.00000    
     16178 MEOH     1042     MEOH     H1B      HDA3B    0.800000E-01   1.00800           0   0.00000       0.00000    
     16179 MEOH     1042     MEOH     H1C      HDA3B    0.800000E-01   1.00800           0   0.00000       0.00000    
     16180 MEOH     1042     MEOH     LP1A     LPD     -0.230000       0.00000          -1   0.00000       0.00000    
     16181 MEOH     1042     MEOH     LP1B     LPD     -0.230000       0.00000          -1   0.00000       0.00000    
     16182 MEOH     1043     MEOH     C1       CD33B     2.31410       11.6110           0  -1.00000       1.30000    
     16183 MEOH     1043     MEOH     DC1      DRUD     -2.45410      0.400000           0   0.00000       0.00000    
     16184 MEOH     1043     MEOH     O1       OD31H     2.48830       15.5990           0  -1.02800       1.30000    
     16185 MEOH     1043     MEOH     DO1      DRUD     -2.48830      0.400000           0   0.00000       0.00000    
     16186 MEOH     1043     MEOH     HO1      HDP1A    0.360000       1.00800           0   0.00000       0.00000    
     16187 MEOH     1043     MEOH     HO2      DUMH      0.00000       1.00800           0   0.00000       0.00000    
     16188 MEOH     1043     MEOH     H1A      HDA3B    0.800000E-01   1.00800           0   0.00000       0.00000    
     16189 MEOH     1043     MEOH     H1B      HDA3B    0.800000E-01   1.00800           0   0.00000       0.00000    
     16190 MEOH     1043     MEOH     H1C      HDA3B    0.800000E-01   1.00800           0   0.00000       0.00000    
     16191 MEOH     1043     MEOH     LP1A     LPD     -0.230000       0.00000          -1   0.00000       0.00000    
     16192 MEOH     1043     MEOH     LP1B     LPD     -0.230000       0.00000          -1   0.00000       0.00000    
     16193 MEOH     1044     MEOH     C1       CD33B     2.31410       11.6110           0  -1.00000       1.30000    
     16194 MEOH     1044     MEOH     DC1      DRUD     -2.45410      0.400000           0   0.00000       0.00000    
     16195 MEOH     1044     MEOH     O1       OD31H     2.48830       15.5990           0  -1.02800       1.30000    
     16196 MEOH     1044     MEOH     DO1      DRUD     -2.48830      0.400000           0   0.00000       0.00000    
     16197 MEOH     1044     MEOH     HO1      HDP1A    0.360000       1.00800           0   0.00000       0.00000    
     16198 MEOH     1044     MEOH     HO2      DUMH      0.00000       1.00800           0   0.00000       0.00000    
     16199 MEOH     1044     MEOH     H1A      HDA3B    0.800000E-01   1.00800           0   0.00000       0.00000    
     16200 MEOH     1044     MEOH     H1B      HDA3B    0.800000E-01   1.00800           0   0.00000       0.00000    
     16201 MEOH     1044     MEOH     H1C      HDA3B    0.800000E-01   1.00800           0   0.00000       0.00000    
     16202 MEOH     1044     MEOH     LP1A     LPD     -0.230000       0.00000          -1   0.00000       0.00000    
     16203 MEOH     1044     MEOH     LP1B     LPD     -0.230000       0.00000          -1   0.00000       0.00000    
     16204 MEOH     1045     MEOH     C1       CD33B     2.31410       11.6110           0  -1.00000       1.30000    
     16205 MEOH     1045     MEOH     DC1      DRUD     -2.45410      0.400000           0   0.00000       0.00000    
     16206 MEOH     1045     MEOH     O1       OD31H     2.48830       15.5990           0  -1.02800       1.30000    
     16207 MEOH     1045     MEOH     DO1      DRUD     -2.48830      0.400000           0   0.00000       0.00000    
     16208 MEOH     1045     MEOH     HO1      HDP1A    0.360000       1.00800           0   0.00000       0.00000    
     16209 MEOH     1045     MEOH     HO2      DUMH      0.00000       1.00800           0   0.00000       0.00000    
     16210 MEOH     1045     MEOH     H1A      HDA3B    0.800000E-01   1.00800           0   0.00000       0.00000    
     16211 MEOH     1045     MEOH     H1B      HDA3B    0.800000E-01   1.00800           0   0.00000       0.00000    
     16212 MEOH     1045     MEOH     H1C      HDA3B    0.800000E-01   1.00800           0   0.00000       0.00000    
     16213 MEOH     1045     MEOH     LP1A     LPD     -0.230000       0.00000          -1   0.00000       0.00000    
     16214 MEOH     1045     MEOH     LP1B     LPD     -0.230000       0.00000          -1   0.00000       0.00000    
     16215 MEOH     1046     MEOH     C1       CD33B     2.31410       11.6110           0  -1.00000       1.30000    
     16216 MEOH     1046     MEOH     DC1      DRUD     -2.45410      0.400000           0   0.00000       0.00000    
     16217 MEOH     1046     MEOH     O1       OD31H     2.48830       15.5990           0  -1.02800       1.30000    
     16218 MEOH     1046     MEOH     DO1      DRUD     -2.48830      0.400000           0   0.00000       0.00000    
     16219 MEOH     1046     MEOH     HO1      HDP1A    0.360000       1.00800           0   0.00000       0.00000    
     16220 MEOH     1046     MEOH     HO2      DUMH      0.00000       1.00800           0   0.00000       0.00000    
     16221 MEOH     1046     MEOH     H1A      HDA3B    0.800000E-01   1.00800           0   0.00000       0.00000    
     16222 MEOH     1046     MEOH     H1B      HDA3B    0.800000E-01   1.00800           0   0.00000       0.00000    
     16223 MEOH     1046     MEOH     H1C      HDA3B    0.800000E-01   1.00800           0   0.00000       0.00000    
     16224 MEOH     1046     MEOH     LP1A     LPD     -0.230000       0.00000          -1   0.00000       0.00000    
     16225 MEOH     1046     MEOH     LP1B     LPD     -0.230000       0.00000          -1   0.00000       0.00000    
     16226 MEOH     1047     MEOH     C1       CD33B     2.31410       11.6110           0  -1.00000       1.30000    
     16227 MEOH     1047     MEOH     DC1      DRUD     -2.45410      0.400000           0   0.00000       0.00000    
     16228 MEOH     1047     MEOH     O1       OD31H     2.48830       15.5990           0  -1.02800       1.30000    
     16229 MEOH     1047     MEOH     DO1      DRUD     -2.48830      0.400000           0   0.00000       0.00000    
     16230 MEOH     1047     MEOH     HO1      HDP1A    0.360000       1.00800           0   0.00000       0.00000    
     16231 MEOH     1047     MEOH     HO2      DUMH      0.00000       1.00800           0   0.00000       0.00000    
     16232 MEOH     1047     MEOH     H1A      HDA3B    0.800000E-01   1.00800           0   0.00000       0.00000    
     16233 MEOH     1047     MEOH     H1B      HDA3B    0.800000E-01   1.00800           0   0.00000       0.00000    
     16234 MEOH     1047     MEOH     H1C      HDA3B    0.800000E-01   1.00800           0   0.00000       0.00000    
     16235 MEOH     1047     MEOH     LP1A     LPD     -0.230000       0.00000          -1   0.00000       0.00000    
     16236 MEOH     1047     MEOH     LP1B     LPD     -0.230000       0.00000          -1   0.00000       0.00000    
     16237 MEOH     1048     MEOH     C1       CD33B     2.31410       11.6110           0  -1.00000       1.30000    
     16238 MEOH     1048     MEOH     DC1      DRUD     -2.45410      0.400000           0   0.00000       0.00000    
     16239 MEOH     1048     MEOH     O1       OD31H     2.48830       15.5990           0  -1.02800       1.30000    
     16240 MEOH     1048     MEOH     DO1      DRUD     -2.48830      0.400000           0   0.00000       0.00000    
     16241 MEOH     1048     MEOH     HO1      HDP1A    0.360000       1.00800           0   0.00000       0.00000    
     16242 MEOH     1048     MEOH     HO2      DUMH      0.00000       1.00800           0   0.00000       0.00000    
     16243 MEOH     1048     MEOH     H1A      HDA3B    0.800000E-01   1.00800           0   0.00000       0.00000    
     16244 MEOH     1048     MEOH     H1B      HDA3B    0.800000E-01   1.00800           0   0.00000       0.00000    
     16245 MEOH     1048     MEOH     H1C      HDA3B    0.800000E-01   1.00800           0   0.00000       0.00000    
     16246 MEOH     1048     MEOH     LP1A     LPD     -0.230000       0.00000          -1   0.00000       0.00000    
     16247 MEOH     1048     MEOH     LP1B     LPD     -0.230000       0.00000          -1   0.00000       0.00000    
     16248 MEOH     1049     MEOH     C1       CD33B     2.31410       11.6110           0  -1.00000       1.30000    
     16249 MEOH     1049     MEOH     DC1      DRUD     -2.45410      0.400000           0   0.00000       0.00000    
     16250 MEOH     1049     MEOH     O1       OD31H     2.48830       15.5990           0  -1.02800       1.30000    
     16251 MEOH     1049     MEOH     DO1      DRUD     -2.48830      0.400000           0   0.00000       0.00000    
     16252 MEOH     1049     MEOH     HO1      HDP1A    0.360000       1.00800           0   0.00000       0.00000    
     16253 MEOH     1049     MEOH     HO2      DUMH      0.00000       1.00800           0   0.00000       0.00000    
     16254 MEOH     1049     MEOH     H1A      HDA3B    0.800000E-01   1.00800           0   0.00000       0.00000    
     16255 MEOH     1049     MEOH     H1B      HDA3B    0.800000E-01   1.00800           0   0.00000       0.00000    
     16256 MEOH     1049     MEOH     H1C      HDA3B    0.800000E-01   1.00800           0   0.00000       0.00000    
     16257 MEOH     1049     MEOH     LP1A     LPD     -0.230000       0.00000          -1   0.00000       0.00000    
     16258 MEOH     1049     MEOH     LP1B     LPD     -0.230000       0.00000          -1   0.00000       0.00000    
     16259 MEOH     1050     MEOH     C1       CD33B     2.31410       11.6110           0  -1.00000       1.30000    
     16260 MEOH     1050     MEOH     DC1      DRUD     -2.45410      0.400000           0   0.00000       0.00000    
     16261 MEOH     1050     MEOH     O1       OD31H     2.48830       15.5990           0  -1.02800       1.30000    
     16262 MEOH     1050     MEOH     DO1      DRUD     -2.48830      0.400000           0   0.00000       0.00000    
     16263 MEOH     1050     MEOH     HO1      HDP1A    0.360000       1.00800           0   0.00000       0.00000    
     16264 MEOH     1050     MEOH     HO2      DUMH      0.00000       1.00800           0   0.00000       0.00000    
     16265 MEOH     1050     MEOH     H1A      HDA3B    0.800000E-01   1.00800           0   0.00000       0.00000    
     16266 MEOH     1050     MEOH     H1B      HDA3B    0.800000E-01   1.00800           0   0.00000       0.00000    
     16267 MEOH     1050     MEOH     H1C      HDA3B    0.800000E-01   1.00800           0   0.00000       0.00000    
     16268 MEOH     1050     MEOH     LP1A     LPD     -0.230000       0.00000          -1   0.00000       0.00000    
     16269 MEOH     1050     MEOH     LP1B     LPD     -0.230000       0.00000          -1   0.00000       0.00000    
     16270 MEOH     1051     MEOH     C1       CD33B     2.31410       11.6110           0  -1.00000       1.30000    
     16271 MEOH     1051     MEOH     DC1      DRUD     -2.45410      0.400000           0   0.00000       0.00000    
     16272 MEOH     1051     MEOH     O1       OD31H     2.48830       15.5990           0  -1.02800       1.30000    
     16273 MEOH     1051     MEOH     DO1      DRUD     -2.48830      0.400000           0   0.00000       0.00000    
     16274 MEOH     1051     MEOH     HO1      HDP1A    0.360000       1.00800           0   0.00000       0.00000    
     16275 MEOH     1051     MEOH     HO2      DUMH      0.00000       1.00800           0   0.00000       0.00000    
     16276 MEOH     1051     MEOH     H1A      HDA3B    0.800000E-01   1.00800           0   0.00000       0.00000    
     16277 MEOH     1051     MEOH     H1B      HDA3B    0.800000E-01   1.00800           0   0.00000       0.00000    
     16278 MEOH     1051     MEOH     H1C      HDA3B    0.800000E-01   1.00800           0   0.00000       0.00000    
     16279 MEOH     1051     MEOH     LP1A     LPD     -0.230000       0.00000          -1   0.00000       0.00000    
     16280 MEOH     1051     MEOH     LP1B     LPD     -0.230000       0.00000          -1   0.00000       0.00000    
     16281 MEOH     1052     MEOH     C1       CD33B     2.31410       11.6110           0  -1.00000       1.30000    
     16282 MEOH     1052     MEOH     DC1      DRUD     -2.45410      0.400000           0   0.00000       0.00000    
     16283 MEOH     1052     MEOH     O1       OD31H     2.48830       15.5990           0  -1.02800       1.30000    
     16284 MEOH     1052     MEOH     DO1      DRUD     -2.48830      0.400000           0   0.00000       0.00000    
     16285 MEOH     1052     MEOH     HO1      HDP1A    0.360000       1.00800           0   0.00000       0.00000    
     16286 MEOH     1052     MEOH     HO2      DUMH      0.00000       1.00800           0   0.00000       0.00000    
     16287 MEOH     1052     MEOH     H1A      HDA3B    0.800000E-01   1.00800           0   0.00000       0.00000    
     16288 MEOH     1052     MEOH     H1B      HDA3B    0.800000E-01   1.00800           0   0.00000       0.00000    
     16289 MEOH     1052     MEOH     H1C      HDA3B    0.800000E-01   1.00800           0   0.00000       0.00000    
     16290 MEOH     1052     MEOH     LP1A     LPD     -0.230000       0.00000          -1   0.00000       0.00000    
     16291 MEOH     1052     MEOH     LP1B     LPD     -0.230000       0.00000          -1   0.00000       0.00000    
     16292 MEOH     1053     MEOH     C1       CD33B     2.31410       11.6110           0  -1.00000       1.30000    
     16293 MEOH     1053     MEOH     DC1      DRUD     -2.45410      0.400000           0   0.00000       0.00000    
     16294 MEOH     1053     MEOH     O1       OD31H     2.48830       15.5990           0  -1.02800       1.30000    
     16295 MEOH     1053     MEOH     DO1      DRUD     -2.48830      0.400000           0   0.00000       0.00000    
     16296 MEOH     1053     MEOH     HO1      HDP1A    0.360000       1.00800           0   0.00000       0.00000    
     16297 MEOH     1053     MEOH     HO2      DUMH      0.00000       1.00800           0   0.00000       0.00000    
     16298 MEOH     1053     MEOH     H1A      HDA3B    0.800000E-01   1.00800           0   0.00000       0.00000    
     16299 MEOH     1053     MEOH     H1B      HDA3B    0.800000E-01   1.00800           0   0.00000       0.00000    
     16300 MEOH     1053     MEOH     H1C      HDA3B    0.800000E-01   1.00800           0   0.00000       0.00000    
     16301 MEOH     1053     MEOH     LP1A     LPD     -0.230000       0.00000          -1   0.00000       0.00000    
     16302 MEOH     1053     MEOH     LP1B     LPD     -0.230000       0.00000          -1   0.00000       0.00000    
     16303 MEOH     1054     MEOH     C1       CD33B     2.31410       11.6110           0  -1.00000       1.30000    
     16304 MEOH     1054     MEOH     DC1      DRUD     -2.45410      0.400000           0   0.00000       0.00000    
     16305 MEOH     1054     MEOH     O1       OD31H     2.48830       15.5990           0  -1.02800       1.30000    
     16306 MEOH     1054     MEOH     DO1      DRUD     -2.48830      0.400000           0   0.00000       0.00000    
     16307 MEOH     1054     MEOH     HO1      HDP1A    0.360000       1.00800           0   0.00000       0.00000    
     16308 MEOH     1054     MEOH     HO2      DUMH      0.00000       1.00800           0   0.00000       0.00000    
     16309 MEOH     1054     MEOH     H1A      HDA3B    0.800000E-01   1.00800           0   0.00000       0.00000    
     16310 MEOH     1054     MEOH     H1B      HDA3B    0.800000E-01   1.00800           0   0.00000       0.00000    
     16311 MEOH     1054     MEOH     H1C      HDA3B    0.800000E-01   1.00800           0   0.00000       0.00000    
     16312 MEOH     1054     MEOH     LP1A     LPD     -0.230000       0.00000          -1   0.00000       0.00000    
     16313 MEOH     1054     MEOH     LP1B     LPD     -0.230000       0.00000          -1   0.00000       0.00000    
     16314 MEOH     1055     MEOH     C1       CD33B     2.31410       11.6110           0  -1.00000       1.30000    
     16315 MEOH     1055     MEOH     DC1      DRUD     -2.45410      0.400000           0   0.00000       0.00000    
     16316 MEOH     1055     MEOH     O1       OD31H     2.48830       15.5990           0  -1.02800       1.30000    
     16317 MEOH     1055     MEOH     DO1      DRUD     -2.48830      0.400000           0   0.00000       0.00000    
     16318 MEOH     1055     MEOH     HO1      HDP1A    0.360000       1.00800           0   0.00000       0.00000    
     16319 MEOH     1055     MEOH     HO2      DUMH      0.00000       1.00800           0   0.00000       0.00000    
     16320 MEOH     1055     MEOH     H1A      HDA3B    0.800000E-01   1.00800           0   0.00000       0.00000    
     16321 MEOH     1055     MEOH     H1B      HDA3B    0.800000E-01   1.00800           0   0.00000       0.00000    
     16322 MEOH     1055     MEOH     H1C      HDA3B    0.800000E-01   1.00800           0   0.00000       0.00000    
     16323 MEOH     1055     MEOH     LP1A     LPD     -0.230000       0.00000          -1   0.00000       0.00000    
     16324 MEOH     1055     MEOH     LP1B     LPD     -0.230000       0.00000          -1   0.00000       0.00000    
     16325 MEOH     1056     MEOH     C1       CD33B     2.31410       11.6110           0  -1.00000       1.30000    
     16326 MEOH     1056     MEOH     DC1      DRUD     -2.45410      0.400000           0   0.00000       0.00000    
     16327 MEOH     1056     MEOH     O1       OD31H     2.48830       15.5990           0  -1.02800       1.30000    
     16328 MEOH     1056     MEOH     DO1      DRUD     -2.48830      0.400000           0   0.00000       0.00000    
     16329 MEOH     1056     MEOH     HO1      HDP1A    0.360000       1.00800           0   0.00000       0.00000    
     16330 MEOH     1056     MEOH     HO2      DUMH      0.00000       1.00800           0   0.00000       0.00000    
     16331 MEOH     1056     MEOH     H1A      HDA3B    0.800000E-01   1.00800           0   0.00000       0.00000    
     16332 MEOH     1056     MEOH     H1B      HDA3B    0.800000E-01   1.00800           0   0.00000       0.00000    
     16333 MEOH     1056     MEOH     H1C      HDA3B    0.800000E-01   1.00800           0   0.00000       0.00000    
     16334 MEOH     1056     MEOH     LP1A     LPD     -0.230000       0.00000          -1   0.00000       0.00000    
     16335 MEOH     1056     MEOH     LP1B     LPD     -0.230000       0.00000          -1   0.00000       0.00000    
     16336 MEOH     1057     MEOH     C1       CD33B     2.31410       11.6110           0  -1.00000       1.30000    
     16337 MEOH     1057     MEOH     DC1      DRUD     -2.45410      0.400000           0   0.00000       0.00000    
     16338 MEOH     1057     MEOH     O1       OD31H     2.48830       15.5990           0  -1.02800       1.30000    
     16339 MEOH     1057     MEOH     DO1      DRUD     -2.48830      0.400000           0   0.00000       0.00000    
     16340 MEOH     1057     MEOH     HO1      HDP1A    0.360000       1.00800           0   0.00000       0.00000    
     16341 MEOH     1057     MEOH     HO2      DUMH      0.00000       1.00800           0   0.00000       0.00000    
     16342 MEOH     1057     MEOH     H1A      HDA3B    0.800000E-01   1.00800           0   0.00000       0.00000    
     16343 MEOH     1057     MEOH     H1B      HDA3B    0.800000E-01   1.00800           0   0.00000       0.00000    
     16344 MEOH     1057     MEOH     H1C      HDA3B    0.800000E-01   1.00800           0   0.00000       0.00000    
     16345 MEOH     1057     MEOH     LP1A     LPD     -0.230000       0.00000          -1   0.00000       0.00000    
     16346 MEOH     1057     MEOH     LP1B     LPD     -0.230000       0.00000          -1   0.00000       0.00000    
     16347 MEOH     1058     MEOH     C1       CD33B     2.31410       11.6110           0  -1.00000       1.30000    
     16348 MEOH     1058     MEOH     DC1      DRUD     -2.45410      0.400000           0   0.00000       0.00000    
     16349 MEOH     1058     MEOH     O1       OD31H     2.48830       15.5990           0  -1.02800       1.30000    
     16350 MEOH     1058     MEOH     DO1      DRUD     -2.48830      0.400000           0   0.00000       0.00000    
     16351 MEOH     1058     MEOH     HO1      HDP1A    0.360000       1.00800           0   0.00000       0.00000    
     16352 MEOH     1058     MEOH     HO2      DUMH      0.00000       1.00800           0   0.00000       0.00000    
     16353 MEOH     1058     MEOH     H1A      HDA3B    0.800000E-01   1.00800           0   0.00000       0.00000    
     16354 MEOH     1058     MEOH     H1B      HDA3B    0.800000E-01   1.00800           0   0.00000       0.00000    
     16355 MEOH     1058     MEOH     H1C      HDA3B    0.800000E-01   1.00800           0   0.00000       0.00000    
     16356 MEOH     1058     MEOH     LP1A     LPD     -0.230000       0.00000          -1   0.00000       0.00000    
     16357 MEOH     1058     MEOH     LP1B     LPD     -0.230000       0.00000          -1   0.00000       0.00000    
     16358 MEOH     1059     MEOH     C1       CD33B     2.31410       11.6110           0  -1.00000       1.30000    
     16359 MEOH     1059     MEOH     DC1      DRUD     -2.45410      0.400000           0   0.00000       0.00000    
     16360 MEOH     1059     MEOH     O1       OD31H     2.48830       15.5990           0  -1.02800       1.30000    
     16361 MEOH     1059     MEOH     DO1      DRUD     -2.48830      0.400000           0   0.00000       0.00000    
     16362 MEOH     1059     MEOH     HO1      HDP1A    0.360000       1.00800           0   0.00000       0.00000    
     16363 MEOH     1059     MEOH     HO2      DUMH      0.00000       1.00800           0   0.00000       0.00000    
     16364 MEOH     1059     MEOH     H1A      HDA3B    0.800000E-01   1.00800           0   0.00000       0.00000    
     16365 MEOH     1059     MEOH     H1B      HDA3B    0.800000E-01   1.00800           0   0.00000       0.00000    
     16366 MEOH     1059     MEOH     H1C      HDA3B    0.800000E-01   1.00800           0   0.00000       0.00000    
     16367 MEOH     1059     MEOH     LP1A     LPD     -0.230000       0.00000          -1   0.00000       0.00000    
     16368 MEOH     1059     MEOH     LP1B     LPD     -0.230000       0.00000          -1   0.00000       0.00000    
     16369 MEOH     1060     MEOH     C1       CD33B     2.31410       11.6110           0  -1.00000       1.30000    
     16370 MEOH     1060     MEOH     DC1      DRUD     -2.45410      0.400000           0   0.00000       0.00000    
     16371 MEOH     1060     MEOH     O1       OD31H     2.48830       15.5990           0  -1.02800       1.30000    
     16372 MEOH     1060     MEOH     DO1      DRUD     -2.48830      0.400000           0   0.00000       0.00000    
     16373 MEOH     1060     MEOH     HO1      HDP1A    0.360000       1.00800           0   0.00000       0.00000    
     16374 MEOH     1060     MEOH     HO2      DUMH      0.00000       1.00800           0   0.00000       0.00000    
     16375 MEOH     1060     MEOH     H1A      HDA3B    0.800000E-01   1.00800           0   0.00000       0.00000    
     16376 MEOH     1060     MEOH     H1B      HDA3B    0.800000E-01   1.00800           0   0.00000       0.00000    
     16377 MEOH     1060     MEOH     H1C      HDA3B    0.800000E-01   1.00800           0   0.00000       0.00000    
     16378 MEOH     1060     MEOH     LP1A     LPD     -0.230000       0.00000          -1   0.00000       0.00000    
     16379 MEOH     1060     MEOH     LP1B     LPD     -0.230000       0.00000          -1   0.00000       0.00000    
     16380 MEOH     1061     MEOH     C1       CD33B     2.31410       11.6110           0  -1.00000       1.30000    
     16381 MEOH     1061     MEOH     DC1      DRUD     -2.45410      0.400000           0   0.00000       0.00000    
     16382 MEOH     1061     MEOH     O1       OD31H     2.48830       15.5990           0  -1.02800       1.30000    
     16383 MEOH     1061     MEOH     DO1      DRUD     -2.48830      0.400000           0   0.00000       0.00000    
     16384 MEOH     1061     MEOH     HO1      HDP1A    0.360000       1.00800           0   0.00000       0.00000    
     16385 MEOH     1061     MEOH     HO2      DUMH      0.00000       1.00800           0   0.00000       0.00000    
     16386 MEOH     1061     MEOH     H1A      HDA3B    0.800000E-01   1.00800           0   0.00000       0.00000    
     16387 MEOH     1061     MEOH     H1B      HDA3B    0.800000E-01   1.00800           0   0.00000       0.00000    
     16388 MEOH     1061     MEOH     H1C      HDA3B    0.800000E-01   1.00800           0   0.00000       0.00000    
     16389 MEOH     1061     MEOH     LP1A     LPD     -0.230000       0.00000          -1   0.00000       0.00000    
     16390 MEOH     1061     MEOH     LP1B     LPD     -0.230000       0.00000          -1   0.00000       0.00000    
     16391 MEOH     1062     MEOH     C1       CD33B     2.31410       11.6110           0  -1.00000       1.30000    
     16392 MEOH     1062     MEOH     DC1      DRUD     -2.45410      0.400000           0   0.00000       0.00000    
     16393 MEOH     1062     MEOH     O1       OD31H     2.48830       15.5990           0  -1.02800       1.30000    
     16394 MEOH     1062     MEOH     DO1      DRUD     -2.48830      0.400000           0   0.00000       0.00000    
     16395 MEOH     1062     MEOH     HO1      HDP1A    0.360000       1.00800           0   0.00000       0.00000    
     16396 MEOH     1062     MEOH     HO2      DUMH      0.00000       1.00800           0   0.00000       0.00000    
     16397 MEOH     1062     MEOH     H1A      HDA3B    0.800000E-01   1.00800           0   0.00000       0.00000    
     16398 MEOH     1062     MEOH     H1B      HDA3B    0.800000E-01   1.00800           0   0.00000       0.00000    
     16399 MEOH     1062     MEOH     H1C      HDA3B    0.800000E-01   1.00800           0   0.00000       0.00000    
     16400 MEOH     1062     MEOH     LP1A     LPD     -0.230000       0.00000          -1   0.00000       0.00000    
     16401 MEOH     1062     MEOH     LP1B     LPD     -0.230000       0.00000          -1   0.00000       0.00000    
     16402 MEOH     1063     MEOH     C1       CD33B     2.31410       11.6110           0  -1.00000       1.30000    
     16403 MEOH     1063     MEOH     DC1      DRUD     -2.45410      0.400000           0   0.00000       0.00000    
     16404 MEOH     1063     MEOH     O1       OD31H     2.48830       15.5990           0  -1.02800       1.30000    
     16405 MEOH     1063     MEOH     DO1      DRUD     -2.48830      0.400000           0   0.00000       0.00000    
     16406 MEOH     1063     MEOH     HO1      HDP1A    0.360000       1.00800           0   0.00000       0.00000    
     16407 MEOH     1063     MEOH     HO2      DUMH      0.00000       1.00800           0   0.00000       0.00000    
     16408 MEOH     1063     MEOH     H1A      HDA3B    0.800000E-01   1.00800           0   0.00000       0.00000    
     16409 MEOH     1063     MEOH     H1B      HDA3B    0.800000E-01   1.00800           0   0.00000       0.00000    
     16410 MEOH     1063     MEOH     H1C      HDA3B    0.800000E-01   1.00800           0   0.00000       0.00000    
     16411 MEOH     1063     MEOH     LP1A     LPD     -0.230000       0.00000          -1   0.00000       0.00000    
     16412 MEOH     1063     MEOH     LP1B     LPD     -0.230000       0.00000          -1   0.00000       0.00000    
     16413 MEOH     1064     MEOH     C1       CD33B     2.31410       11.6110           0  -1.00000       1.30000    
     16414 MEOH     1064     MEOH     DC1      DRUD     -2.45410      0.400000           0   0.00000       0.00000    
     16415 MEOH     1064     MEOH     O1       OD31H     2.48830       15.5990           0  -1.02800       1.30000    
     16416 MEOH     1064     MEOH     DO1      DRUD     -2.48830      0.400000           0   0.00000       0.00000    
     16417 MEOH     1064     MEOH     HO1      HDP1A    0.360000       1.00800           0   0.00000       0.00000    
     16418 MEOH     1064     MEOH     HO2      DUMH      0.00000       1.00800           0   0.00000       0.00000    
     16419 MEOH     1064     MEOH     H1A      HDA3B    0.800000E-01   1.00800           0   0.00000       0.00000    
     16420 MEOH     1064     MEOH     H1B      HDA3B    0.800000E-01   1.00800           0   0.00000       0.00000    
     16421 MEOH     1064     MEOH     H1C      HDA3B    0.800000E-01   1.00800           0   0.00000       0.00000    
     16422 MEOH     1064     MEOH     LP1A     LPD     -0.230000       0.00000          -1   0.00000       0.00000    
     16423 MEOH     1064     MEOH     LP1B     LPD     -0.230000       0.00000          -1   0.00000       0.00000    
     16424 MEOH     1065     MEOH     C1       CD33B     2.31410       11.6110           0  -1.00000       1.30000    
     16425 MEOH     1065     MEOH     DC1      DRUD     -2.45410      0.400000           0   0.00000       0.00000    
     16426 MEOH     1065     MEOH     O1       OD31H     2.48830       15.5990           0  -1.02800       1.30000    
     16427 MEOH     1065     MEOH     DO1      DRUD     -2.48830      0.400000           0   0.00000       0.00000    
     16428 MEOH     1065     MEOH     HO1      HDP1A    0.360000       1.00800           0   0.00000       0.00000    
     16429 MEOH     1065     MEOH     HO2      DUMH      0.00000       1.00800           0   0.00000       0.00000    
     16430 MEOH     1065     MEOH     H1A      HDA3B    0.800000E-01   1.00800           0   0.00000       0.00000    
     16431 MEOH     1065     MEOH     H1B      HDA3B    0.800000E-01   1.00800           0   0.00000       0.00000    
     16432 MEOH     1065     MEOH     H1C      HDA3B    0.800000E-01   1.00800           0   0.00000       0.00000    
     16433 MEOH     1065     MEOH     LP1A     LPD     -0.230000       0.00000          -1   0.00000       0.00000    
     16434 MEOH     1065     MEOH     LP1B     LPD     -0.230000       0.00000          -1   0.00000       0.00000    
     16435 MEOH     1066     MEOH     C1       CD33B     2.31410       11.6110           0  -1.00000       1.30000    
     16436 MEOH     1066     MEOH     DC1      DRUD     -2.45410      0.400000           0   0.00000       0.00000    
     16437 MEOH     1066     MEOH     O1       OD31H     2.48830       15.5990           0  -1.02800       1.30000    
     16438 MEOH     1066     MEOH     DO1      DRUD     -2.48830      0.400000           0   0.00000       0.00000    
     16439 MEOH     1066     MEOH     HO1      HDP1A    0.360000       1.00800           0   0.00000       0.00000    
     16440 MEOH     1066     MEOH     HO2      DUMH      0.00000       1.00800           0   0.00000       0.00000    
     16441 MEOH     1066     MEOH     H1A      HDA3B    0.800000E-01   1.00800           0   0.00000       0.00000    
     16442 MEOH     1066     MEOH     H1B      HDA3B    0.800000E-01   1.00800           0   0.00000       0.00000    
     16443 MEOH     1066     MEOH     H1C      HDA3B    0.800000E-01   1.00800           0   0.00000       0.00000    
     16444 MEOH     1066     MEOH     LP1A     LPD     -0.230000       0.00000          -1   0.00000       0.00000    
     16445 MEOH     1066     MEOH     LP1B     LPD     -0.230000       0.00000          -1   0.00000       0.00000    
     16446 MEOH     1067     MEOH     C1       CD33B     2.31410       11.6110           0  -1.00000       1.30000    
     16447 MEOH     1067     MEOH     DC1      DRUD     -2.45410      0.400000           0   0.00000       0.00000    
     16448 MEOH     1067     MEOH     O1       OD31H     2.48830       15.5990           0  -1.02800       1.30000    
     16449 MEOH     1067     MEOH     DO1      DRUD     -2.48830      0.400000           0   0.00000       0.00000    
     16450 MEOH     1067     MEOH     HO1      HDP1A    0.360000       1.00800           0   0.00000       0.00000    
     16451 MEOH     1067     MEOH     HO2      DUMH      0.00000       1.00800           0   0.00000       0.00000    
     16452 MEOH     1067     MEOH     H1A      HDA3B    0.800000E-01   1.00800           0   0.00000       0.00000    
     16453 MEOH     1067     MEOH     H1B      HDA3B    0.800000E-01   1.00800           0   0.00000       0.00000    
     16454 MEOH     1067     MEOH     H1C      HDA3B    0.800000E-01   1.00800           0   0.00000       0.00000    
     16455 MEOH     1067     MEOH     LP1A     LPD     -0.230000       0.00000          -1   0.00000       0.00000    
     16456 MEOH     1067     MEOH     LP1B     LPD     -0.230000       0.00000          -1   0.00000       0.00000    
     16457 MEOH     1068     MEOH     C1       CD33B     2.31410       11.6110           0  -1.00000       1.30000    
     16458 MEOH     1068     MEOH     DC1      DRUD     -2.45410      0.400000           0   0.00000       0.00000    
     16459 MEOH     1068     MEOH     O1       OD31H     2.48830       15.5990           0  -1.02800       1.30000    
     16460 MEOH     1068     MEOH     DO1      DRUD     -2.48830      0.400000           0   0.00000       0.00000    
     16461 MEOH     1068     MEOH     HO1      HDP1A    0.360000       1.00800           0   0.00000       0.00000    
     16462 MEOH     1068     MEOH     HO2      DUMH      0.00000       1.00800           0   0.00000       0.00000    
     16463 MEOH     1068     MEOH     H1A      HDA3B    0.800000E-01   1.00800           0   0.00000       0.00000    
     16464 MEOH     1068     MEOH     H1B      HDA3B    0.800000E-01   1.00800           0   0.00000       0.00000    
     16465 MEOH     1068     MEOH     H1C      HDA3B    0.800000E-01   1.00800           0   0.00000       0.00000    
     16466 MEOH     1068     MEOH     LP1A     LPD     -0.230000       0.00000          -1   0.00000       0.00000    
     16467 MEOH     1068     MEOH     LP1B     LPD     -0.230000       0.00000          -1   0.00000       0.00000    
     16468 MEOH     1069     MEOH     C1       CD33B     2.31410       11.6110           0  -1.00000       1.30000    
     16469 MEOH     1069     MEOH     DC1      DRUD     -2.45410      0.400000           0   0.00000       0.00000    
     16470 MEOH     1069     MEOH     O1       OD31H     2.48830       15.5990           0  -1.02800       1.30000    
     16471 MEOH     1069     MEOH     DO1      DRUD     -2.48830      0.400000           0   0.00000       0.00000    
     16472 MEOH     1069     MEOH     HO1      HDP1A    0.360000       1.00800           0   0.00000       0.00000    
     16473 MEOH     1069     MEOH     HO2      DUMH      0.00000       1.00800           0   0.00000       0.00000    
     16474 MEOH     1069     MEOH     H1A      HDA3B    0.800000E-01   1.00800           0   0.00000       0.00000    
     16475 MEOH     1069     MEOH     H1B      HDA3B    0.800000E-01   1.00800           0   0.00000       0.00000    
     16476 MEOH     1069     MEOH     H1C      HDA3B    0.800000E-01   1.00800           0   0.00000       0.00000    
     16477 MEOH     1069     MEOH     LP1A     LPD     -0.230000       0.00000          -1   0.00000       0.00000    
     16478 MEOH     1069     MEOH     LP1B     LPD     -0.230000       0.00000          -1   0.00000       0.00000    
     16479 MEOH     1070     MEOH     C1       CD33B     2.31410       11.6110           0  -1.00000       1.30000    
     16480 MEOH     1070     MEOH     DC1      DRUD     -2.45410      0.400000           0   0.00000       0.00000    
     16481 MEOH     1070     MEOH     O1       OD31H     2.48830       15.5990           0  -1.02800       1.30000    
     16482 MEOH     1070     MEOH     DO1      DRUD     -2.48830      0.400000           0   0.00000       0.00000    
     16483 MEOH     1070     MEOH     HO1      HDP1A    0.360000       1.00800           0   0.00000       0.00000    
     16484 MEOH     1070     MEOH     HO2      DUMH      0.00000       1.00800           0   0.00000       0.00000    
     16485 MEOH     1070     MEOH     H1A      HDA3B    0.800000E-01   1.00800           0   0.00000       0.00000    
     16486 MEOH     1070     MEOH     H1B      HDA3B    0.800000E-01   1.00800           0   0.00000       0.00000    
     16487 MEOH     1070     MEOH     H1C      HDA3B    0.800000E-01   1.00800           0   0.00000       0.00000    
     16488 MEOH     1070     MEOH     LP1A     LPD     -0.230000       0.00000          -1   0.00000       0.00000    
     16489 MEOH     1070     MEOH     LP1B     LPD     -0.230000       0.00000          -1   0.00000       0.00000    
     16490 MEOH     1071     MEOH     C1       CD33B     2.31410       11.6110           0  -1.00000       1.30000    
     16491 MEOH     1071     MEOH     DC1      DRUD     -2.45410      0.400000           0   0.00000       0.00000    
     16492 MEOH     1071     MEOH     O1       OD31H     2.48830       15.5990           0  -1.02800       1.30000    
     16493 MEOH     1071     MEOH     DO1      DRUD     -2.48830      0.400000           0   0.00000       0.00000    
     16494 MEOH     1071     MEOH     HO1      HDP1A    0.360000       1.00800           0   0.00000       0.00000    
     16495 MEOH     1071     MEOH     HO2      DUMH      0.00000       1.00800           0   0.00000       0.00000    
     16496 MEOH     1071     MEOH     H1A      HDA3B    0.800000E-01   1.00800           0   0.00000       0.00000    
     16497 MEOH     1071     MEOH     H1B      HDA3B    0.800000E-01   1.00800           0   0.00000       0.00000    
     16498 MEOH     1071     MEOH     H1C      HDA3B    0.800000E-01   1.00800           0   0.00000       0.00000    
     16499 MEOH     1071     MEOH     LP1A     LPD     -0.230000       0.00000          -1   0.00000       0.00000    
     16500 MEOH     1071     MEOH     LP1B     LPD     -0.230000       0.00000          -1   0.00000       0.00000    
     16501 MEOH     1072     MEOH     C1       CD33B     2.31410       11.6110           0  -1.00000       1.30000    
     16502 MEOH     1072     MEOH     DC1      DRUD     -2.45410      0.400000           0   0.00000       0.00000    
     16503 MEOH     1072     MEOH     O1       OD31H     2.48830       15.5990           0  -1.02800       1.30000    
     16504 MEOH     1072     MEOH     DO1      DRUD     -2.48830      0.400000           0   0.00000       0.00000    
     16505 MEOH     1072     MEOH     HO1      HDP1A    0.360000       1.00800           0   0.00000       0.00000    
     16506 MEOH     1072     MEOH     HO2      DUMH      0.00000       1.00800           0   0.00000       0.00000    
     16507 MEOH     1072     MEOH     H1A      HDA3B    0.800000E-01   1.00800           0   0.00000       0.00000    
     16508 MEOH     1072     MEOH     H1B      HDA3B    0.800000E-01   1.00800           0   0.00000       0.00000    
     16509 MEOH     1072     MEOH     H1C      HDA3B    0.800000E-01   1.00800           0   0.00000       0.00000    
     16510 MEOH     1072     MEOH     LP1A     LPD     -0.230000       0.00000          -1   0.00000       0.00000    
     16511 MEOH     1072     MEOH     LP1B     LPD     -0.230000       0.00000          -1   0.00000       0.00000    
     16512 MEOH     1073     MEOH     C1       CD33B     2.31410       11.6110           0  -1.00000       1.30000    
     16513 MEOH     1073     MEOH     DC1      DRUD     -2.45410      0.400000           0   0.00000       0.00000    
     16514 MEOH     1073     MEOH     O1       OD31H     2.48830       15.5990           0  -1.02800       1.30000    
     16515 MEOH     1073     MEOH     DO1      DRUD     -2.48830      0.400000           0   0.00000       0.00000    
     16516 MEOH     1073     MEOH     HO1      HDP1A    0.360000       1.00800           0   0.00000       0.00000    
     16517 MEOH     1073     MEOH     HO2      DUMH      0.00000       1.00800           0   0.00000       0.00000    
     16518 MEOH     1073     MEOH     H1A      HDA3B    0.800000E-01   1.00800           0   0.00000       0.00000    
     16519 MEOH     1073     MEOH     H1B      HDA3B    0.800000E-01   1.00800           0   0.00000       0.00000    
     16520 MEOH     1073     MEOH     H1C      HDA3B    0.800000E-01   1.00800           0   0.00000       0.00000    
     16521 MEOH     1073     MEOH     LP1A     LPD     -0.230000       0.00000          -1   0.00000       0.00000    
     16522 MEOH     1073     MEOH     LP1B     LPD     -0.230000       0.00000          -1   0.00000       0.00000    
     16523 MEOH     1074     MEOH     C1       CD33B     2.31410       11.6110           0  -1.00000       1.30000    
     16524 MEOH     1074     MEOH     DC1      DRUD     -2.45410      0.400000           0   0.00000       0.00000    
     16525 MEOH     1074     MEOH     O1       OD31H     2.48830       15.5990           0  -1.02800       1.30000    
     16526 MEOH     1074     MEOH     DO1      DRUD     -2.48830      0.400000           0   0.00000       0.00000    
     16527 MEOH     1074     MEOH     HO1      HDP1A    0.360000       1.00800           0   0.00000       0.00000    
     16528 MEOH     1074     MEOH     HO2      DUMH      0.00000       1.00800           0   0.00000       0.00000    
     16529 MEOH     1074     MEOH     H1A      HDA3B    0.800000E-01   1.00800           0   0.00000       0.00000    
     16530 MEOH     1074     MEOH     H1B      HDA3B    0.800000E-01   1.00800           0   0.00000       0.00000    
     16531 MEOH     1074     MEOH     H1C      HDA3B    0.800000E-01   1.00800           0   0.00000       0.00000    
     16532 MEOH     1074     MEOH     LP1A     LPD     -0.230000       0.00000          -1   0.00000       0.00000    
     16533 MEOH     1074     MEOH     LP1B     LPD     -0.230000       0.00000          -1   0.00000       0.00000    
     16534 MEOH     1075     MEOH     C1       CD33B     2.31410       11.6110           0  -1.00000       1.30000    
     16535 MEOH     1075     MEOH     DC1      DRUD     -2.45410      0.400000           0   0.00000       0.00000    
     16536 MEOH     1075     MEOH     O1       OD31H     2.48830       15.5990           0  -1.02800       1.30000    
     16537 MEOH     1075     MEOH     DO1      DRUD     -2.48830      0.400000           0   0.00000       0.00000    
     16538 MEOH     1075     MEOH     HO1      HDP1A    0.360000       1.00800           0   0.00000       0.00000    
     16539 MEOH     1075     MEOH     HO2      DUMH      0.00000       1.00800           0   0.00000       0.00000    
     16540 MEOH     1075     MEOH     H1A      HDA3B    0.800000E-01   1.00800           0   0.00000       0.00000    
     16541 MEOH     1075     MEOH     H1B      HDA3B    0.800000E-01   1.00800           0   0.00000       0.00000    
     16542 MEOH     1075     MEOH     H1C      HDA3B    0.800000E-01   1.00800           0   0.00000       0.00000    
     16543 MEOH     1075     MEOH     LP1A     LPD     -0.230000       0.00000          -1   0.00000       0.00000    
     16544 MEOH     1075     MEOH     LP1B     LPD     -0.230000       0.00000          -1   0.00000       0.00000    
     16545 MEOH     1076     MEOH     C1       CD33B     2.31410       11.6110           0  -1.00000       1.30000    
     16546 MEOH     1076     MEOH     DC1      DRUD     -2.45410      0.400000           0   0.00000       0.00000    
     16547 MEOH     1076     MEOH     O1       OD31H     2.48830       15.5990           0  -1.02800       1.30000    
     16548 MEOH     1076     MEOH     DO1      DRUD     -2.48830      0.400000           0   0.00000       0.00000    
     16549 MEOH     1076     MEOH     HO1      HDP1A    0.360000       1.00800           0   0.00000       0.00000    
     16550 MEOH     1076     MEOH     HO2      DUMH      0.00000       1.00800           0   0.00000       0.00000    
     16551 MEOH     1076     MEOH     H1A      HDA3B    0.800000E-01   1.00800           0   0.00000       0.00000    
     16552 MEOH     1076     MEOH     H1B      HDA3B    0.800000E-01   1.00800           0   0.00000       0.00000    
     16553 MEOH     1076     MEOH     H1C      HDA3B    0.800000E-01   1.00800           0   0.00000       0.00000    
     16554 MEOH     1076     MEOH     LP1A     LPD     -0.230000       0.00000          -1   0.00000       0.00000    
     16555 MEOH     1076     MEOH     LP1B     LPD     -0.230000       0.00000          -1   0.00000       0.00000    
     16556 MEOH     1077     MEOH     C1       CD33B     2.31410       11.6110           0  -1.00000       1.30000    
     16557 MEOH     1077     MEOH     DC1      DRUD     -2.45410      0.400000           0   0.00000       0.00000    
     16558 MEOH     1077     MEOH     O1       OD31H     2.48830       15.5990           0  -1.02800       1.30000    
     16559 MEOH     1077     MEOH     DO1      DRUD     -2.48830      0.400000           0   0.00000       0.00000    
     16560 MEOH     1077     MEOH     HO1      HDP1A    0.360000       1.00800           0   0.00000       0.00000    
     16561 MEOH     1077     MEOH     HO2      DUMH      0.00000       1.00800           0   0.00000       0.00000    
     16562 MEOH     1077     MEOH     H1A      HDA3B    0.800000E-01   1.00800           0   0.00000       0.00000    
     16563 MEOH     1077     MEOH     H1B      HDA3B    0.800000E-01   1.00800           0   0.00000       0.00000    
     16564 MEOH     1077     MEOH     H1C      HDA3B    0.800000E-01   1.00800           0   0.00000       0.00000    
     16565 MEOH     1077     MEOH     LP1A     LPD     -0.230000       0.00000          -1   0.00000       0.00000    
     16566 MEOH     1077     MEOH     LP1B     LPD     -0.230000       0.00000          -1   0.00000       0.00000    
     16567 MEOH     1078     MEOH     C1       CD33B     2.31410       11.6110           0  -1.00000       1.30000    
     16568 MEOH     1078     MEOH     DC1      DRUD     -2.45410      0.400000           0   0.00000       0.00000    
     16569 MEOH     1078     MEOH     O1       OD31H     2.48830       15.5990           0  -1.02800       1.30000    
     16570 MEOH     1078     MEOH     DO1      DRUD     -2.48830      0.400000           0   0.00000       0.00000    
     16571 MEOH     1078     MEOH     HO1      HDP1A    0.360000       1.00800           0   0.00000       0.00000    
     16572 MEOH     1078     MEOH     HO2      DUMH      0.00000       1.00800           0   0.00000       0.00000    
     16573 MEOH     1078     MEOH     H1A      HDA3B    0.800000E-01   1.00800           0   0.00000       0.00000    
     16574 MEOH     1078     MEOH     H1B      HDA3B    0.800000E-01   1.00800           0   0.00000       0.00000    
     16575 MEOH     1078     MEOH     H1C      HDA3B    0.800000E-01   1.00800           0   0.00000       0.00000    
     16576 MEOH     1078     MEOH     LP1A     LPD     -0.230000       0.00000          -1   0.00000       0.00000    
     16577 MEOH     1078     MEOH     LP1B     LPD     -0.230000       0.00000          -1   0.00000       0.00000    
     16578 MEOH     1079     MEOH     C1       CD33B     2.31410       11.6110           0  -1.00000       1.30000    
     16579 MEOH     1079     MEOH     DC1      DRUD     -2.45410      0.400000           0   0.00000       0.00000    
     16580 MEOH     1079     MEOH     O1       OD31H     2.48830       15.5990           0  -1.02800       1.30000    
     16581 MEOH     1079     MEOH     DO1      DRUD     -2.48830      0.400000           0   0.00000       0.00000    
     16582 MEOH     1079     MEOH     HO1      HDP1A    0.360000       1.00800           0   0.00000       0.00000    
     16583 MEOH     1079     MEOH     HO2      DUMH      0.00000       1.00800           0   0.00000       0.00000    
     16584 MEOH     1079     MEOH     H1A      HDA3B    0.800000E-01   1.00800           0   0.00000       0.00000    
     16585 MEOH     1079     MEOH     H1B      HDA3B    0.800000E-01   1.00800           0   0.00000       0.00000    
     16586 MEOH     1079     MEOH     H1C      HDA3B    0.800000E-01   1.00800           0   0.00000       0.00000    
     16587 MEOH     1079     MEOH     LP1A     LPD     -0.230000       0.00000          -1   0.00000       0.00000    
     16588 MEOH     1079     MEOH     LP1B     LPD     -0.230000       0.00000          -1   0.00000       0.00000    
     16589 MEOH     1080     MEOH     C1       CD33B     2.31410       11.6110           0  -1.00000       1.30000    
     16590 MEOH     1080     MEOH     DC1      DRUD     -2.45410      0.400000           0   0.00000       0.00000    
     16591 MEOH     1080     MEOH     O1       OD31H     2.48830       15.5990           0  -1.02800       1.30000    
     16592 MEOH     1080     MEOH     DO1      DRUD     -2.48830      0.400000           0   0.00000       0.00000    
     16593 MEOH     1080     MEOH     HO1      HDP1A    0.360000       1.00800           0   0.00000       0.00000    
     16594 MEOH     1080     MEOH     HO2      DUMH      0.00000       1.00800           0   0.00000       0.00000    
     16595 MEOH     1080     MEOH     H1A      HDA3B    0.800000E-01   1.00800           0   0.00000       0.00000    
     16596 MEOH     1080     MEOH     H1B      HDA3B    0.800000E-01   1.00800           0   0.00000       0.00000    
     16597 MEOH     1080     MEOH     H1C      HDA3B    0.800000E-01   1.00800           0   0.00000       0.00000    
     16598 MEOH     1080     MEOH     LP1A     LPD     -0.230000       0.00000          -1   0.00000       0.00000    
     16599 MEOH     1080     MEOH     LP1B     LPD     -0.230000       0.00000          -1   0.00000       0.00000    
     16600 MEOH     1081     MEOH     C1       CD33B     2.31410       11.6110           0  -1.00000       1.30000    
     16601 MEOH     1081     MEOH     DC1      DRUD     -2.45410      0.400000           0   0.00000       0.00000    
     16602 MEOH     1081     MEOH     O1       OD31H     2.48830       15.5990           0  -1.02800       1.30000    
     16603 MEOH     1081     MEOH     DO1      DRUD     -2.48830      0.400000           0   0.00000       0.00000    
     16604 MEOH     1081     MEOH     HO1      HDP1A    0.360000       1.00800           0   0.00000       0.00000    
     16605 MEOH     1081     MEOH     HO2      DUMH      0.00000       1.00800           0   0.00000       0.00000    
     16606 MEOH     1081     MEOH     H1A      HDA3B    0.800000E-01   1.00800           0   0.00000       0.00000    
     16607 MEOH     1081     MEOH     H1B      HDA3B    0.800000E-01   1.00800           0   0.00000       0.00000    
     16608 MEOH     1081     MEOH     H1C      HDA3B    0.800000E-01   1.00800           0   0.00000       0.00000    
     16609 MEOH     1081     MEOH     LP1A     LPD     -0.230000       0.00000          -1   0.00000       0.00000    
     16610 MEOH     1081     MEOH     LP1B     LPD     -0.230000       0.00000          -1   0.00000       0.00000    
     16611 MEOH     1082     MEOH     C1       CD33B     2.31410       11.6110           0  -1.00000       1.30000    
     16612 MEOH     1082     MEOH     DC1      DRUD     -2.45410      0.400000           0   0.00000       0.00000    
     16613 MEOH     1082     MEOH     O1       OD31H     2.48830       15.5990           0  -1.02800       1.30000    
     16614 MEOH     1082     MEOH     DO1      DRUD     -2.48830      0.400000           0   0.00000       0.00000    
     16615 MEOH     1082     MEOH     HO1      HDP1A    0.360000       1.00800           0   0.00000       0.00000    
     16616 MEOH     1082     MEOH     HO2      DUMH      0.00000       1.00800           0   0.00000       0.00000    
     16617 MEOH     1082     MEOH     H1A      HDA3B    0.800000E-01   1.00800           0   0.00000       0.00000    
     16618 MEOH     1082     MEOH     H1B      HDA3B    0.800000E-01   1.00800           0   0.00000       0.00000    
     16619 MEOH     1082     MEOH     H1C      HDA3B    0.800000E-01   1.00800           0   0.00000       0.00000    
     16620 MEOH     1082     MEOH     LP1A     LPD     -0.230000       0.00000          -1   0.00000       0.00000    
     16621 MEOH     1082     MEOH     LP1B     LPD     -0.230000       0.00000          -1   0.00000       0.00000    
     16622 MEOH     1083     MEOH     C1       CD33B     2.31410       11.6110           0  -1.00000       1.30000    
     16623 MEOH     1083     MEOH     DC1      DRUD     -2.45410      0.400000           0   0.00000       0.00000    
     16624 MEOH     1083     MEOH     O1       OD31H     2.48830       15.5990           0  -1.02800       1.30000    
     16625 MEOH     1083     MEOH     DO1      DRUD     -2.48830      0.400000           0   0.00000       0.00000    
     16626 MEOH     1083     MEOH     HO1      HDP1A    0.360000       1.00800           0   0.00000       0.00000    
     16627 MEOH     1083     MEOH     HO2      DUMH      0.00000       1.00800           0   0.00000       0.00000    
     16628 MEOH     1083     MEOH     H1A      HDA3B    0.800000E-01   1.00800           0   0.00000       0.00000    
     16629 MEOH     1083     MEOH     H1B      HDA3B    0.800000E-01   1.00800           0   0.00000       0.00000    
     16630 MEOH     1083     MEOH     H1C      HDA3B    0.800000E-01   1.00800           0   0.00000       0.00000    
     16631 MEOH     1083     MEOH     LP1A     LPD     -0.230000       0.00000          -1   0.00000       0.00000    
     16632 MEOH     1083     MEOH     LP1B     LPD     -0.230000       0.00000          -1   0.00000       0.00000    
     16633 MEOH     1084     MEOH     C1       CD33B     2.31410       11.6110           0  -1.00000       1.30000    
     16634 MEOH     1084     MEOH     DC1      DRUD     -2.45410      0.400000           0   0.00000       0.00000    
     16635 MEOH     1084     MEOH     O1       OD31H     2.48830       15.5990           0  -1.02800       1.30000    
     16636 MEOH     1084     MEOH     DO1      DRUD     -2.48830      0.400000           0   0.00000       0.00000    
     16637 MEOH     1084     MEOH     HO1      HDP1A    0.360000       1.00800           0   0.00000       0.00000    
     16638 MEOH     1084     MEOH     HO2      DUMH      0.00000       1.00800           0   0.00000       0.00000    
     16639 MEOH     1084     MEOH     H1A      HDA3B    0.800000E-01   1.00800           0   0.00000       0.00000    
     16640 MEOH     1084     MEOH     H1B      HDA3B    0.800000E-01   1.00800           0   0.00000       0.00000    
     16641 MEOH     1084     MEOH     H1C      HDA3B    0.800000E-01   1.00800           0   0.00000       0.00000    
     16642 MEOH     1084     MEOH     LP1A     LPD     -0.230000       0.00000          -1   0.00000       0.00000    
     16643 MEOH     1084     MEOH     LP1B     LPD     -0.230000       0.00000          -1   0.00000       0.00000    
     16644 MEOH     1085     MEOH     C1       CD33B     2.31410       11.6110           0  -1.00000       1.30000    
     16645 MEOH     1085     MEOH     DC1      DRUD     -2.45410      0.400000           0   0.00000       0.00000    
     16646 MEOH     1085     MEOH     O1       OD31H     2.48830       15.5990           0  -1.02800       1.30000    
     16647 MEOH     1085     MEOH     DO1      DRUD     -2.48830      0.400000           0   0.00000       0.00000    
     16648 MEOH     1085     MEOH     HO1      HDP1A    0.360000       1.00800           0   0.00000       0.00000    
     16649 MEOH     1085     MEOH     HO2      DUMH      0.00000       1.00800           0   0.00000       0.00000    
     16650 MEOH     1085     MEOH     H1A      HDA3B    0.800000E-01   1.00800           0   0.00000       0.00000    
     16651 MEOH     1085     MEOH     H1B      HDA3B    0.800000E-01   1.00800           0   0.00000       0.00000    
     16652 MEOH     1085     MEOH     H1C      HDA3B    0.800000E-01   1.00800           0   0.00000       0.00000    
     16653 MEOH     1085     MEOH     LP1A     LPD     -0.230000       0.00000          -1   0.00000       0.00000    
     16654 MEOH     1085     MEOH     LP1B     LPD     -0.230000       0.00000          -1   0.00000       0.00000    
     16655 MEOH     1086     MEOH     C1       CD33B     2.31410       11.6110           0  -1.00000       1.30000    
     16656 MEOH     1086     MEOH     DC1      DRUD     -2.45410      0.400000           0   0.00000       0.00000    
     16657 MEOH     1086     MEOH     O1       OD31H     2.48830       15.5990           0  -1.02800       1.30000    
     16658 MEOH     1086     MEOH     DO1      DRUD     -2.48830      0.400000           0   0.00000       0.00000    
     16659 MEOH     1086     MEOH     HO1      HDP1A    0.360000       1.00800           0   0.00000       0.00000    
     16660 MEOH     1086     MEOH     HO2      DUMH      0.00000       1.00800           0   0.00000       0.00000    
     16661 MEOH     1086     MEOH     H1A      HDA3B    0.800000E-01   1.00800           0   0.00000       0.00000    
     16662 MEOH     1086     MEOH     H1B      HDA3B    0.800000E-01   1.00800           0   0.00000       0.00000    
     16663 MEOH     1086     MEOH     H1C      HDA3B    0.800000E-01   1.00800           0   0.00000       0.00000    
     16664 MEOH     1086     MEOH     LP1A     LPD     -0.230000       0.00000          -1   0.00000       0.00000    
     16665 MEOH     1086     MEOH     LP1B     LPD     -0.230000       0.00000          -1   0.00000       0.00000    
     16666 MEOH     1087     MEOH     C1       CD33B     2.31410       11.6110           0  -1.00000       1.30000    
     16667 MEOH     1087     MEOH     DC1      DRUD     -2.45410      0.400000           0   0.00000       0.00000    
     16668 MEOH     1087     MEOH     O1       OD31H     2.48830       15.5990           0  -1.02800       1.30000    
     16669 MEOH     1087     MEOH     DO1      DRUD     -2.48830      0.400000           0   0.00000       0.00000    
     16670 MEOH     1087     MEOH     HO1      HDP1A    0.360000       1.00800           0   0.00000       0.00000    
     16671 MEOH     1087     MEOH     HO2      DUMH      0.00000       1.00800           0   0.00000       0.00000    
     16672 MEOH     1087     MEOH     H1A      HDA3B    0.800000E-01   1.00800           0   0.00000       0.00000    
     16673 MEOH     1087     MEOH     H1B      HDA3B    0.800000E-01   1.00800           0   0.00000       0.00000    
     16674 MEOH     1087     MEOH     H1C      HDA3B    0.800000E-01   1.00800           0   0.00000       0.00000    
     16675 MEOH     1087     MEOH     LP1A     LPD     -0.230000       0.00000          -1   0.00000       0.00000    
     16676 MEOH     1087     MEOH     LP1B     LPD     -0.230000       0.00000          -1   0.00000       0.00000    
     16677 MEOH     1088     MEOH     C1       CD33B     2.31410       11.6110           0  -1.00000       1.30000    
     16678 MEOH     1088     MEOH     DC1      DRUD     -2.45410      0.400000           0   0.00000       0.00000    
     16679 MEOH     1088     MEOH     O1       OD31H     2.48830       15.5990           0  -1.02800       1.30000    
     16680 MEOH     1088     MEOH     DO1      DRUD     -2.48830      0.400000           0   0.00000       0.00000    
     16681 MEOH     1088     MEOH     HO1      HDP1A    0.360000       1.00800           0   0.00000       0.00000    
     16682 MEOH     1088     MEOH     HO2      DUMH      0.00000       1.00800           0   0.00000       0.00000    
     16683 MEOH     1088     MEOH     H1A      HDA3B    0.800000E-01   1.00800           0   0.00000       0.00000    
     16684 MEOH     1088     MEOH     H1B      HDA3B    0.800000E-01   1.00800           0   0.00000       0.00000    
     16685 MEOH     1088     MEOH     H1C      HDA3B    0.800000E-01   1.00800           0   0.00000       0.00000    
     16686 MEOH     1088     MEOH     LP1A     LPD     -0.230000       0.00000          -1   0.00000       0.00000    
     16687 MEOH     1088     MEOH     LP1B     LPD     -0.230000       0.00000          -1   0.00000       0.00000    
     16688 MEOH     1089     MEOH     C1       CD33B     2.31410       11.6110           0  -1.00000       1.30000    
     16689 MEOH     1089     MEOH     DC1      DRUD     -2.45410      0.400000           0   0.00000       0.00000    
     16690 MEOH     1089     MEOH     O1       OD31H     2.48830       15.5990           0  -1.02800       1.30000    
     16691 MEOH     1089     MEOH     DO1      DRUD     -2.48830      0.400000           0   0.00000       0.00000    
     16692 MEOH     1089     MEOH     HO1      HDP1A    0.360000       1.00800           0   0.00000       0.00000    
     16693 MEOH     1089     MEOH     HO2      DUMH      0.00000       1.00800           0   0.00000       0.00000    
     16694 MEOH     1089     MEOH     H1A      HDA3B    0.800000E-01   1.00800           0   0.00000       0.00000    
     16695 MEOH     1089     MEOH     H1B      HDA3B    0.800000E-01   1.00800           0   0.00000       0.00000    
     16696 MEOH     1089     MEOH     H1C      HDA3B    0.800000E-01   1.00800           0   0.00000       0.00000    
     16697 MEOH     1089     MEOH     LP1A     LPD     -0.230000       0.00000          -1   0.00000       0.00000    
     16698 MEOH     1089     MEOH     LP1B     LPD     -0.230000       0.00000          -1   0.00000       0.00000    
     16699 MEOH     1090     MEOH     C1       CD33B     2.31410       11.6110           0  -1.00000       1.30000    
     16700 MEOH     1090     MEOH     DC1      DRUD     -2.45410      0.400000           0   0.00000       0.00000    
     16701 MEOH     1090     MEOH     O1       OD31H     2.48830       15.5990           0  -1.02800       1.30000    
     16702 MEOH     1090     MEOH     DO1      DRUD     -2.48830      0.400000           0   0.00000       0.00000    
     16703 MEOH     1090     MEOH     HO1      HDP1A    0.360000       1.00800           0   0.00000       0.00000    
     16704 MEOH     1090     MEOH     HO2      DUMH      0.00000       1.00800           0   0.00000       0.00000    
     16705 MEOH     1090     MEOH     H1A      HDA3B    0.800000E-01   1.00800           0   0.00000       0.00000    
     16706 MEOH     1090     MEOH     H1B      HDA3B    0.800000E-01   1.00800           0   0.00000       0.00000    
     16707 MEOH     1090     MEOH     H1C      HDA3B    0.800000E-01   1.00800           0   0.00000       0.00000    
     16708 MEOH     1090     MEOH     LP1A     LPD     -0.230000       0.00000          -1   0.00000       0.00000    
     16709 MEOH     1090     MEOH     LP1B     LPD     -0.230000       0.00000          -1   0.00000       0.00000    
     16710 MEOH     1091     MEOH     C1       CD33B     2.31410       11.6110           0  -1.00000       1.30000    
     16711 MEOH     1091     MEOH     DC1      DRUD     -2.45410      0.400000           0   0.00000       0.00000    
     16712 MEOH     1091     MEOH     O1       OD31H     2.48830       15.5990           0  -1.02800       1.30000    
     16713 MEOH     1091     MEOH     DO1      DRUD     -2.48830      0.400000           0   0.00000       0.00000    
     16714 MEOH     1091     MEOH     HO1      HDP1A    0.360000       1.00800           0   0.00000       0.00000    
     16715 MEOH     1091     MEOH     HO2      DUMH      0.00000       1.00800           0   0.00000       0.00000    
     16716 MEOH     1091     MEOH     H1A      HDA3B    0.800000E-01   1.00800           0   0.00000       0.00000    
     16717 MEOH     1091     MEOH     H1B      HDA3B    0.800000E-01   1.00800           0   0.00000       0.00000    
     16718 MEOH     1091     MEOH     H1C      HDA3B    0.800000E-01   1.00800           0   0.00000       0.00000    
     16719 MEOH     1091     MEOH     LP1A     LPD     -0.230000       0.00000          -1   0.00000       0.00000    
     16720 MEOH     1091     MEOH     LP1B     LPD     -0.230000       0.00000          -1   0.00000       0.00000    
     16721 MEOH     1092     MEOH     C1       CD33B     2.31410       11.6110           0  -1.00000       1.30000    
     16722 MEOH     1092     MEOH     DC1      DRUD     -2.45410      0.400000           0   0.00000       0.00000    
     16723 MEOH     1092     MEOH     O1       OD31H     2.48830       15.5990           0  -1.02800       1.30000    
     16724 MEOH     1092     MEOH     DO1      DRUD     -2.48830      0.400000           0   0.00000       0.00000    
     16725 MEOH     1092     MEOH     HO1      HDP1A    0.360000       1.00800           0   0.00000       0.00000    
     16726 MEOH     1092     MEOH     HO2      DUMH      0.00000       1.00800           0   0.00000       0.00000    
     16727 MEOH     1092     MEOH     H1A      HDA3B    0.800000E-01   1.00800           0   0.00000       0.00000    
     16728 MEOH     1092     MEOH     H1B      HDA3B    0.800000E-01   1.00800           0   0.00000       0.00000    
     16729 MEOH     1092     MEOH     H1C      HDA3B    0.800000E-01   1.00800           0   0.00000       0.00000    
     16730 MEOH     1092     MEOH     LP1A     LPD     -0.230000       0.00000          -1   0.00000       0.00000    
     16731 MEOH     1092     MEOH     LP1B     LPD     -0.230000       0.00000          -1   0.00000       0.00000    
     16732 MEOH     1093     MEOH     C1       CD33B     2.31410       11.6110           0  -1.00000       1.30000    
     16733 MEOH     1093     MEOH     DC1      DRUD     -2.45410      0.400000           0   0.00000       0.00000    
     16734 MEOH     1093     MEOH     O1       OD31H     2.48830       15.5990           0  -1.02800       1.30000    
     16735 MEOH     1093     MEOH     DO1      DRUD     -2.48830      0.400000           0   0.00000       0.00000    
     16736 MEOH     1093     MEOH     HO1      HDP1A    0.360000       1.00800           0   0.00000       0.00000    
     16737 MEOH     1093     MEOH     HO2      DUMH      0.00000       1.00800           0   0.00000       0.00000    
     16738 MEOH     1093     MEOH     H1A      HDA3B    0.800000E-01   1.00800           0   0.00000       0.00000    
     16739 MEOH     1093     MEOH     H1B      HDA3B    0.800000E-01   1.00800           0   0.00000       0.00000    
     16740 MEOH     1093     MEOH     H1C      HDA3B    0.800000E-01   1.00800           0   0.00000       0.00000    
     16741 MEOH     1093     MEOH     LP1A     LPD     -0.230000       0.00000          -1   0.00000       0.00000    
     16742 MEOH     1093     MEOH     LP1B     LPD     -0.230000       0.00000          -1   0.00000       0.00000    
     16743 MEOH     1094     MEOH     C1       CD33B     2.31410       11.6110           0  -1.00000       1.30000    
     16744 MEOH     1094     MEOH     DC1      DRUD     -2.45410      0.400000           0   0.00000       0.00000    
     16745 MEOH     1094     MEOH     O1       OD31H     2.48830       15.5990           0  -1.02800       1.30000    
     16746 MEOH     1094     MEOH     DO1      DRUD     -2.48830      0.400000           0   0.00000       0.00000    
     16747 MEOH     1094     MEOH     HO1      HDP1A    0.360000       1.00800           0   0.00000       0.00000    
     16748 MEOH     1094     MEOH     HO2      DUMH      0.00000       1.00800           0   0.00000       0.00000    
     16749 MEOH     1094     MEOH     H1A      HDA3B    0.800000E-01   1.00800           0   0.00000       0.00000    
     16750 MEOH     1094     MEOH     H1B      HDA3B    0.800000E-01   1.00800           0   0.00000       0.00000    
     16751 MEOH     1094     MEOH     H1C      HDA3B    0.800000E-01   1.00800           0   0.00000       0.00000    
     16752 MEOH     1094     MEOH     LP1A     LPD     -0.230000       0.00000          -1   0.00000       0.00000    
     16753 MEOH     1094     MEOH     LP1B     LPD     -0.230000       0.00000          -1   0.00000       0.00000    
     16754 MEOH     1095     MEOH     C1       CD33B     2.31410       11.6110           0  -1.00000       1.30000    
     16755 MEOH     1095     MEOH     DC1      DRUD     -2.45410      0.400000           0   0.00000       0.00000    
     16756 MEOH     1095     MEOH     O1       OD31H     2.48830       15.5990           0  -1.02800       1.30000    
     16757 MEOH     1095     MEOH     DO1      DRUD     -2.48830      0.400000           0   0.00000       0.00000    
     16758 MEOH     1095     MEOH     HO1      HDP1A    0.360000       1.00800           0   0.00000       0.00000    
     16759 MEOH     1095     MEOH     HO2      DUMH      0.00000       1.00800           0   0.00000       0.00000    
     16760 MEOH     1095     MEOH     H1A      HDA3B    0.800000E-01   1.00800           0   0.00000       0.00000    
     16761 MEOH     1095     MEOH     H1B      HDA3B    0.800000E-01   1.00800           0   0.00000       0.00000    
     16762 MEOH     1095     MEOH     H1C      HDA3B    0.800000E-01   1.00800           0   0.00000       0.00000    
     16763 MEOH     1095     MEOH     LP1A     LPD     -0.230000       0.00000          -1   0.00000       0.00000    
     16764 MEOH     1095     MEOH     LP1B     LPD     -0.230000       0.00000          -1   0.00000       0.00000    
     16765 MEOH     1096     MEOH     C1       CD33B     2.31410       11.6110           0  -1.00000       1.30000    
     16766 MEOH     1096     MEOH     DC1      DRUD     -2.45410      0.400000           0   0.00000       0.00000    
     16767 MEOH     1096     MEOH     O1       OD31H     2.48830       15.5990           0  -1.02800       1.30000    
     16768 MEOH     1096     MEOH     DO1      DRUD     -2.48830      0.400000           0   0.00000       0.00000    
     16769 MEOH     1096     MEOH     HO1      HDP1A    0.360000       1.00800           0   0.00000       0.00000    
     16770 MEOH     1096     MEOH     HO2      DUMH      0.00000       1.00800           0   0.00000       0.00000    
     16771 MEOH     1096     MEOH     H1A      HDA3B    0.800000E-01   1.00800           0   0.00000       0.00000    
     16772 MEOH     1096     MEOH     H1B      HDA3B    0.800000E-01   1.00800           0   0.00000       0.00000    
     16773 MEOH     1096     MEOH     H1C      HDA3B    0.800000E-01   1.00800           0   0.00000       0.00000    
     16774 MEOH     1096     MEOH     LP1A     LPD     -0.230000       0.00000          -1   0.00000       0.00000    
     16775 MEOH     1096     MEOH     LP1B     LPD     -0.230000       0.00000          -1   0.00000       0.00000    
     16776 MEOH     1097     MEOH     C1       CD33B     2.31410       11.6110           0  -1.00000       1.30000    
     16777 MEOH     1097     MEOH     DC1      DRUD     -2.45410      0.400000           0   0.00000       0.00000    
     16778 MEOH     1097     MEOH     O1       OD31H     2.48830       15.5990           0  -1.02800       1.30000    
     16779 MEOH     1097     MEOH     DO1      DRUD     -2.48830      0.400000           0   0.00000       0.00000    
     16780 MEOH     1097     MEOH     HO1      HDP1A    0.360000       1.00800           0   0.00000       0.00000    
     16781 MEOH     1097     MEOH     HO2      DUMH      0.00000       1.00800           0   0.00000       0.00000    
     16782 MEOH     1097     MEOH     H1A      HDA3B    0.800000E-01   1.00800           0   0.00000       0.00000    
     16783 MEOH     1097     MEOH     H1B      HDA3B    0.800000E-01   1.00800           0   0.00000       0.00000    
     16784 MEOH     1097     MEOH     H1C      HDA3B    0.800000E-01   1.00800           0   0.00000       0.00000    
     16785 MEOH     1097     MEOH     LP1A     LPD     -0.230000       0.00000          -1   0.00000       0.00000    
     16786 MEOH     1097     MEOH     LP1B     LPD     -0.230000       0.00000          -1   0.00000       0.00000    
     16787 MEOH     1098     MEOH     C1       CD33B     2.31410       11.6110           0  -1.00000       1.30000    
     16788 MEOH     1098     MEOH     DC1      DRUD     -2.45410      0.400000           0   0.00000       0.00000    
     16789 MEOH     1098     MEOH     O1       OD31H     2.48830       15.5990           0  -1.02800       1.30000    
     16790 MEOH     1098     MEOH     DO1      DRUD     -2.48830      0.400000           0   0.00000       0.00000    
     16791 MEOH     1098     MEOH     HO1      HDP1A    0.360000       1.00800           0   0.00000       0.00000    
     16792 MEOH     1098     MEOH     HO2      DUMH      0.00000       1.00800           0   0.00000       0.00000    
     16793 MEOH     1098     MEOH     H1A      HDA3B    0.800000E-01   1.00800           0   0.00000       0.00000    
     16794 MEOH     1098     MEOH     H1B      HDA3B    0.800000E-01   1.00800           0   0.00000       0.00000    
     16795 MEOH     1098     MEOH     H1C      HDA3B    0.800000E-01   1.00800           0   0.00000       0.00000    
     16796 MEOH     1098     MEOH     LP1A     LPD     -0.230000       0.00000          -1   0.00000       0.00000    
     16797 MEOH     1098     MEOH     LP1B     LPD     -0.230000       0.00000          -1   0.00000       0.00000    
     16798 MEOH     1099     MEOH     C1       CD33B     2.31410       11.6110           0  -1.00000       1.30000    
     16799 MEOH     1099     MEOH     DC1      DRUD     -2.45410      0.400000           0   0.00000       0.00000    
     16800 MEOH     1099     MEOH     O1       OD31H     2.48830       15.5990           0  -1.02800       1.30000    
     16801 MEOH     1099     MEOH     DO1      DRUD     -2.48830      0.400000           0   0.00000       0.00000    
     16802 MEOH     1099     MEOH     HO1      HDP1A    0.360000       1.00800           0   0.00000       0.00000    
     16803 MEOH     1099     MEOH     HO2      DUMH      0.00000       1.00800           0   0.00000       0.00000    
     16804 MEOH     1099     MEOH     H1A      HDA3B    0.800000E-01   1.00800           0   0.00000       0.00000    
     16805 MEOH     1099     MEOH     H1B      HDA3B    0.800000E-01   1.00800           0   0.00000       0.00000    
     16806 MEOH     1099     MEOH     H1C      HDA3B    0.800000E-01   1.00800           0   0.00000       0.00000    
     16807 MEOH     1099     MEOH     LP1A     LPD     -0.230000       0.00000          -1   0.00000       0.00000    
     16808 MEOH     1099     MEOH     LP1B     LPD     -0.230000       0.00000          -1   0.00000       0.00000    
     16809 MEOH     1100     MEOH     C1       CD33B     2.31410       11.6110           0  -1.00000       1.30000    
     16810 MEOH     1100     MEOH     DC1      DRUD     -2.45410      0.400000           0   0.00000       0.00000    
     16811 MEOH     1100     MEOH     O1       OD31H     2.48830       15.5990           0  -1.02800       1.30000    
     16812 MEOH     1100     MEOH     DO1      DRUD     -2.48830      0.400000           0   0.00000       0.00000    
     16813 MEOH     1100     MEOH     HO1      HDP1A    0.360000       1.00800           0   0.00000       0.00000    
     16814 MEOH     1100     MEOH     HO2      DUMH      0.00000       1.00800           0   0.00000       0.00000    
     16815 MEOH     1100     MEOH     H1A      HDA3B    0.800000E-01   1.00800           0   0.00000       0.00000    
     16816 MEOH     1100     MEOH     H1B      HDA3B    0.800000E-01   1.00800           0   0.00000       0.00000    
     16817 MEOH     1100     MEOH     H1C      HDA3B    0.800000E-01   1.00800           0   0.00000       0.00000    
     16818 MEOH     1100     MEOH     LP1A     LPD     -0.230000       0.00000          -1   0.00000       0.00000    
     16819 MEOH     1100     MEOH     LP1B     LPD     -0.230000       0.00000          -1   0.00000       0.00000    
     16820 MEOH     1101     MEOH     C1       CD33B     2.31410       11.6110           0  -1.00000       1.30000    
     16821 MEOH     1101     MEOH     DC1      DRUD     -2.45410      0.400000           0   0.00000       0.00000    
     16822 MEOH     1101     MEOH     O1       OD31H     2.48830       15.5990           0  -1.02800       1.30000    
     16823 MEOH     1101     MEOH     DO1      DRUD     -2.48830      0.400000           0   0.00000       0.00000    
     16824 MEOH     1101     MEOH     HO1      HDP1A    0.360000       1.00800           0   0.00000       0.00000    
     16825 MEOH     1101     MEOH     HO2      DUMH      0.00000       1.00800           0   0.00000       0.00000    
     16826 MEOH     1101     MEOH     H1A      HDA3B    0.800000E-01   1.00800           0   0.00000       0.00000    
     16827 MEOH     1101     MEOH     H1B      HDA3B    0.800000E-01   1.00800           0   0.00000       0.00000    
     16828 MEOH     1101     MEOH     H1C      HDA3B    0.800000E-01   1.00800           0   0.00000       0.00000    
     16829 MEOH     1101     MEOH     LP1A     LPD     -0.230000       0.00000          -1   0.00000       0.00000    
     16830 MEOH     1101     MEOH     LP1B     LPD     -0.230000       0.00000          -1   0.00000       0.00000    
     16831 MEOH     1102     MEOH     C1       CD33B     2.31410       11.6110           0  -1.00000       1.30000    
     16832 MEOH     1102     MEOH     DC1      DRUD     -2.45410      0.400000           0   0.00000       0.00000    
     16833 MEOH     1102     MEOH     O1       OD31H     2.48830       15.5990           0  -1.02800       1.30000    
     16834 MEOH     1102     MEOH     DO1      DRUD     -2.48830      0.400000           0   0.00000       0.00000    
     16835 MEOH     1102     MEOH     HO1      HDP1A    0.360000       1.00800           0   0.00000       0.00000    
     16836 MEOH     1102     MEOH     HO2      DUMH      0.00000       1.00800           0   0.00000       0.00000    
     16837 MEOH     1102     MEOH     H1A      HDA3B    0.800000E-01   1.00800           0   0.00000       0.00000    
     16838 MEOH     1102     MEOH     H1B      HDA3B    0.800000E-01   1.00800           0   0.00000       0.00000    
     16839 MEOH     1102     MEOH     H1C      HDA3B    0.800000E-01   1.00800           0   0.00000       0.00000    
     16840 MEOH     1102     MEOH     LP1A     LPD     -0.230000       0.00000          -1   0.00000       0.00000    
     16841 MEOH     1102     MEOH     LP1B     LPD     -0.230000       0.00000          -1   0.00000       0.00000    
     16842 MEOH     1103     MEOH     C1       CD33B     2.31410       11.6110           0  -1.00000       1.30000    
     16843 MEOH     1103     MEOH     DC1      DRUD     -2.45410      0.400000           0   0.00000       0.00000    
     16844 MEOH     1103     MEOH     O1       OD31H     2.48830       15.5990           0  -1.02800       1.30000    
     16845 MEOH     1103     MEOH     DO1      DRUD     -2.48830      0.400000           0   0.00000       0.00000    
     16846 MEOH     1103     MEOH     HO1      HDP1A    0.360000       1.00800           0   0.00000       0.00000    
     16847 MEOH     1103     MEOH     HO2      DUMH      0.00000       1.00800           0   0.00000       0.00000    
     16848 MEOH     1103     MEOH     H1A      HDA3B    0.800000E-01   1.00800           0   0.00000       0.00000    
     16849 MEOH     1103     MEOH     H1B      HDA3B    0.800000E-01   1.00800           0   0.00000       0.00000    
     16850 MEOH     1103     MEOH     H1C      HDA3B    0.800000E-01   1.00800           0   0.00000       0.00000    
     16851 MEOH     1103     MEOH     LP1A     LPD     -0.230000       0.00000          -1   0.00000       0.00000    
     16852 MEOH     1103     MEOH     LP1B     LPD     -0.230000       0.00000          -1   0.00000       0.00000    
     16853 MEOH     1104     MEOH     C1       CD33B     2.31410       11.6110           0  -1.00000       1.30000    
     16854 MEOH     1104     MEOH     DC1      DRUD     -2.45410      0.400000           0   0.00000       0.00000    
     16855 MEOH     1104     MEOH     O1       OD31H     2.48830       15.5990           0  -1.02800       1.30000    
     16856 MEOH     1104     MEOH     DO1      DRUD     -2.48830      0.400000           0   0.00000       0.00000    
     16857 MEOH     1104     MEOH     HO1      HDP1A    0.360000       1.00800           0   0.00000       0.00000    
     16858 MEOH     1104     MEOH     HO2      DUMH      0.00000       1.00800           0   0.00000       0.00000    
     16859 MEOH     1104     MEOH     H1A      HDA3B    0.800000E-01   1.00800           0   0.00000       0.00000    
     16860 MEOH     1104     MEOH     H1B      HDA3B    0.800000E-01   1.00800           0   0.00000       0.00000    
     16861 MEOH     1104     MEOH     H1C      HDA3B    0.800000E-01   1.00800           0   0.00000       0.00000    
     16862 MEOH     1104     MEOH     LP1A     LPD     -0.230000       0.00000          -1   0.00000       0.00000    
     16863 MEOH     1104     MEOH     LP1B     LPD     -0.230000       0.00000          -1   0.00000       0.00000    
     16864 MEOH     1105     MEOH     C1       CD33B     2.31410       11.6110           0  -1.00000       1.30000    
     16865 MEOH     1105     MEOH     DC1      DRUD     -2.45410      0.400000           0   0.00000       0.00000    
     16866 MEOH     1105     MEOH     O1       OD31H     2.48830       15.5990           0  -1.02800       1.30000    
     16867 MEOH     1105     MEOH     DO1      DRUD     -2.48830      0.400000           0   0.00000       0.00000    
     16868 MEOH     1105     MEOH     HO1      HDP1A    0.360000       1.00800           0   0.00000       0.00000    
     16869 MEOH     1105     MEOH     HO2      DUMH      0.00000       1.00800           0   0.00000       0.00000    
     16870 MEOH     1105     MEOH     H1A      HDA3B    0.800000E-01   1.00800           0   0.00000       0.00000    
     16871 MEOH     1105     MEOH     H1B      HDA3B    0.800000E-01   1.00800           0   0.00000       0.00000    
     16872 MEOH     1105     MEOH     H1C      HDA3B    0.800000E-01   1.00800           0   0.00000       0.00000    
     16873 MEOH     1105     MEOH     LP1A     LPD     -0.230000       0.00000          -1   0.00000       0.00000    
     16874 MEOH     1105     MEOH     LP1B     LPD     -0.230000       0.00000          -1   0.00000       0.00000    
     16875 MEOH     1106     MEOH     C1       CD33B     2.31410       11.6110           0  -1.00000       1.30000    
     16876 MEOH     1106     MEOH     DC1      DRUD     -2.45410      0.400000           0   0.00000       0.00000    
     16877 MEOH     1106     MEOH     O1       OD31H     2.48830       15.5990           0  -1.02800       1.30000    
     16878 MEOH     1106     MEOH     DO1      DRUD     -2.48830      0.400000           0   0.00000       0.00000    
     16879 MEOH     1106     MEOH     HO1      HDP1A    0.360000       1.00800           0   0.00000       0.00000    
     16880 MEOH     1106     MEOH     HO2      DUMH      0.00000       1.00800           0   0.00000       0.00000    
     16881 MEOH     1106     MEOH     H1A      HDA3B    0.800000E-01   1.00800           0   0.00000       0.00000    
     16882 MEOH     1106     MEOH     H1B      HDA3B    0.800000E-01   1.00800           0   0.00000       0.00000    
     16883 MEOH     1106     MEOH     H1C      HDA3B    0.800000E-01   1.00800           0   0.00000       0.00000    
     16884 MEOH     1106     MEOH     LP1A     LPD     -0.230000       0.00000          -1   0.00000       0.00000    
     16885 MEOH     1106     MEOH     LP1B     LPD     -0.230000       0.00000          -1   0.00000       0.00000    
     16886 MEOH     1107     MEOH     C1       CD33B     2.31410       11.6110           0  -1.00000       1.30000    
     16887 MEOH     1107     MEOH     DC1      DRUD     -2.45410      0.400000           0   0.00000       0.00000    
     16888 MEOH     1107     MEOH     O1       OD31H     2.48830       15.5990           0  -1.02800       1.30000    
     16889 MEOH     1107     MEOH     DO1      DRUD     -2.48830      0.400000           0   0.00000       0.00000    
     16890 MEOH     1107     MEOH     HO1      HDP1A    0.360000       1.00800           0   0.00000       0.00000    
     16891 MEOH     1107     MEOH     HO2      DUMH      0.00000       1.00800           0   0.00000       0.00000    
     16892 MEOH     1107     MEOH     H1A      HDA3B    0.800000E-01   1.00800           0   0.00000       0.00000    
     16893 MEOH     1107     MEOH     H1B      HDA3B    0.800000E-01   1.00800           0   0.00000       0.00000    
     16894 MEOH     1107     MEOH     H1C      HDA3B    0.800000E-01   1.00800           0   0.00000       0.00000    
     16895 MEOH     1107     MEOH     LP1A     LPD     -0.230000       0.00000          -1   0.00000       0.00000    
     16896 MEOH     1107     MEOH     LP1B     LPD     -0.230000       0.00000          -1   0.00000       0.00000    
     16897 MEOH     1108     MEOH     C1       CD33B     2.31410       11.6110           0  -1.00000       1.30000    
     16898 MEOH     1108     MEOH     DC1      DRUD     -2.45410      0.400000           0   0.00000       0.00000    
     16899 MEOH     1108     MEOH     O1       OD31H     2.48830       15.5990           0  -1.02800       1.30000    
     16900 MEOH     1108     MEOH     DO1      DRUD     -2.48830      0.400000           0   0.00000       0.00000    
     16901 MEOH     1108     MEOH     HO1      HDP1A    0.360000       1.00800           0   0.00000       0.00000    
     16902 MEOH     1108     MEOH     HO2      DUMH      0.00000       1.00800           0   0.00000       0.00000    
     16903 MEOH     1108     MEOH     H1A      HDA3B    0.800000E-01   1.00800           0   0.00000       0.00000    
     16904 MEOH     1108     MEOH     H1B      HDA3B    0.800000E-01   1.00800           0   0.00000       0.00000    
     16905 MEOH     1108     MEOH     H1C      HDA3B    0.800000E-01   1.00800           0   0.00000       0.00000    
     16906 MEOH     1108     MEOH     LP1A     LPD     -0.230000       0.00000          -1   0.00000       0.00000    
     16907 MEOH     1108     MEOH     LP1B     LPD     -0.230000       0.00000          -1   0.00000       0.00000    
     16908 MEOH     1109     MEOH     C1       CD33B     2.31410       11.6110           0  -1.00000       1.30000    
     16909 MEOH     1109     MEOH     DC1      DRUD     -2.45410      0.400000           0   0.00000       0.00000    
     16910 MEOH     1109     MEOH     O1       OD31H     2.48830       15.5990           0  -1.02800       1.30000    
     16911 MEOH     1109     MEOH     DO1      DRUD     -2.48830      0.400000           0   0.00000       0.00000    
     16912 MEOH     1109     MEOH     HO1      HDP1A    0.360000       1.00800           0   0.00000       0.00000    
     16913 MEOH     1109     MEOH     HO2      DUMH      0.00000       1.00800           0   0.00000       0.00000    
     16914 MEOH     1109     MEOH     H1A      HDA3B    0.800000E-01   1.00800           0   0.00000       0.00000    
     16915 MEOH     1109     MEOH     H1B      HDA3B    0.800000E-01   1.00800           0   0.00000       0.00000    
     16916 MEOH     1109     MEOH     H1C      HDA3B    0.800000E-01   1.00800           0   0.00000       0.00000    
     16917 MEOH     1109     MEOH     LP1A     LPD     -0.230000       0.00000          -1   0.00000       0.00000    
     16918 MEOH     1109     MEOH     LP1B     LPD     -0.230000       0.00000          -1   0.00000       0.00000    
     16919 MEOH     1110     MEOH     C1       CD33B     2.31410       11.6110           0  -1.00000       1.30000    
     16920 MEOH     1110     MEOH     DC1      DRUD     -2.45410      0.400000           0   0.00000       0.00000    
     16921 MEOH     1110     MEOH     O1       OD31H     2.48830       15.5990           0  -1.02800       1.30000    
     16922 MEOH     1110     MEOH     DO1      DRUD     -2.48830      0.400000           0   0.00000       0.00000    
     16923 MEOH     1110     MEOH     HO1      HDP1A    0.360000       1.00800           0   0.00000       0.00000    
     16924 MEOH     1110     MEOH     HO2      DUMH      0.00000       1.00800           0   0.00000       0.00000    
     16925 MEOH     1110     MEOH     H1A      HDA3B    0.800000E-01   1.00800           0   0.00000       0.00000    
     16926 MEOH     1110     MEOH     H1B      HDA3B    0.800000E-01   1.00800           0   0.00000       0.00000    
     16927 MEOH     1110     MEOH     H1C      HDA3B    0.800000E-01   1.00800           0   0.00000       0.00000    
     16928 MEOH     1110     MEOH     LP1A     LPD     -0.230000       0.00000          -1   0.00000       0.00000    
     16929 MEOH     1110     MEOH     LP1B     LPD     -0.230000       0.00000          -1   0.00000       0.00000    
     16930 MEOH     1111     MEOH     C1       CD33B     2.31410       11.6110           0  -1.00000       1.30000    
     16931 MEOH     1111     MEOH     DC1      DRUD     -2.45410      0.400000           0   0.00000       0.00000    
     16932 MEOH     1111     MEOH     O1       OD31H     2.48830       15.5990           0  -1.02800       1.30000    
     16933 MEOH     1111     MEOH     DO1      DRUD     -2.48830      0.400000           0   0.00000       0.00000    
     16934 MEOH     1111     MEOH     HO1      HDP1A    0.360000       1.00800           0   0.00000       0.00000    
     16935 MEOH     1111     MEOH     HO2      DUMH      0.00000       1.00800           0   0.00000       0.00000    
     16936 MEOH     1111     MEOH     H1A      HDA3B    0.800000E-01   1.00800           0   0.00000       0.00000    
     16937 MEOH     1111     MEOH     H1B      HDA3B    0.800000E-01   1.00800           0   0.00000       0.00000    
     16938 MEOH     1111     MEOH     H1C      HDA3B    0.800000E-01   1.00800           0   0.00000       0.00000    
     16939 MEOH     1111     MEOH     LP1A     LPD     -0.230000       0.00000          -1   0.00000       0.00000    
     16940 MEOH     1111     MEOH     LP1B     LPD     -0.230000       0.00000          -1   0.00000       0.00000    
     16941 MEOH     1112     MEOH     C1       CD33B     2.31410       11.6110           0  -1.00000       1.30000    
     16942 MEOH     1112     MEOH     DC1      DRUD     -2.45410      0.400000           0   0.00000       0.00000    
     16943 MEOH     1112     MEOH     O1       OD31H     2.48830       15.5990           0  -1.02800       1.30000    
     16944 MEOH     1112     MEOH     DO1      DRUD     -2.48830      0.400000           0   0.00000       0.00000    
     16945 MEOH     1112     MEOH     HO1      HDP1A    0.360000       1.00800           0   0.00000       0.00000    
     16946 MEOH     1112     MEOH     HO2      DUMH      0.00000       1.00800           0   0.00000       0.00000    
     16947 MEOH     1112     MEOH     H1A      HDA3B    0.800000E-01   1.00800           0   0.00000       0.00000    
     16948 MEOH     1112     MEOH     H1B      HDA3B    0.800000E-01   1.00800           0   0.00000       0.00000    
     16949 MEOH     1112     MEOH     H1C      HDA3B    0.800000E-01   1.00800           0   0.00000       0.00000    
     16950 MEOH     1112     MEOH     LP1A     LPD     -0.230000       0.00000          -1   0.00000       0.00000    
     16951 MEOH     1112     MEOH     LP1B     LPD     -0.230000       0.00000          -1   0.00000       0.00000    
     16952 MEOH     1113     MEOH     C1       CD33B     2.31410       11.6110           0  -1.00000       1.30000    
     16953 MEOH     1113     MEOH     DC1      DRUD     -2.45410      0.400000           0   0.00000       0.00000    
     16954 MEOH     1113     MEOH     O1       OD31H     2.48830       15.5990           0  -1.02800       1.30000    
     16955 MEOH     1113     MEOH     DO1      DRUD     -2.48830      0.400000           0   0.00000       0.00000    
     16956 MEOH     1113     MEOH     HO1      HDP1A    0.360000       1.00800           0   0.00000       0.00000    
     16957 MEOH     1113     MEOH     HO2      DUMH      0.00000       1.00800           0   0.00000       0.00000    
     16958 MEOH     1113     MEOH     H1A      HDA3B    0.800000E-01   1.00800           0   0.00000       0.00000    
     16959 MEOH     1113     MEOH     H1B      HDA3B    0.800000E-01   1.00800           0   0.00000       0.00000    
     16960 MEOH     1113     MEOH     H1C      HDA3B    0.800000E-01   1.00800           0   0.00000       0.00000    
     16961 MEOH     1113     MEOH     LP1A     LPD     -0.230000       0.00000          -1   0.00000       0.00000    
     16962 MEOH     1113     MEOH     LP1B     LPD     -0.230000       0.00000          -1   0.00000       0.00000    
     16963 MEOH     1114     MEOH     C1       CD33B     2.31410       11.6110           0  -1.00000       1.30000    
     16964 MEOH     1114     MEOH     DC1      DRUD     -2.45410      0.400000           0   0.00000       0.00000    
     16965 MEOH     1114     MEOH     O1       OD31H     2.48830       15.5990           0  -1.02800       1.30000    
     16966 MEOH     1114     MEOH     DO1      DRUD     -2.48830      0.400000           0   0.00000       0.00000    
     16967 MEOH     1114     MEOH     HO1      HDP1A    0.360000       1.00800           0   0.00000       0.00000    
     16968 MEOH     1114     MEOH     HO2      DUMH      0.00000       1.00800           0   0.00000       0.00000    
     16969 MEOH     1114     MEOH     H1A      HDA3B    0.800000E-01   1.00800           0   0.00000       0.00000    
     16970 MEOH     1114     MEOH     H1B      HDA3B    0.800000E-01   1.00800           0   0.00000       0.00000    
     16971 MEOH     1114     MEOH     H1C      HDA3B    0.800000E-01   1.00800           0   0.00000       0.00000    
     16972 MEOH     1114     MEOH     LP1A     LPD     -0.230000       0.00000          -1   0.00000       0.00000    
     16973 MEOH     1114     MEOH     LP1B     LPD     -0.230000       0.00000          -1   0.00000       0.00000    
     16974 MEOH     1115     MEOH     C1       CD33B     2.31410       11.6110           0  -1.00000       1.30000    
     16975 MEOH     1115     MEOH     DC1      DRUD     -2.45410      0.400000           0   0.00000       0.00000    
     16976 MEOH     1115     MEOH     O1       OD31H     2.48830       15.5990           0  -1.02800       1.30000    
     16977 MEOH     1115     MEOH     DO1      DRUD     -2.48830      0.400000           0   0.00000       0.00000    
     16978 MEOH     1115     MEOH     HO1      HDP1A    0.360000       1.00800           0   0.00000       0.00000    
     16979 MEOH     1115     MEOH     HO2      DUMH      0.00000       1.00800           0   0.00000       0.00000    
     16980 MEOH     1115     MEOH     H1A      HDA3B    0.800000E-01   1.00800           0   0.00000       0.00000    
     16981 MEOH     1115     MEOH     H1B      HDA3B    0.800000E-01   1.00800           0   0.00000       0.00000    
     16982 MEOH     1115     MEOH     H1C      HDA3B    0.800000E-01   1.00800           0   0.00000       0.00000    
     16983 MEOH     1115     MEOH     LP1A     LPD     -0.230000       0.00000          -1   0.00000       0.00000    
     16984 MEOH     1115     MEOH     LP1B     LPD     -0.230000       0.00000          -1   0.00000       0.00000    
     16985 MEOH     1116     MEOH     C1       CD33B     2.31410       11.6110           0  -1.00000       1.30000    
     16986 MEOH     1116     MEOH     DC1      DRUD     -2.45410      0.400000           0   0.00000       0.00000    
     16987 MEOH     1116     MEOH     O1       OD31H     2.48830       15.5990           0  -1.02800       1.30000    
     16988 MEOH     1116     MEOH     DO1      DRUD     -2.48830      0.400000           0   0.00000       0.00000    
     16989 MEOH     1116     MEOH     HO1      HDP1A    0.360000       1.00800           0   0.00000       0.00000    
     16990 MEOH     1116     MEOH     HO2      DUMH      0.00000       1.00800           0   0.00000       0.00000    
     16991 MEOH     1116     MEOH     H1A      HDA3B    0.800000E-01   1.00800           0   0.00000       0.00000    
     16992 MEOH     1116     MEOH     H1B      HDA3B    0.800000E-01   1.00800           0   0.00000       0.00000    
     16993 MEOH     1116     MEOH     H1C      HDA3B    0.800000E-01   1.00800           0   0.00000       0.00000    
     16994 MEOH     1116     MEOH     LP1A     LPD     -0.230000       0.00000          -1   0.00000       0.00000    
     16995 MEOH     1116     MEOH     LP1B     LPD     -0.230000       0.00000          -1   0.00000       0.00000    
     16996 MEOH     1117     MEOH     C1       CD33B     2.31410       11.6110           0  -1.00000       1.30000    
     16997 MEOH     1117     MEOH     DC1      DRUD     -2.45410      0.400000           0   0.00000       0.00000    
     16998 MEOH     1117     MEOH     O1       OD31H     2.48830       15.5990           0  -1.02800       1.30000    
     16999 MEOH     1117     MEOH     DO1      DRUD     -2.48830      0.400000           0   0.00000       0.00000    
     17000 MEOH     1117     MEOH     HO1      HDP1A    0.360000       1.00800           0   0.00000       0.00000    
     17001 MEOH     1117     MEOH     HO2      DUMH      0.00000       1.00800           0   0.00000       0.00000    
     17002 MEOH     1117     MEOH     H1A      HDA3B    0.800000E-01   1.00800           0   0.00000       0.00000    
     17003 MEOH     1117     MEOH     H1B      HDA3B    0.800000E-01   1.00800           0   0.00000       0.00000    
     17004 MEOH     1117     MEOH     H1C      HDA3B    0.800000E-01   1.00800           0   0.00000       0.00000    
     17005 MEOH     1117     MEOH     LP1A     LPD     -0.230000       0.00000          -1   0.00000       0.00000    
     17006 MEOH     1117     MEOH     LP1B     LPD     -0.230000       0.00000          -1   0.00000       0.00000    
     17007 MEOH     1118     MEOH     C1       CD33B     2.31410       11.6110           0  -1.00000       1.30000    
     17008 MEOH     1118     MEOH     DC1      DRUD     -2.45410      0.400000           0   0.00000       0.00000    
     17009 MEOH     1118     MEOH     O1       OD31H     2.48830       15.5990           0  -1.02800       1.30000    
     17010 MEOH     1118     MEOH     DO1      DRUD     -2.48830      0.400000           0   0.00000       0.00000    
     17011 MEOH     1118     MEOH     HO1      HDP1A    0.360000       1.00800           0   0.00000       0.00000    
     17012 MEOH     1118     MEOH     HO2      DUMH      0.00000       1.00800           0   0.00000       0.00000    
     17013 MEOH     1118     MEOH     H1A      HDA3B    0.800000E-01   1.00800           0   0.00000       0.00000    
     17014 MEOH     1118     MEOH     H1B      HDA3B    0.800000E-01   1.00800           0   0.00000       0.00000    
     17015 MEOH     1118     MEOH     H1C      HDA3B    0.800000E-01   1.00800           0   0.00000       0.00000    
     17016 MEOH     1118     MEOH     LP1A     LPD     -0.230000       0.00000          -1   0.00000       0.00000    
     17017 MEOH     1118     MEOH     LP1B     LPD     -0.230000       0.00000          -1   0.00000       0.00000    
     17018 MEOH     1119     MEOH     C1       CD33B     2.31410       11.6110           0  -1.00000       1.30000    
     17019 MEOH     1119     MEOH     DC1      DRUD     -2.45410      0.400000           0   0.00000       0.00000    
     17020 MEOH     1119     MEOH     O1       OD31H     2.48830       15.5990           0  -1.02800       1.30000    
     17021 MEOH     1119     MEOH     DO1      DRUD     -2.48830      0.400000           0   0.00000       0.00000    
     17022 MEOH     1119     MEOH     HO1      HDP1A    0.360000       1.00800           0   0.00000       0.00000    
     17023 MEOH     1119     MEOH     HO2      DUMH      0.00000       1.00800           0   0.00000       0.00000    
     17024 MEOH     1119     MEOH     H1A      HDA3B    0.800000E-01   1.00800           0   0.00000       0.00000    
     17025 MEOH     1119     MEOH     H1B      HDA3B    0.800000E-01   1.00800           0   0.00000       0.00000    
     17026 MEOH     1119     MEOH     H1C      HDA3B    0.800000E-01   1.00800           0   0.00000       0.00000    
     17027 MEOH     1119     MEOH     LP1A     LPD     -0.230000       0.00000          -1   0.00000       0.00000    
     17028 MEOH     1119     MEOH     LP1B     LPD     -0.230000       0.00000          -1   0.00000       0.00000    
     17029 MEOH     1120     MEOH     C1       CD33B     2.31410       11.6110           0  -1.00000       1.30000    
     17030 MEOH     1120     MEOH     DC1      DRUD     -2.45410      0.400000           0   0.00000       0.00000    
     17031 MEOH     1120     MEOH     O1       OD31H     2.48830       15.5990           0  -1.02800       1.30000    
     17032 MEOH     1120     MEOH     DO1      DRUD     -2.48830      0.400000           0   0.00000       0.00000    
     17033 MEOH     1120     MEOH     HO1      HDP1A    0.360000       1.00800           0   0.00000       0.00000    
     17034 MEOH     1120     MEOH     HO2      DUMH      0.00000       1.00800           0   0.00000       0.00000    
     17035 MEOH     1120     MEOH     H1A      HDA3B    0.800000E-01   1.00800           0   0.00000       0.00000    
     17036 MEOH     1120     MEOH     H1B      HDA3B    0.800000E-01   1.00800           0   0.00000       0.00000    
     17037 MEOH     1120     MEOH     H1C      HDA3B    0.800000E-01   1.00800           0   0.00000       0.00000    
     17038 MEOH     1120     MEOH     LP1A     LPD     -0.230000       0.00000          -1   0.00000       0.00000    
     17039 MEOH     1120     MEOH     LP1B     LPD     -0.230000       0.00000          -1   0.00000       0.00000    
     17040 MEOH     1121     MEOH     C1       CD33B     2.31410       11.6110           0  -1.00000       1.30000    
     17041 MEOH     1121     MEOH     DC1      DRUD     -2.45410      0.400000           0   0.00000       0.00000    
     17042 MEOH     1121     MEOH     O1       OD31H     2.48830       15.5990           0  -1.02800       1.30000    
     17043 MEOH     1121     MEOH     DO1      DRUD     -2.48830      0.400000           0   0.00000       0.00000    
     17044 MEOH     1121     MEOH     HO1      HDP1A    0.360000       1.00800           0   0.00000       0.00000    
     17045 MEOH     1121     MEOH     HO2      DUMH      0.00000       1.00800           0   0.00000       0.00000    
     17046 MEOH     1121     MEOH     H1A      HDA3B    0.800000E-01   1.00800           0   0.00000       0.00000    
     17047 MEOH     1121     MEOH     H1B      HDA3B    0.800000E-01   1.00800           0   0.00000       0.00000    
     17048 MEOH     1121     MEOH     H1C      HDA3B    0.800000E-01   1.00800           0   0.00000       0.00000    
     17049 MEOH     1121     MEOH     LP1A     LPD     -0.230000       0.00000          -1   0.00000       0.00000    
     17050 MEOH     1121     MEOH     LP1B     LPD     -0.230000       0.00000          -1   0.00000       0.00000    
     17051 MEOH     1122     MEOH     C1       CD33B     2.31410       11.6110           0  -1.00000       1.30000    
     17052 MEOH     1122     MEOH     DC1      DRUD     -2.45410      0.400000           0   0.00000       0.00000    
     17053 MEOH     1122     MEOH     O1       OD31H     2.48830       15.5990           0  -1.02800       1.30000    
     17054 MEOH     1122     MEOH     DO1      DRUD     -2.48830      0.400000           0   0.00000       0.00000    
     17055 MEOH     1122     MEOH     HO1      HDP1A    0.360000       1.00800           0   0.00000       0.00000    
     17056 MEOH     1122     MEOH     HO2      DUMH      0.00000       1.00800           0   0.00000       0.00000    
     17057 MEOH     1122     MEOH     H1A      HDA3B    0.800000E-01   1.00800           0   0.00000       0.00000    
     17058 MEOH     1122     MEOH     H1B      HDA3B    0.800000E-01   1.00800           0   0.00000       0.00000    
     17059 MEOH     1122     MEOH     H1C      HDA3B    0.800000E-01   1.00800           0   0.00000       0.00000    
     17060 MEOH     1122     MEOH     LP1A     LPD     -0.230000       0.00000          -1   0.00000       0.00000    
     17061 MEOH     1122     MEOH     LP1B     LPD     -0.230000       0.00000          -1   0.00000       0.00000    
     17062 MEOH     1123     MEOH     C1       CD33B     2.31410       11.6110           0  -1.00000       1.30000    
     17063 MEOH     1123     MEOH     DC1      DRUD     -2.45410      0.400000           0   0.00000       0.00000    
     17064 MEOH     1123     MEOH     O1       OD31H     2.48830       15.5990           0  -1.02800       1.30000    
     17065 MEOH     1123     MEOH     DO1      DRUD     -2.48830      0.400000           0   0.00000       0.00000    
     17066 MEOH     1123     MEOH     HO1      HDP1A    0.360000       1.00800           0   0.00000       0.00000    
     17067 MEOH     1123     MEOH     HO2      DUMH      0.00000       1.00800           0   0.00000       0.00000    
     17068 MEOH     1123     MEOH     H1A      HDA3B    0.800000E-01   1.00800           0   0.00000       0.00000    
     17069 MEOH     1123     MEOH     H1B      HDA3B    0.800000E-01   1.00800           0   0.00000       0.00000    
     17070 MEOH     1123     MEOH     H1C      HDA3B    0.800000E-01   1.00800           0   0.00000       0.00000    
     17071 MEOH     1123     MEOH     LP1A     LPD     -0.230000       0.00000          -1   0.00000       0.00000    
     17072 MEOH     1123     MEOH     LP1B     LPD     -0.230000       0.00000          -1   0.00000       0.00000    
     17073 MEOH     1124     MEOH     C1       CD33B     2.31410       11.6110           0  -1.00000       1.30000    
     17074 MEOH     1124     MEOH     DC1      DRUD     -2.45410      0.400000           0   0.00000       0.00000    
     17075 MEOH     1124     MEOH     O1       OD31H     2.48830       15.5990           0  -1.02800       1.30000    
     17076 MEOH     1124     MEOH     DO1      DRUD     -2.48830      0.400000           0   0.00000       0.00000    
     17077 MEOH     1124     MEOH     HO1      HDP1A    0.360000       1.00800           0   0.00000       0.00000    
     17078 MEOH     1124     MEOH     HO2      DUMH      0.00000       1.00800           0   0.00000       0.00000    
     17079 MEOH     1124     MEOH     H1A      HDA3B    0.800000E-01   1.00800           0   0.00000       0.00000    
     17080 MEOH     1124     MEOH     H1B      HDA3B    0.800000E-01   1.00800           0   0.00000       0.00000    
     17081 MEOH     1124     MEOH     H1C      HDA3B    0.800000E-01   1.00800           0   0.00000       0.00000    
     17082 MEOH     1124     MEOH     LP1A     LPD     -0.230000       0.00000          -1   0.00000       0.00000    
     17083 MEOH     1124     MEOH     LP1B     LPD     -0.230000       0.00000          -1   0.00000       0.00000    
     17084 MEOH     1125     MEOH     C1       CD33B     2.31410       11.6110           0  -1.00000       1.30000    
     17085 MEOH     1125     MEOH     DC1      DRUD     -2.45410      0.400000           0   0.00000       0.00000    
     17086 MEOH     1125     MEOH     O1       OD31H     2.48830       15.5990           0  -1.02800       1.30000    
     17087 MEOH     1125     MEOH     DO1      DRUD     -2.48830      0.400000           0   0.00000       0.00000    
     17088 MEOH     1125     MEOH     HO1      HDP1A    0.360000       1.00800           0   0.00000       0.00000    
     17089 MEOH     1125     MEOH     HO2      DUMH      0.00000       1.00800           0   0.00000       0.00000    
     17090 MEOH     1125     MEOH     H1A      HDA3B    0.800000E-01   1.00800           0   0.00000       0.00000    
     17091 MEOH     1125     MEOH     H1B      HDA3B    0.800000E-01   1.00800           0   0.00000       0.00000    
     17092 MEOH     1125     MEOH     H1C      HDA3B    0.800000E-01   1.00800           0   0.00000       0.00000    
     17093 MEOH     1125     MEOH     LP1A     LPD     -0.230000       0.00000          -1   0.00000       0.00000    
     17094 MEOH     1125     MEOH     LP1B     LPD     -0.230000       0.00000          -1   0.00000       0.00000    
     17095 MEOH     1126     MEOH     C1       CD33B     2.31410       11.6110           0  -1.00000       1.30000    
     17096 MEOH     1126     MEOH     DC1      DRUD     -2.45410      0.400000           0   0.00000       0.00000    
     17097 MEOH     1126     MEOH     O1       OD31H     2.48830       15.5990           0  -1.02800       1.30000    
     17098 MEOH     1126     MEOH     DO1      DRUD     -2.48830      0.400000           0   0.00000       0.00000    
     17099 MEOH     1126     MEOH     HO1      HDP1A    0.360000       1.00800           0   0.00000       0.00000    
     17100 MEOH     1126     MEOH     HO2      DUMH      0.00000       1.00800           0   0.00000       0.00000    
     17101 MEOH     1126     MEOH     H1A      HDA3B    0.800000E-01   1.00800           0   0.00000       0.00000    
     17102 MEOH     1126     MEOH     H1B      HDA3B    0.800000E-01   1.00800           0   0.00000       0.00000    
     17103 MEOH     1126     MEOH     H1C      HDA3B    0.800000E-01   1.00800           0   0.00000       0.00000    
     17104 MEOH     1126     MEOH     LP1A     LPD     -0.230000       0.00000          -1   0.00000       0.00000    
     17105 MEOH     1126     MEOH     LP1B     LPD     -0.230000       0.00000          -1   0.00000       0.00000    
     17106 MEOH     1127     MEOH     C1       CD33B     2.31410       11.6110           0  -1.00000       1.30000    
     17107 MEOH     1127     MEOH     DC1      DRUD     -2.45410      0.400000           0   0.00000       0.00000    
     17108 MEOH     1127     MEOH     O1       OD31H     2.48830       15.5990           0  -1.02800       1.30000    
     17109 MEOH     1127     MEOH     DO1      DRUD     -2.48830      0.400000           0   0.00000       0.00000    
     17110 MEOH     1127     MEOH     HO1      HDP1A    0.360000       1.00800           0   0.00000       0.00000    
     17111 MEOH     1127     MEOH     HO2      DUMH      0.00000       1.00800           0   0.00000       0.00000    
     17112 MEOH     1127     MEOH     H1A      HDA3B    0.800000E-01   1.00800           0   0.00000       0.00000    
     17113 MEOH     1127     MEOH     H1B      HDA3B    0.800000E-01   1.00800           0   0.00000       0.00000    
     17114 MEOH     1127     MEOH     H1C      HDA3B    0.800000E-01   1.00800           0   0.00000       0.00000    
     17115 MEOH     1127     MEOH     LP1A     LPD     -0.230000       0.00000          -1   0.00000       0.00000    
     17116 MEOH     1127     MEOH     LP1B     LPD     -0.230000       0.00000          -1   0.00000       0.00000    
     17117 MEOH     1128     MEOH     C1       CD33B     2.31410       11.6110           0  -1.00000       1.30000    
     17118 MEOH     1128     MEOH     DC1      DRUD     -2.45410      0.400000           0   0.00000       0.00000    
     17119 MEOH     1128     MEOH     O1       OD31H     2.48830       15.5990           0  -1.02800       1.30000    
     17120 MEOH     1128     MEOH     DO1      DRUD     -2.48830      0.400000           0   0.00000       0.00000    
     17121 MEOH     1128     MEOH     HO1      HDP1A    0.360000       1.00800           0   0.00000       0.00000    
     17122 MEOH     1128     MEOH     HO2      DUMH      0.00000       1.00800           0   0.00000       0.00000    
     17123 MEOH     1128     MEOH     H1A      HDA3B    0.800000E-01   1.00800           0   0.00000       0.00000    
     17124 MEOH     1128     MEOH     H1B      HDA3B    0.800000E-01   1.00800           0   0.00000       0.00000    
     17125 MEOH     1128     MEOH     H1C      HDA3B    0.800000E-01   1.00800           0   0.00000       0.00000    
     17126 MEOH     1128     MEOH     LP1A     LPD     -0.230000       0.00000          -1   0.00000       0.00000    
     17127 MEOH     1128     MEOH     LP1B     LPD     -0.230000       0.00000          -1   0.00000       0.00000    
     17128 MEOH     1129     MEOH     C1       CD33B     2.31410       11.6110           0  -1.00000       1.30000    
     17129 MEOH     1129     MEOH     DC1      DRUD     -2.45410      0.400000           0   0.00000       0.00000    
     17130 MEOH     1129     MEOH     O1       OD31H     2.48830       15.5990           0  -1.02800       1.30000    
     17131 MEOH     1129     MEOH     DO1      DRUD     -2.48830      0.400000           0   0.00000       0.00000    
     17132 MEOH     1129     MEOH     HO1      HDP1A    0.360000       1.00800           0   0.00000       0.00000    
     17133 MEOH     1129     MEOH     HO2      DUMH      0.00000       1.00800           0   0.00000       0.00000    
     17134 MEOH     1129     MEOH     H1A      HDA3B    0.800000E-01   1.00800           0   0.00000       0.00000    
     17135 MEOH     1129     MEOH     H1B      HDA3B    0.800000E-01   1.00800           0   0.00000       0.00000    
     17136 MEOH     1129     MEOH     H1C      HDA3B    0.800000E-01   1.00800           0   0.00000       0.00000    
     17137 MEOH     1129     MEOH     LP1A     LPD     -0.230000       0.00000          -1   0.00000       0.00000    
     17138 MEOH     1129     MEOH     LP1B     LPD     -0.230000       0.00000          -1   0.00000       0.00000    
     17139 MEOH     1130     MEOH     C1       CD33B     2.31410       11.6110           0  -1.00000       1.30000    
     17140 MEOH     1130     MEOH     DC1      DRUD     -2.45410      0.400000           0   0.00000       0.00000    
     17141 MEOH     1130     MEOH     O1       OD31H     2.48830       15.5990           0  -1.02800       1.30000    
     17142 MEOH     1130     MEOH     DO1      DRUD     -2.48830      0.400000           0   0.00000       0.00000    
     17143 MEOH     1130     MEOH     HO1      HDP1A    0.360000       1.00800           0   0.00000       0.00000    
     17144 MEOH     1130     MEOH     HO2      DUMH      0.00000       1.00800           0   0.00000       0.00000    
     17145 MEOH     1130     MEOH     H1A      HDA3B    0.800000E-01   1.00800           0   0.00000       0.00000    
     17146 MEOH     1130     MEOH     H1B      HDA3B    0.800000E-01   1.00800           0   0.00000       0.00000    
     17147 MEOH     1130     MEOH     H1C      HDA3B    0.800000E-01   1.00800           0   0.00000       0.00000    
     17148 MEOH     1130     MEOH     LP1A     LPD     -0.230000       0.00000          -1   0.00000       0.00000    
     17149 MEOH     1130     MEOH     LP1B     LPD     -0.230000       0.00000          -1   0.00000       0.00000    
     17150 MEOH     1131     MEOH     C1       CD33B     2.31410       11.6110           0  -1.00000       1.30000    
     17151 MEOH     1131     MEOH     DC1      DRUD     -2.45410      0.400000           0   0.00000       0.00000    
     17152 MEOH     1131     MEOH     O1       OD31H     2.48830       15.5990           0  -1.02800       1.30000    
     17153 MEOH     1131     MEOH     DO1      DRUD     -2.48830      0.400000           0   0.00000       0.00000    
     17154 MEOH     1131     MEOH     HO1      HDP1A    0.360000       1.00800           0   0.00000       0.00000    
     17155 MEOH     1131     MEOH     HO2      DUMH      0.00000       1.00800           0   0.00000       0.00000    
     17156 MEOH     1131     MEOH     H1A      HDA3B    0.800000E-01   1.00800           0   0.00000       0.00000    
     17157 MEOH     1131     MEOH     H1B      HDA3B    0.800000E-01   1.00800           0   0.00000       0.00000    
     17158 MEOH     1131     MEOH     H1C      HDA3B    0.800000E-01   1.00800           0   0.00000       0.00000    
     17159 MEOH     1131     MEOH     LP1A     LPD     -0.230000       0.00000          -1   0.00000       0.00000    
     17160 MEOH     1131     MEOH     LP1B     LPD     -0.230000       0.00000          -1   0.00000       0.00000    
     17161 MEOH     1132     MEOH     C1       CD33B     2.31410       11.6110           0  -1.00000       1.30000    
     17162 MEOH     1132     MEOH     DC1      DRUD     -2.45410      0.400000           0   0.00000       0.00000    
     17163 MEOH     1132     MEOH     O1       OD31H     2.48830       15.5990           0  -1.02800       1.30000    
     17164 MEOH     1132     MEOH     DO1      DRUD     -2.48830      0.400000           0   0.00000       0.00000    
     17165 MEOH     1132     MEOH     HO1      HDP1A    0.360000       1.00800           0   0.00000       0.00000    
     17166 MEOH     1132     MEOH     HO2      DUMH      0.00000       1.00800           0   0.00000       0.00000    
     17167 MEOH     1132     MEOH     H1A      HDA3B    0.800000E-01   1.00800           0   0.00000       0.00000    
     17168 MEOH     1132     MEOH     H1B      HDA3B    0.800000E-01   1.00800           0   0.00000       0.00000    
     17169 MEOH     1132     MEOH     H1C      HDA3B    0.800000E-01   1.00800           0   0.00000       0.00000    
     17170 MEOH     1132     MEOH     LP1A     LPD     -0.230000       0.00000          -1   0.00000       0.00000    
     17171 MEOH     1132     MEOH     LP1B     LPD     -0.230000       0.00000          -1   0.00000       0.00000    
     17172 MEOH     1133     MEOH     C1       CD33B     2.31410       11.6110           0  -1.00000       1.30000    
     17173 MEOH     1133     MEOH     DC1      DRUD     -2.45410      0.400000           0   0.00000       0.00000    
     17174 MEOH     1133     MEOH     O1       OD31H     2.48830       15.5990           0  -1.02800       1.30000    
     17175 MEOH     1133     MEOH     DO1      DRUD     -2.48830      0.400000           0   0.00000       0.00000    
     17176 MEOH     1133     MEOH     HO1      HDP1A    0.360000       1.00800           0   0.00000       0.00000    
     17177 MEOH     1133     MEOH     HO2      DUMH      0.00000       1.00800           0   0.00000       0.00000    
     17178 MEOH     1133     MEOH     H1A      HDA3B    0.800000E-01   1.00800           0   0.00000       0.00000    
     17179 MEOH     1133     MEOH     H1B      HDA3B    0.800000E-01   1.00800           0   0.00000       0.00000    
     17180 MEOH     1133     MEOH     H1C      HDA3B    0.800000E-01   1.00800           0   0.00000       0.00000    
     17181 MEOH     1133     MEOH     LP1A     LPD     -0.230000       0.00000          -1   0.00000       0.00000    
     17182 MEOH     1133     MEOH     LP1B     LPD     -0.230000       0.00000          -1   0.00000       0.00000    
     17183 MEOH     1134     MEOH     C1       CD33B     2.31410       11.6110           0  -1.00000       1.30000    
     17184 MEOH     1134     MEOH     DC1      DRUD     -2.45410      0.400000           0   0.00000       0.00000    
     17185 MEOH     1134     MEOH     O1       OD31H     2.48830       15.5990           0  -1.02800       1.30000    
     17186 MEOH     1134     MEOH     DO1      DRUD     -2.48830      0.400000           0   0.00000       0.00000    
     17187 MEOH     1134     MEOH     HO1      HDP1A    0.360000       1.00800           0   0.00000       0.00000    
     17188 MEOH     1134     MEOH     HO2      DUMH      0.00000       1.00800           0   0.00000       0.00000    
     17189 MEOH     1134     MEOH     H1A      HDA3B    0.800000E-01   1.00800           0   0.00000       0.00000    
     17190 MEOH     1134     MEOH     H1B      HDA3B    0.800000E-01   1.00800           0   0.00000       0.00000    
     17191 MEOH     1134     MEOH     H1C      HDA3B    0.800000E-01   1.00800           0   0.00000       0.00000    
     17192 MEOH     1134     MEOH     LP1A     LPD     -0.230000       0.00000          -1   0.00000       0.00000    
     17193 MEOH     1134     MEOH     LP1B     LPD     -0.230000       0.00000          -1   0.00000       0.00000    
     17194 MEOH     1135     MEOH     C1       CD33B     2.31410       11.6110           0  -1.00000       1.30000    
     17195 MEOH     1135     MEOH     DC1      DRUD     -2.45410      0.400000           0   0.00000       0.00000    
     17196 MEOH     1135     MEOH     O1       OD31H     2.48830       15.5990           0  -1.02800       1.30000    
     17197 MEOH     1135     MEOH     DO1      DRUD     -2.48830      0.400000           0   0.00000       0.00000    
     17198 MEOH     1135     MEOH     HO1      HDP1A    0.360000       1.00800           0   0.00000       0.00000    
     17199 MEOH     1135     MEOH     HO2      DUMH      0.00000       1.00800           0   0.00000       0.00000    
     17200 MEOH     1135     MEOH     H1A      HDA3B    0.800000E-01   1.00800           0   0.00000       0.00000    
     17201 MEOH     1135     MEOH     H1B      HDA3B    0.800000E-01   1.00800           0   0.00000       0.00000    
     17202 MEOH     1135     MEOH     H1C      HDA3B    0.800000E-01   1.00800           0   0.00000       0.00000    
     17203 MEOH     1135     MEOH     LP1A     LPD     -0.230000       0.00000          -1   0.00000       0.00000    
     17204 MEOH     1135     MEOH     LP1B     LPD     -0.230000       0.00000          -1   0.00000       0.00000    
     17205 MEOH     1136     MEOH     C1       CD33B     2.31410       11.6110           0  -1.00000       1.30000    
     17206 MEOH     1136     MEOH     DC1      DRUD     -2.45410      0.400000           0   0.00000       0.00000    
     17207 MEOH     1136     MEOH     O1       OD31H     2.48830       15.5990           0  -1.02800       1.30000    
     17208 MEOH     1136     MEOH     DO1      DRUD     -2.48830      0.400000           0   0.00000       0.00000    
     17209 MEOH     1136     MEOH     HO1      HDP1A    0.360000       1.00800           0   0.00000       0.00000    
     17210 MEOH     1136     MEOH     HO2      DUMH      0.00000       1.00800           0   0.00000       0.00000    
     17211 MEOH     1136     MEOH     H1A      HDA3B    0.800000E-01   1.00800           0   0.00000       0.00000    
     17212 MEOH     1136     MEOH     H1B      HDA3B    0.800000E-01   1.00800           0   0.00000       0.00000    
     17213 MEOH     1136     MEOH     H1C      HDA3B    0.800000E-01   1.00800           0   0.00000       0.00000    
     17214 MEOH     1136     MEOH     LP1A     LPD     -0.230000       0.00000          -1   0.00000       0.00000    
     17215 MEOH     1136     MEOH     LP1B     LPD     -0.230000       0.00000          -1   0.00000       0.00000    
     17216 MEOH     1137     MEOH     C1       CD33B     2.31410       11.6110           0  -1.00000       1.30000    
     17217 MEOH     1137     MEOH     DC1      DRUD     -2.45410      0.400000           0   0.00000       0.00000    
     17218 MEOH     1137     MEOH     O1       OD31H     2.48830       15.5990           0  -1.02800       1.30000    
     17219 MEOH     1137     MEOH     DO1      DRUD     -2.48830      0.400000           0   0.00000       0.00000    
     17220 MEOH     1137     MEOH     HO1      HDP1A    0.360000       1.00800           0   0.00000       0.00000    
     17221 MEOH     1137     MEOH     HO2      DUMH      0.00000       1.00800           0   0.00000       0.00000    
     17222 MEOH     1137     MEOH     H1A      HDA3B    0.800000E-01   1.00800           0   0.00000       0.00000    
     17223 MEOH     1137     MEOH     H1B      HDA3B    0.800000E-01   1.00800           0   0.00000       0.00000    
     17224 MEOH     1137     MEOH     H1C      HDA3B    0.800000E-01   1.00800           0   0.00000       0.00000    
     17225 MEOH     1137     MEOH     LP1A     LPD     -0.230000       0.00000          -1   0.00000       0.00000    
     17226 MEOH     1137     MEOH     LP1B     LPD     -0.230000       0.00000          -1   0.00000       0.00000    
     17227 MEOH     1138     MEOH     C1       CD33B     2.31410       11.6110           0  -1.00000       1.30000    
     17228 MEOH     1138     MEOH     DC1      DRUD     -2.45410      0.400000           0   0.00000       0.00000    
     17229 MEOH     1138     MEOH     O1       OD31H     2.48830       15.5990           0  -1.02800       1.30000    
     17230 MEOH     1138     MEOH     DO1      DRUD     -2.48830      0.400000           0   0.00000       0.00000    
     17231 MEOH     1138     MEOH     HO1      HDP1A    0.360000       1.00800           0   0.00000       0.00000    
     17232 MEOH     1138     MEOH     HO2      DUMH      0.00000       1.00800           0   0.00000       0.00000    
     17233 MEOH     1138     MEOH     H1A      HDA3B    0.800000E-01   1.00800           0   0.00000       0.00000    
     17234 MEOH     1138     MEOH     H1B      HDA3B    0.800000E-01   1.00800           0   0.00000       0.00000    
     17235 MEOH     1138     MEOH     H1C      HDA3B    0.800000E-01   1.00800           0   0.00000       0.00000    
     17236 MEOH     1138     MEOH     LP1A     LPD     -0.230000       0.00000          -1   0.00000       0.00000    
     17237 MEOH     1138     MEOH     LP1B     LPD     -0.230000       0.00000          -1   0.00000       0.00000    
     17238 MEOH     1139     MEOH     C1       CD33B     2.31410       11.6110           0  -1.00000       1.30000    
     17239 MEOH     1139     MEOH     DC1      DRUD     -2.45410      0.400000           0   0.00000       0.00000    
     17240 MEOH     1139     MEOH     O1       OD31H     2.48830       15.5990           0  -1.02800       1.30000    
     17241 MEOH     1139     MEOH     DO1      DRUD     -2.48830      0.400000           0   0.00000       0.00000    
     17242 MEOH     1139     MEOH     HO1      HDP1A    0.360000       1.00800           0   0.00000       0.00000    
     17243 MEOH     1139     MEOH     HO2      DUMH      0.00000       1.00800           0   0.00000       0.00000    
     17244 MEOH     1139     MEOH     H1A      HDA3B    0.800000E-01   1.00800           0   0.00000       0.00000    
     17245 MEOH     1139     MEOH     H1B      HDA3B    0.800000E-01   1.00800           0   0.00000       0.00000    
     17246 MEOH     1139     MEOH     H1C      HDA3B    0.800000E-01   1.00800           0   0.00000       0.00000    
     17247 MEOH     1139     MEOH     LP1A     LPD     -0.230000       0.00000          -1   0.00000       0.00000    
     17248 MEOH     1139     MEOH     LP1B     LPD     -0.230000       0.00000          -1   0.00000       0.00000    
     17249 MEOH     1140     MEOH     C1       CD33B     2.31410       11.6110           0  -1.00000       1.30000    
     17250 MEOH     1140     MEOH     DC1      DRUD     -2.45410      0.400000           0   0.00000       0.00000    
     17251 MEOH     1140     MEOH     O1       OD31H     2.48830       15.5990           0  -1.02800       1.30000    
     17252 MEOH     1140     MEOH     DO1      DRUD     -2.48830      0.400000           0   0.00000       0.00000    
     17253 MEOH     1140     MEOH     HO1      HDP1A    0.360000       1.00800           0   0.00000       0.00000    
     17254 MEOH     1140     MEOH     HO2      DUMH      0.00000       1.00800           0   0.00000       0.00000    
     17255 MEOH     1140     MEOH     H1A      HDA3B    0.800000E-01   1.00800           0   0.00000       0.00000    
     17256 MEOH     1140     MEOH     H1B      HDA3B    0.800000E-01   1.00800           0   0.00000       0.00000    
     17257 MEOH     1140     MEOH     H1C      HDA3B    0.800000E-01   1.00800           0   0.00000       0.00000    
     17258 MEOH     1140     MEOH     LP1A     LPD     -0.230000       0.00000          -1   0.00000       0.00000    
     17259 MEOH     1140     MEOH     LP1B     LPD     -0.230000       0.00000          -1   0.00000       0.00000    
     17260 MEOH     1141     MEOH     C1       CD33B     2.31410       11.6110           0  -1.00000       1.30000    
     17261 MEOH     1141     MEOH     DC1      DRUD     -2.45410      0.400000           0   0.00000       0.00000    
     17262 MEOH     1141     MEOH     O1       OD31H     2.48830       15.5990           0  -1.02800       1.30000    
     17263 MEOH     1141     MEOH     DO1      DRUD     -2.48830      0.400000           0   0.00000       0.00000    
     17264 MEOH     1141     MEOH     HO1      HDP1A    0.360000       1.00800           0   0.00000       0.00000    
     17265 MEOH     1141     MEOH     HO2      DUMH      0.00000       1.00800           0   0.00000       0.00000    
     17266 MEOH     1141     MEOH     H1A      HDA3B    0.800000E-01   1.00800           0   0.00000       0.00000    
     17267 MEOH     1141     MEOH     H1B      HDA3B    0.800000E-01   1.00800           0   0.00000       0.00000    
     17268 MEOH     1141     MEOH     H1C      HDA3B    0.800000E-01   1.00800           0   0.00000       0.00000    
     17269 MEOH     1141     MEOH     LP1A     LPD     -0.230000       0.00000          -1   0.00000       0.00000    
     17270 MEOH     1141     MEOH     LP1B     LPD     -0.230000       0.00000          -1   0.00000       0.00000    
     17271 MEOH     1142     MEOH     C1       CD33B     2.31410       11.6110           0  -1.00000       1.30000    
     17272 MEOH     1142     MEOH     DC1      DRUD     -2.45410      0.400000           0   0.00000       0.00000    
     17273 MEOH     1142     MEOH     O1       OD31H     2.48830       15.5990           0  -1.02800       1.30000    
     17274 MEOH     1142     MEOH     DO1      DRUD     -2.48830      0.400000           0   0.00000       0.00000    
     17275 MEOH     1142     MEOH     HO1      HDP1A    0.360000       1.00800           0   0.00000       0.00000    
     17276 MEOH     1142     MEOH     HO2      DUMH      0.00000       1.00800           0   0.00000       0.00000    
     17277 MEOH     1142     MEOH     H1A      HDA3B    0.800000E-01   1.00800           0   0.00000       0.00000    
     17278 MEOH     1142     MEOH     H1B      HDA3B    0.800000E-01   1.00800           0   0.00000       0.00000    
     17279 MEOH     1142     MEOH     H1C      HDA3B    0.800000E-01   1.00800           0   0.00000       0.00000    
     17280 MEOH     1142     MEOH     LP1A     LPD     -0.230000       0.00000          -1   0.00000       0.00000    
     17281 MEOH     1142     MEOH     LP1B     LPD     -0.230000       0.00000          -1   0.00000       0.00000    
     17282 MEOH     1143     MEOH     C1       CD33B     2.31410       11.6110           0  -1.00000       1.30000    
     17283 MEOH     1143     MEOH     DC1      DRUD     -2.45410      0.400000           0   0.00000       0.00000    
     17284 MEOH     1143     MEOH     O1       OD31H     2.48830       15.5990           0  -1.02800       1.30000    
     17285 MEOH     1143     MEOH     DO1      DRUD     -2.48830      0.400000           0   0.00000       0.00000    
     17286 MEOH     1143     MEOH     HO1      HDP1A    0.360000       1.00800           0   0.00000       0.00000    
     17287 MEOH     1143     MEOH     HO2      DUMH      0.00000       1.00800           0   0.00000       0.00000    
     17288 MEOH     1143     MEOH     H1A      HDA3B    0.800000E-01   1.00800           0   0.00000       0.00000    
     17289 MEOH     1143     MEOH     H1B      HDA3B    0.800000E-01   1.00800           0   0.00000       0.00000    
     17290 MEOH     1143     MEOH     H1C      HDA3B    0.800000E-01   1.00800           0   0.00000       0.00000    
     17291 MEOH     1143     MEOH     LP1A     LPD     -0.230000       0.00000          -1   0.00000       0.00000    
     17292 MEOH     1143     MEOH     LP1B     LPD     -0.230000       0.00000          -1   0.00000       0.00000    
     17293 MEOH     1144     MEOH     C1       CD33B     2.31410       11.6110           0  -1.00000       1.30000    
     17294 MEOH     1144     MEOH     DC1      DRUD     -2.45410      0.400000           0   0.00000       0.00000    
     17295 MEOH     1144     MEOH     O1       OD31H     2.48830       15.5990           0  -1.02800       1.30000    
     17296 MEOH     1144     MEOH     DO1      DRUD     -2.48830      0.400000           0   0.00000       0.00000    
     17297 MEOH     1144     MEOH     HO1      HDP1A    0.360000       1.00800           0   0.00000       0.00000    
     17298 MEOH     1144     MEOH     HO2      DUMH      0.00000       1.00800           0   0.00000       0.00000    
     17299 MEOH     1144     MEOH     H1A      HDA3B    0.800000E-01   1.00800           0   0.00000       0.00000    
     17300 MEOH     1144     MEOH     H1B      HDA3B    0.800000E-01   1.00800           0   0.00000       0.00000    
     17301 MEOH     1144     MEOH     H1C      HDA3B    0.800000E-01   1.00800           0   0.00000       0.00000    
     17302 MEOH     1144     MEOH     LP1A     LPD     -0.230000       0.00000          -1   0.00000       0.00000    
     17303 MEOH     1144     MEOH     LP1B     LPD     -0.230000       0.00000          -1   0.00000       0.00000    
     17304 MEOH     1145     MEOH     C1       CD33B     2.31410       11.6110           0  -1.00000       1.30000    
     17305 MEOH     1145     MEOH     DC1      DRUD     -2.45410      0.400000           0   0.00000       0.00000    
     17306 MEOH     1145     MEOH     O1       OD31H     2.48830       15.5990           0  -1.02800       1.30000    
     17307 MEOH     1145     MEOH     DO1      DRUD     -2.48830      0.400000           0   0.00000       0.00000    
     17308 MEOH     1145     MEOH     HO1      HDP1A    0.360000       1.00800           0   0.00000       0.00000    
     17309 MEOH     1145     MEOH     HO2      DUMH      0.00000       1.00800           0   0.00000       0.00000    
     17310 MEOH     1145     MEOH     H1A      HDA3B    0.800000E-01   1.00800           0   0.00000       0.00000    
     17311 MEOH     1145     MEOH     H1B      HDA3B    0.800000E-01   1.00800           0   0.00000       0.00000    
     17312 MEOH     1145     MEOH     H1C      HDA3B    0.800000E-01   1.00800           0   0.00000       0.00000    
     17313 MEOH     1145     MEOH     LP1A     LPD     -0.230000       0.00000          -1   0.00000       0.00000    
     17314 MEOH     1145     MEOH     LP1B     LPD     -0.230000       0.00000          -1   0.00000       0.00000    
     17315 MEOH     1146     MEOH     C1       CD33B     2.31410       11.6110           0  -1.00000       1.30000    
     17316 MEOH     1146     MEOH     DC1      DRUD     -2.45410      0.400000           0   0.00000       0.00000    
     17317 MEOH     1146     MEOH     O1       OD31H     2.48830       15.5990           0  -1.02800       1.30000    
     17318 MEOH     1146     MEOH     DO1      DRUD     -2.48830      0.400000           0   0.00000       0.00000    
     17319 MEOH     1146     MEOH     HO1      HDP1A    0.360000       1.00800           0   0.00000       0.00000    
     17320 MEOH     1146     MEOH     HO2      DUMH      0.00000       1.00800           0   0.00000       0.00000    
     17321 MEOH     1146     MEOH     H1A      HDA3B    0.800000E-01   1.00800           0   0.00000       0.00000    
     17322 MEOH     1146     MEOH     H1B      HDA3B    0.800000E-01   1.00800           0   0.00000       0.00000    
     17323 MEOH     1146     MEOH     H1C      HDA3B    0.800000E-01   1.00800           0   0.00000       0.00000    
     17324 MEOH     1146     MEOH     LP1A     LPD     -0.230000       0.00000          -1   0.00000       0.00000    
     17325 MEOH     1146     MEOH     LP1B     LPD     -0.230000       0.00000          -1   0.00000       0.00000    
     17326 MEOH     1147     MEOH     C1       CD33B     2.31410       11.6110           0  -1.00000       1.30000    
     17327 MEOH     1147     MEOH     DC1      DRUD     -2.45410      0.400000           0   0.00000       0.00000    
     17328 MEOH     1147     MEOH     O1       OD31H     2.48830       15.5990           0  -1.02800       1.30000    
     17329 MEOH     1147     MEOH     DO1      DRUD     -2.48830      0.400000           0   0.00000       0.00000    
     17330 MEOH     1147     MEOH     HO1      HDP1A    0.360000       1.00800           0   0.00000       0.00000    
     17331 MEOH     1147     MEOH     HO2      DUMH      0.00000       1.00800           0   0.00000       0.00000    
     17332 MEOH     1147     MEOH     H1A      HDA3B    0.800000E-01   1.00800           0   0.00000       0.00000    
     17333 MEOH     1147     MEOH     H1B      HDA3B    0.800000E-01   1.00800           0   0.00000       0.00000    
     17334 MEOH     1147     MEOH     H1C      HDA3B    0.800000E-01   1.00800           0   0.00000       0.00000    
     17335 MEOH     1147     MEOH     LP1A     LPD     -0.230000       0.00000          -1   0.00000       0.00000    
     17336 MEOH     1147     MEOH     LP1B     LPD     -0.230000       0.00000          -1   0.00000       0.00000    
     17337 MEOH     1148     MEOH     C1       CD33B     2.31410       11.6110           0  -1.00000       1.30000    
     17338 MEOH     1148     MEOH     DC1      DRUD     -2.45410      0.400000           0   0.00000       0.00000    
     17339 MEOH     1148     MEOH     O1       OD31H     2.48830       15.5990           0  -1.02800       1.30000    
     17340 MEOH     1148     MEOH     DO1      DRUD     -2.48830      0.400000           0   0.00000       0.00000    
     17341 MEOH     1148     MEOH     HO1      HDP1A    0.360000       1.00800           0   0.00000       0.00000    
     17342 MEOH     1148     MEOH     HO2      DUMH      0.00000       1.00800           0   0.00000       0.00000    
     17343 MEOH     1148     MEOH     H1A      HDA3B    0.800000E-01   1.00800           0   0.00000       0.00000    
     17344 MEOH     1148     MEOH     H1B      HDA3B    0.800000E-01   1.00800           0   0.00000       0.00000    
     17345 MEOH     1148     MEOH     H1C      HDA3B    0.800000E-01   1.00800           0   0.00000       0.00000    
     17346 MEOH     1148     MEOH     LP1A     LPD     -0.230000       0.00000          -1   0.00000       0.00000    
     17347 MEOH     1148     MEOH     LP1B     LPD     -0.230000       0.00000          -1   0.00000       0.00000    
     17348 MEOH     1149     MEOH     C1       CD33B     2.31410       11.6110           0  -1.00000       1.30000    
     17349 MEOH     1149     MEOH     DC1      DRUD     -2.45410      0.400000           0   0.00000       0.00000    
     17350 MEOH     1149     MEOH     O1       OD31H     2.48830       15.5990           0  -1.02800       1.30000    
     17351 MEOH     1149     MEOH     DO1      DRUD     -2.48830      0.400000           0   0.00000       0.00000    
     17352 MEOH     1149     MEOH     HO1      HDP1A    0.360000       1.00800           0   0.00000       0.00000    
     17353 MEOH     1149     MEOH     HO2      DUMH      0.00000       1.00800           0   0.00000       0.00000    
     17354 MEOH     1149     MEOH     H1A      HDA3B    0.800000E-01   1.00800           0   0.00000       0.00000    
     17355 MEOH     1149     MEOH     H1B      HDA3B    0.800000E-01   1.00800           0   0.00000       0.00000    
     17356 MEOH     1149     MEOH     H1C      HDA3B    0.800000E-01   1.00800           0   0.00000       0.00000    
     17357 MEOH     1149     MEOH     LP1A     LPD     -0.230000       0.00000          -1   0.00000       0.00000    
     17358 MEOH     1149     MEOH     LP1B     LPD     -0.230000       0.00000          -1   0.00000       0.00000    
     17359 MEOH     1150     MEOH     C1       CD33B     2.31410       11.6110           0  -1.00000       1.30000    
     17360 MEOH     1150     MEOH     DC1      DRUD     -2.45410      0.400000           0   0.00000       0.00000    
     17361 MEOH     1150     MEOH     O1       OD31H     2.48830       15.5990           0  -1.02800       1.30000    
     17362 MEOH     1150     MEOH     DO1      DRUD     -2.48830      0.400000           0   0.00000       0.00000    
     17363 MEOH     1150     MEOH     HO1      HDP1A    0.360000       1.00800           0   0.00000       0.00000    
     17364 MEOH     1150     MEOH     HO2      DUMH      0.00000       1.00800           0   0.00000       0.00000    
     17365 MEOH     1150     MEOH     H1A      HDA3B    0.800000E-01   1.00800           0   0.00000       0.00000    
     17366 MEOH     1150     MEOH     H1B      HDA3B    0.800000E-01   1.00800           0   0.00000       0.00000    
     17367 MEOH     1150     MEOH     H1C      HDA3B    0.800000E-01   1.00800           0   0.00000       0.00000    
     17368 MEOH     1150     MEOH     LP1A     LPD     -0.230000       0.00000          -1   0.00000       0.00000    
     17369 MEOH     1150     MEOH     LP1B     LPD     -0.230000       0.00000          -1   0.00000       0.00000    
     17370 MEOH     1151     MEOH     C1       CD33B     2.31410       11.6110           0  -1.00000       1.30000    
     17371 MEOH     1151     MEOH     DC1      DRUD     -2.45410      0.400000           0   0.00000       0.00000    
     17372 MEOH     1151     MEOH     O1       OD31H     2.48830       15.5990           0  -1.02800       1.30000    
     17373 MEOH     1151     MEOH     DO1      DRUD     -2.48830      0.400000           0   0.00000       0.00000    
     17374 MEOH     1151     MEOH     HO1      HDP1A    0.360000       1.00800           0   0.00000       0.00000    
     17375 MEOH     1151     MEOH     HO2      DUMH      0.00000       1.00800           0   0.00000       0.00000    
     17376 MEOH     1151     MEOH     H1A      HDA3B    0.800000E-01   1.00800           0   0.00000       0.00000    
     17377 MEOH     1151     MEOH     H1B      HDA3B    0.800000E-01   1.00800           0   0.00000       0.00000    
     17378 MEOH     1151     MEOH     H1C      HDA3B    0.800000E-01   1.00800           0   0.00000       0.00000    
     17379 MEOH     1151     MEOH     LP1A     LPD     -0.230000       0.00000          -1   0.00000       0.00000    
     17380 MEOH     1151     MEOH     LP1B     LPD     -0.230000       0.00000          -1   0.00000       0.00000    
     17381 MEOH     1152     MEOH     C1       CD33B     2.31410       11.6110           0  -1.00000       1.30000    
     17382 MEOH     1152     MEOH     DC1      DRUD     -2.45410      0.400000           0   0.00000       0.00000    
     17383 MEOH     1152     MEOH     O1       OD31H     2.48830       15.5990           0  -1.02800       1.30000    
     17384 MEOH     1152     MEOH     DO1      DRUD     -2.48830      0.400000           0   0.00000       0.00000    
     17385 MEOH     1152     MEOH     HO1      HDP1A    0.360000       1.00800           0   0.00000       0.00000    
     17386 MEOH     1152     MEOH     HO2      DUMH      0.00000       1.00800           0   0.00000       0.00000    
     17387 MEOH     1152     MEOH     H1A      HDA3B    0.800000E-01   1.00800           0   0.00000       0.00000    
     17388 MEOH     1152     MEOH     H1B      HDA3B    0.800000E-01   1.00800           0   0.00000       0.00000    
     17389 MEOH     1152     MEOH     H1C      HDA3B    0.800000E-01   1.00800           0   0.00000       0.00000    
     17390 MEOH     1152     MEOH     LP1A     LPD     -0.230000       0.00000          -1   0.00000       0.00000    
     17391 MEOH     1152     MEOH     LP1B     LPD     -0.230000       0.00000          -1   0.00000       0.00000    
     17392 MEOH     1153     MEOH     C1       CD33B     2.31410       11.6110           0  -1.00000       1.30000    
     17393 MEOH     1153     MEOH     DC1      DRUD     -2.45410      0.400000           0   0.00000       0.00000    
     17394 MEOH     1153     MEOH     O1       OD31H     2.48830       15.5990           0  -1.02800       1.30000    
     17395 MEOH     1153     MEOH     DO1      DRUD     -2.48830      0.400000           0   0.00000       0.00000    
     17396 MEOH     1153     MEOH     HO1      HDP1A    0.360000       1.00800           0   0.00000       0.00000    
     17397 MEOH     1153     MEOH     HO2      DUMH      0.00000       1.00800           0   0.00000       0.00000    
     17398 MEOH     1153     MEOH     H1A      HDA3B    0.800000E-01   1.00800           0   0.00000       0.00000    
     17399 MEOH     1153     MEOH     H1B      HDA3B    0.800000E-01   1.00800           0   0.00000       0.00000    
     17400 MEOH     1153     MEOH     H1C      HDA3B    0.800000E-01   1.00800           0   0.00000       0.00000    
     17401 MEOH     1153     MEOH     LP1A     LPD     -0.230000       0.00000          -1   0.00000       0.00000    
     17402 MEOH     1153     MEOH     LP1B     LPD     -0.230000       0.00000          -1   0.00000       0.00000    
     17403 MEOH     1154     MEOH     C1       CD33B     2.31410       11.6110           0  -1.00000       1.30000    
     17404 MEOH     1154     MEOH     DC1      DRUD     -2.45410      0.400000           0   0.00000       0.00000    
     17405 MEOH     1154     MEOH     O1       OD31H     2.48830       15.5990           0  -1.02800       1.30000    
     17406 MEOH     1154     MEOH     DO1      DRUD     -2.48830      0.400000           0   0.00000       0.00000    
     17407 MEOH     1154     MEOH     HO1      HDP1A    0.360000       1.00800           0   0.00000       0.00000    
     17408 MEOH     1154     MEOH     HO2      DUMH      0.00000       1.00800           0   0.00000       0.00000    
     17409 MEOH     1154     MEOH     H1A      HDA3B    0.800000E-01   1.00800           0   0.00000       0.00000    
     17410 MEOH     1154     MEOH     H1B      HDA3B    0.800000E-01   1.00800           0   0.00000       0.00000    
     17411 MEOH     1154     MEOH     H1C      HDA3B    0.800000E-01   1.00800           0   0.00000       0.00000    
     17412 MEOH     1154     MEOH     LP1A     LPD     -0.230000       0.00000          -1   0.00000       0.00000    
     17413 MEOH     1154     MEOH     LP1B     LPD     -0.230000       0.00000          -1   0.00000       0.00000    
     17414 MEOH     1155     MEOH     C1       CD33B     2.31410       11.6110           0  -1.00000       1.30000    
     17415 MEOH     1155     MEOH     DC1      DRUD     -2.45410      0.400000           0   0.00000       0.00000    
     17416 MEOH     1155     MEOH     O1       OD31H     2.48830       15.5990           0  -1.02800       1.30000    
     17417 MEOH     1155     MEOH     DO1      DRUD     -2.48830      0.400000           0   0.00000       0.00000    
     17418 MEOH     1155     MEOH     HO1      HDP1A    0.360000       1.00800           0   0.00000       0.00000    
     17419 MEOH     1155     MEOH     HO2      DUMH      0.00000       1.00800           0   0.00000       0.00000    
     17420 MEOH     1155     MEOH     H1A      HDA3B    0.800000E-01   1.00800           0   0.00000       0.00000    
     17421 MEOH     1155     MEOH     H1B      HDA3B    0.800000E-01   1.00800           0   0.00000       0.00000    
     17422 MEOH     1155     MEOH     H1C      HDA3B    0.800000E-01   1.00800           0   0.00000       0.00000    
     17423 MEOH     1155     MEOH     LP1A     LPD     -0.230000       0.00000          -1   0.00000       0.00000    
     17424 MEOH     1155     MEOH     LP1B     LPD     -0.230000       0.00000          -1   0.00000       0.00000    
     17425 MEOH     1156     MEOH     C1       CD33B     2.31410       11.6110           0  -1.00000       1.30000    
     17426 MEOH     1156     MEOH     DC1      DRUD     -2.45410      0.400000           0   0.00000       0.00000    
     17427 MEOH     1156     MEOH     O1       OD31H     2.48830       15.5990           0  -1.02800       1.30000    
     17428 MEOH     1156     MEOH     DO1      DRUD     -2.48830      0.400000           0   0.00000       0.00000    
     17429 MEOH     1156     MEOH     HO1      HDP1A    0.360000       1.00800           0   0.00000       0.00000    
     17430 MEOH     1156     MEOH     HO2      DUMH      0.00000       1.00800           0   0.00000       0.00000    
     17431 MEOH     1156     MEOH     H1A      HDA3B    0.800000E-01   1.00800           0   0.00000       0.00000    
     17432 MEOH     1156     MEOH     H1B      HDA3B    0.800000E-01   1.00800           0   0.00000       0.00000    
     17433 MEOH     1156     MEOH     H1C      HDA3B    0.800000E-01   1.00800           0   0.00000       0.00000    
     17434 MEOH     1156     MEOH     LP1A     LPD     -0.230000       0.00000          -1   0.00000       0.00000    
     17435 MEOH     1156     MEOH     LP1B     LPD     -0.230000       0.00000          -1   0.00000       0.00000    
     17436 MEOH     1157     MEOH     C1       CD33B     2.31410       11.6110           0  -1.00000       1.30000    
     17437 MEOH     1157     MEOH     DC1      DRUD     -2.45410      0.400000           0   0.00000       0.00000    
     17438 MEOH     1157     MEOH     O1       OD31H     2.48830       15.5990           0  -1.02800       1.30000    
     17439 MEOH     1157     MEOH     DO1      DRUD     -2.48830      0.400000           0   0.00000       0.00000    
     17440 MEOH     1157     MEOH     HO1      HDP1A    0.360000       1.00800           0   0.00000       0.00000    
     17441 MEOH     1157     MEOH     HO2      DUMH      0.00000       1.00800           0   0.00000       0.00000    
     17442 MEOH     1157     MEOH     H1A      HDA3B    0.800000E-01   1.00800           0   0.00000       0.00000    
     17443 MEOH     1157     MEOH     H1B      HDA3B    0.800000E-01   1.00800           0   0.00000       0.00000    
     17444 MEOH     1157     MEOH     H1C      HDA3B    0.800000E-01   1.00800           0   0.00000       0.00000    
     17445 MEOH     1157     MEOH     LP1A     LPD     -0.230000       0.00000          -1   0.00000       0.00000    
     17446 MEOH     1157     MEOH     LP1B     LPD     -0.230000       0.00000          -1   0.00000       0.00000    
     17447 MEOH     1158     MEOH     C1       CD33B     2.31410       11.6110           0  -1.00000       1.30000    
     17448 MEOH     1158     MEOH     DC1      DRUD     -2.45410      0.400000           0   0.00000       0.00000    
     17449 MEOH     1158     MEOH     O1       OD31H     2.48830       15.5990           0  -1.02800       1.30000    
     17450 MEOH     1158     MEOH     DO1      DRUD     -2.48830      0.400000           0   0.00000       0.00000    
     17451 MEOH     1158     MEOH     HO1      HDP1A    0.360000       1.00800           0   0.00000       0.00000    
     17452 MEOH     1158     MEOH     HO2      DUMH      0.00000       1.00800           0   0.00000       0.00000    
     17453 MEOH     1158     MEOH     H1A      HDA3B    0.800000E-01   1.00800           0   0.00000       0.00000    
     17454 MEOH     1158     MEOH     H1B      HDA3B    0.800000E-01   1.00800           0   0.00000       0.00000    
     17455 MEOH     1158     MEOH     H1C      HDA3B    0.800000E-01   1.00800           0   0.00000       0.00000    
     17456 MEOH     1158     MEOH     LP1A     LPD     -0.230000       0.00000          -1   0.00000       0.00000    
     17457 MEOH     1158     MEOH     LP1B     LPD     -0.230000       0.00000          -1   0.00000       0.00000    
     17458 MEOH     1159     MEOH     C1       CD33B     2.31410       11.6110           0  -1.00000       1.30000    
     17459 MEOH     1159     MEOH     DC1      DRUD     -2.45410      0.400000           0   0.00000       0.00000    
     17460 MEOH     1159     MEOH     O1       OD31H     2.48830       15.5990           0  -1.02800       1.30000    
     17461 MEOH     1159     MEOH     DO1      DRUD     -2.48830      0.400000           0   0.00000       0.00000    
     17462 MEOH     1159     MEOH     HO1      HDP1A    0.360000       1.00800           0   0.00000       0.00000    
     17463 MEOH     1159     MEOH     HO2      DUMH      0.00000       1.00800           0   0.00000       0.00000    
     17464 MEOH     1159     MEOH     H1A      HDA3B    0.800000E-01   1.00800           0   0.00000       0.00000    
     17465 MEOH     1159     MEOH     H1B      HDA3B    0.800000E-01   1.00800           0   0.00000       0.00000    
     17466 MEOH     1159     MEOH     H1C      HDA3B    0.800000E-01   1.00800           0   0.00000       0.00000    
     17467 MEOH     1159     MEOH     LP1A     LPD     -0.230000       0.00000          -1   0.00000       0.00000    
     17468 MEOH     1159     MEOH     LP1B     LPD     -0.230000       0.00000          -1   0.00000       0.00000    
     17469 MEOH     1160     MEOH     C1       CD33B     2.31410       11.6110           0  -1.00000       1.30000    
     17470 MEOH     1160     MEOH     DC1      DRUD     -2.45410      0.400000           0   0.00000       0.00000    
     17471 MEOH     1160     MEOH     O1       OD31H     2.48830       15.5990           0  -1.02800       1.30000    
     17472 MEOH     1160     MEOH     DO1      DRUD     -2.48830      0.400000           0   0.00000       0.00000    
     17473 MEOH     1160     MEOH     HO1      HDP1A    0.360000       1.00800           0   0.00000       0.00000    
     17474 MEOH     1160     MEOH     HO2      DUMH      0.00000       1.00800           0   0.00000       0.00000    
     17475 MEOH     1160     MEOH     H1A      HDA3B    0.800000E-01   1.00800           0   0.00000       0.00000    
     17476 MEOH     1160     MEOH     H1B      HDA3B    0.800000E-01   1.00800           0   0.00000       0.00000    
     17477 MEOH     1160     MEOH     H1C      HDA3B    0.800000E-01   1.00800           0   0.00000       0.00000    
     17478 MEOH     1160     MEOH     LP1A     LPD     -0.230000       0.00000          -1   0.00000       0.00000    
     17479 MEOH     1160     MEOH     LP1B     LPD     -0.230000       0.00000          -1   0.00000       0.00000    
     17480 MEOH     1161     MEOH     C1       CD33B     2.31410       11.6110           0  -1.00000       1.30000    
     17481 MEOH     1161     MEOH     DC1      DRUD     -2.45410      0.400000           0   0.00000       0.00000    
     17482 MEOH     1161     MEOH     O1       OD31H     2.48830       15.5990           0  -1.02800       1.30000    
     17483 MEOH     1161     MEOH     DO1      DRUD     -2.48830      0.400000           0   0.00000       0.00000    
     17484 MEOH     1161     MEOH     HO1      HDP1A    0.360000       1.00800           0   0.00000       0.00000    
     17485 MEOH     1161     MEOH     HO2      DUMH      0.00000       1.00800           0   0.00000       0.00000    
     17486 MEOH     1161     MEOH     H1A      HDA3B    0.800000E-01   1.00800           0   0.00000       0.00000    
     17487 MEOH     1161     MEOH     H1B      HDA3B    0.800000E-01   1.00800           0   0.00000       0.00000    
     17488 MEOH     1161     MEOH     H1C      HDA3B    0.800000E-01   1.00800           0   0.00000       0.00000    
     17489 MEOH     1161     MEOH     LP1A     LPD     -0.230000       0.00000          -1   0.00000       0.00000    
     17490 MEOH     1161     MEOH     LP1B     LPD     -0.230000       0.00000          -1   0.00000       0.00000    
     17491 MEOH     1162     MEOH     C1       CD33B     2.31410       11.6110           0  -1.00000       1.30000    
     17492 MEOH     1162     MEOH     DC1      DRUD     -2.45410      0.400000           0   0.00000       0.00000    
     17493 MEOH     1162     MEOH     O1       OD31H     2.48830       15.5990           0  -1.02800       1.30000    
     17494 MEOH     1162     MEOH     DO1      DRUD     -2.48830      0.400000           0   0.00000       0.00000    
     17495 MEOH     1162     MEOH     HO1      HDP1A    0.360000       1.00800           0   0.00000       0.00000    
     17496 MEOH     1162     MEOH     HO2      DUMH      0.00000       1.00800           0   0.00000       0.00000    
     17497 MEOH     1162     MEOH     H1A      HDA3B    0.800000E-01   1.00800           0   0.00000       0.00000    
     17498 MEOH     1162     MEOH     H1B      HDA3B    0.800000E-01   1.00800           0   0.00000       0.00000    
     17499 MEOH     1162     MEOH     H1C      HDA3B    0.800000E-01   1.00800           0   0.00000       0.00000    
     17500 MEOH     1162     MEOH     LP1A     LPD     -0.230000       0.00000          -1   0.00000       0.00000    
     17501 MEOH     1162     MEOH     LP1B     LPD     -0.230000       0.00000          -1   0.00000       0.00000    
     17502 MEOH     1163     MEOH     C1       CD33B     2.31410       11.6110           0  -1.00000       1.30000    
     17503 MEOH     1163     MEOH     DC1      DRUD     -2.45410      0.400000           0   0.00000       0.00000    
     17504 MEOH     1163     MEOH     O1       OD31H     2.48830       15.5990           0  -1.02800       1.30000    
     17505 MEOH     1163     MEOH     DO1      DRUD     -2.48830      0.400000           0   0.00000       0.00000    
     17506 MEOH     1163     MEOH     HO1      HDP1A    0.360000       1.00800           0   0.00000       0.00000    
     17507 MEOH     1163     MEOH     HO2      DUMH      0.00000       1.00800           0   0.00000       0.00000    
     17508 MEOH     1163     MEOH     H1A      HDA3B    0.800000E-01   1.00800           0   0.00000       0.00000    
     17509 MEOH     1163     MEOH     H1B      HDA3B    0.800000E-01   1.00800           0   0.00000       0.00000    
     17510 MEOH     1163     MEOH     H1C      HDA3B    0.800000E-01   1.00800           0   0.00000       0.00000    
     17511 MEOH     1163     MEOH     LP1A     LPD     -0.230000       0.00000          -1   0.00000       0.00000    
     17512 MEOH     1163     MEOH     LP1B     LPD     -0.230000       0.00000          -1   0.00000       0.00000    
     17513 MEOH     1164     MEOH     C1       CD33B     2.31410       11.6110           0  -1.00000       1.30000    
     17514 MEOH     1164     MEOH     DC1      DRUD     -2.45410      0.400000           0   0.00000       0.00000    
     17515 MEOH     1164     MEOH     O1       OD31H     2.48830       15.5990           0  -1.02800       1.30000    
     17516 MEOH     1164     MEOH     DO1      DRUD     -2.48830      0.400000           0   0.00000       0.00000    
     17517 MEOH     1164     MEOH     HO1      HDP1A    0.360000       1.00800           0   0.00000       0.00000    
     17518 MEOH     1164     MEOH     HO2      DUMH      0.00000       1.00800           0   0.00000       0.00000    
     17519 MEOH     1164     MEOH     H1A      HDA3B    0.800000E-01   1.00800           0   0.00000       0.00000    
     17520 MEOH     1164     MEOH     H1B      HDA3B    0.800000E-01   1.00800           0   0.00000       0.00000    
     17521 MEOH     1164     MEOH     H1C      HDA3B    0.800000E-01   1.00800           0   0.00000       0.00000    
     17522 MEOH     1164     MEOH     LP1A     LPD     -0.230000       0.00000          -1   0.00000       0.00000    
     17523 MEOH     1164     MEOH     LP1B     LPD     -0.230000       0.00000          -1   0.00000       0.00000    
     17524 MEOH     1165     MEOH     C1       CD33B     2.31410       11.6110           0  -1.00000       1.30000    
     17525 MEOH     1165     MEOH     DC1      DRUD     -2.45410      0.400000           0   0.00000       0.00000    
     17526 MEOH     1165     MEOH     O1       OD31H     2.48830       15.5990           0  -1.02800       1.30000    
     17527 MEOH     1165     MEOH     DO1      DRUD     -2.48830      0.400000           0   0.00000       0.00000    
     17528 MEOH     1165     MEOH     HO1      HDP1A    0.360000       1.00800           0   0.00000       0.00000    
     17529 MEOH     1165     MEOH     HO2      DUMH      0.00000       1.00800           0   0.00000       0.00000    
     17530 MEOH     1165     MEOH     H1A      HDA3B    0.800000E-01   1.00800           0   0.00000       0.00000    
     17531 MEOH     1165     MEOH     H1B      HDA3B    0.800000E-01   1.00800           0   0.00000       0.00000    
     17532 MEOH     1165     MEOH     H1C      HDA3B    0.800000E-01   1.00800           0   0.00000       0.00000    
     17533 MEOH     1165     MEOH     LP1A     LPD     -0.230000       0.00000          -1   0.00000       0.00000    
     17534 MEOH     1165     MEOH     LP1B     LPD     -0.230000       0.00000          -1   0.00000       0.00000    
     17535 MEOH     1166     MEOH     C1       CD33B     2.31410       11.6110           0  -1.00000       1.30000    
     17536 MEOH     1166     MEOH     DC1      DRUD     -2.45410      0.400000           0   0.00000       0.00000    
     17537 MEOH     1166     MEOH     O1       OD31H     2.48830       15.5990           0  -1.02800       1.30000    
     17538 MEOH     1166     MEOH     DO1      DRUD     -2.48830      0.400000           0   0.00000       0.00000    
     17539 MEOH     1166     MEOH     HO1      HDP1A    0.360000       1.00800           0   0.00000       0.00000    
     17540 MEOH     1166     MEOH     HO2      DUMH      0.00000       1.00800           0   0.00000       0.00000    
     17541 MEOH     1166     MEOH     H1A      HDA3B    0.800000E-01   1.00800           0   0.00000       0.00000    
     17542 MEOH     1166     MEOH     H1B      HDA3B    0.800000E-01   1.00800           0   0.00000       0.00000    
     17543 MEOH     1166     MEOH     H1C      HDA3B    0.800000E-01   1.00800           0   0.00000       0.00000    
     17544 MEOH     1166     MEOH     LP1A     LPD     -0.230000       0.00000          -1   0.00000       0.00000    
     17545 MEOH     1166     MEOH     LP1B     LPD     -0.230000       0.00000          -1   0.00000       0.00000    
     17546 MEOH     1167     MEOH     C1       CD33B     2.31410       11.6110           0  -1.00000       1.30000    
     17547 MEOH     1167     MEOH     DC1      DRUD     -2.45410      0.400000           0   0.00000       0.00000    
     17548 MEOH     1167     MEOH     O1       OD31H     2.48830       15.5990           0  -1.02800       1.30000    
     17549 MEOH     1167     MEOH     DO1      DRUD     -2.48830      0.400000           0   0.00000       0.00000    
     17550 MEOH     1167     MEOH     HO1      HDP1A    0.360000       1.00800           0   0.00000       0.00000    
     17551 MEOH     1167     MEOH     HO2      DUMH      0.00000       1.00800           0   0.00000       0.00000    
     17552 MEOH     1167     MEOH     H1A      HDA3B    0.800000E-01   1.00800           0   0.00000       0.00000    
     17553 MEOH     1167     MEOH     H1B      HDA3B    0.800000E-01   1.00800           0   0.00000       0.00000    
     17554 MEOH     1167     MEOH     H1C      HDA3B    0.800000E-01   1.00800           0   0.00000       0.00000    
     17555 MEOH     1167     MEOH     LP1A     LPD     -0.230000       0.00000          -1   0.00000       0.00000    
     17556 MEOH     1167     MEOH     LP1B     LPD     -0.230000       0.00000          -1   0.00000       0.00000    
     17557 MEOH     1168     MEOH     C1       CD33B     2.31410       11.6110           0  -1.00000       1.30000    
     17558 MEOH     1168     MEOH     DC1      DRUD     -2.45410      0.400000           0   0.00000       0.00000    
     17559 MEOH     1168     MEOH     O1       OD31H     2.48830       15.5990           0  -1.02800       1.30000    
     17560 MEOH     1168     MEOH     DO1      DRUD     -2.48830      0.400000           0   0.00000       0.00000    
     17561 MEOH     1168     MEOH     HO1      HDP1A    0.360000       1.00800           0   0.00000       0.00000    
     17562 MEOH     1168     MEOH     HO2      DUMH      0.00000       1.00800           0   0.00000       0.00000    
     17563 MEOH     1168     MEOH     H1A      HDA3B    0.800000E-01   1.00800           0   0.00000       0.00000    
     17564 MEOH     1168     MEOH     H1B      HDA3B    0.800000E-01   1.00800           0   0.00000       0.00000    
     17565 MEOH     1168     MEOH     H1C      HDA3B    0.800000E-01   1.00800           0   0.00000       0.00000    
     17566 MEOH     1168     MEOH     LP1A     LPD     -0.230000       0.00000          -1   0.00000       0.00000    
     17567 MEOH     1168     MEOH     LP1B     LPD     -0.230000       0.00000          -1   0.00000       0.00000    
     17568 MEOH     1169     MEOH     C1       CD33B     2.31410       11.6110           0  -1.00000       1.30000    
     17569 MEOH     1169     MEOH     DC1      DRUD     -2.45410      0.400000           0   0.00000       0.00000    
     17570 MEOH     1169     MEOH     O1       OD31H     2.48830       15.5990           0  -1.02800       1.30000    
     17571 MEOH     1169     MEOH     DO1      DRUD     -2.48830      0.400000           0   0.00000       0.00000    
     17572 MEOH     1169     MEOH     HO1      HDP1A    0.360000       1.00800           0   0.00000       0.00000    
     17573 MEOH     1169     MEOH     HO2      DUMH      0.00000       1.00800           0   0.00000       0.00000    
     17574 MEOH     1169     MEOH     H1A      HDA3B    0.800000E-01   1.00800           0   0.00000       0.00000    
     17575 MEOH     1169     MEOH     H1B      HDA3B    0.800000E-01   1.00800           0   0.00000       0.00000    
     17576 MEOH     1169     MEOH     H1C      HDA3B    0.800000E-01   1.00800           0   0.00000       0.00000    
     17577 MEOH     1169     MEOH     LP1A     LPD     -0.230000       0.00000          -1   0.00000       0.00000    
     17578 MEOH     1169     MEOH     LP1B     LPD     -0.230000       0.00000          -1   0.00000       0.00000    
     17579 MEOH     1170     MEOH     C1       CD33B     2.31410       11.6110           0  -1.00000       1.30000    
     17580 MEOH     1170     MEOH     DC1      DRUD     -2.45410      0.400000           0   0.00000       0.00000    
     17581 MEOH     1170     MEOH     O1       OD31H     2.48830       15.5990           0  -1.02800       1.30000    
     17582 MEOH     1170     MEOH     DO1      DRUD     -2.48830      0.400000           0   0.00000       0.00000    
     17583 MEOH     1170     MEOH     HO1      HDP1A    0.360000       1.00800           0   0.00000       0.00000    
     17584 MEOH     1170     MEOH     HO2      DUMH      0.00000       1.00800           0   0.00000       0.00000    
     17585 MEOH     1170     MEOH     H1A      HDA3B    0.800000E-01   1.00800           0   0.00000       0.00000    
     17586 MEOH     1170     MEOH     H1B      HDA3B    0.800000E-01   1.00800           0   0.00000       0.00000    
     17587 MEOH     1170     MEOH     H1C      HDA3B    0.800000E-01   1.00800           0   0.00000       0.00000    
     17588 MEOH     1170     MEOH     LP1A     LPD     -0.230000       0.00000          -1   0.00000       0.00000    
     17589 MEOH     1170     MEOH     LP1B     LPD     -0.230000       0.00000          -1   0.00000       0.00000    
     17590 MEOH     1171     MEOH     C1       CD33B     2.31410       11.6110           0  -1.00000       1.30000    
     17591 MEOH     1171     MEOH     DC1      DRUD     -2.45410      0.400000           0   0.00000       0.00000    
     17592 MEOH     1171     MEOH     O1       OD31H     2.48830       15.5990           0  -1.02800       1.30000    
     17593 MEOH     1171     MEOH     DO1      DRUD     -2.48830      0.400000           0   0.00000       0.00000    
     17594 MEOH     1171     MEOH     HO1      HDP1A    0.360000       1.00800           0   0.00000       0.00000    
     17595 MEOH     1171     MEOH     HO2      DUMH      0.00000       1.00800           0   0.00000       0.00000    
     17596 MEOH     1171     MEOH     H1A      HDA3B    0.800000E-01   1.00800           0   0.00000       0.00000    
     17597 MEOH     1171     MEOH     H1B      HDA3B    0.800000E-01   1.00800           0   0.00000       0.00000    
     17598 MEOH     1171     MEOH     H1C      HDA3B    0.800000E-01   1.00800           0   0.00000       0.00000    
     17599 MEOH     1171     MEOH     LP1A     LPD     -0.230000       0.00000          -1   0.00000       0.00000    
     17600 MEOH     1171     MEOH     LP1B     LPD     -0.230000       0.00000          -1   0.00000       0.00000    
     17601 MEOH     1172     MEOH     C1       CD33B     2.31410       11.6110           0  -1.00000       1.30000    
     17602 MEOH     1172     MEOH     DC1      DRUD     -2.45410      0.400000           0   0.00000       0.00000    
     17603 MEOH     1172     MEOH     O1       OD31H     2.48830       15.5990           0  -1.02800       1.30000    
     17604 MEOH     1172     MEOH     DO1      DRUD     -2.48830      0.400000           0   0.00000       0.00000    
     17605 MEOH     1172     MEOH     HO1      HDP1A    0.360000       1.00800           0   0.00000       0.00000    
     17606 MEOH     1172     MEOH     HO2      DUMH      0.00000       1.00800           0   0.00000       0.00000    
     17607 MEOH     1172     MEOH     H1A      HDA3B    0.800000E-01   1.00800           0   0.00000       0.00000    
     17608 MEOH     1172     MEOH     H1B      HDA3B    0.800000E-01   1.00800           0   0.00000       0.00000    
     17609 MEOH     1172     MEOH     H1C      HDA3B    0.800000E-01   1.00800           0   0.00000       0.00000    
     17610 MEOH     1172     MEOH     LP1A     LPD     -0.230000       0.00000          -1   0.00000       0.00000    
     17611 MEOH     1172     MEOH     LP1B     LPD     -0.230000       0.00000          -1   0.00000       0.00000    
     17612 MEOH     1173     MEOH     C1       CD33B     2.31410       11.6110           0  -1.00000       1.30000    
     17613 MEOH     1173     MEOH     DC1      DRUD     -2.45410      0.400000           0   0.00000       0.00000    
     17614 MEOH     1173     MEOH     O1       OD31H     2.48830       15.5990           0  -1.02800       1.30000    
     17615 MEOH     1173     MEOH     DO1      DRUD     -2.48830      0.400000           0   0.00000       0.00000    
     17616 MEOH     1173     MEOH     HO1      HDP1A    0.360000       1.00800           0   0.00000       0.00000    
     17617 MEOH     1173     MEOH     HO2      DUMH      0.00000       1.00800           0   0.00000       0.00000    
     17618 MEOH     1173     MEOH     H1A      HDA3B    0.800000E-01   1.00800           0   0.00000       0.00000    
     17619 MEOH     1173     MEOH     H1B      HDA3B    0.800000E-01   1.00800           0   0.00000       0.00000    
     17620 MEOH     1173     MEOH     H1C      HDA3B    0.800000E-01   1.00800           0   0.00000       0.00000    
     17621 MEOH     1173     MEOH     LP1A     LPD     -0.230000       0.00000          -1   0.00000       0.00000    
     17622 MEOH     1173     MEOH     LP1B     LPD     -0.230000       0.00000          -1   0.00000       0.00000    
     17623 MEOH     1174     MEOH     C1       CD33B     2.31410       11.6110           0  -1.00000       1.30000    
     17624 MEOH     1174     MEOH     DC1      DRUD     -2.45410      0.400000           0   0.00000       0.00000    
     17625 MEOH     1174     MEOH     O1       OD31H     2.48830       15.5990           0  -1.02800       1.30000    
     17626 MEOH     1174     MEOH     DO1      DRUD     -2.48830      0.400000           0   0.00000       0.00000    
     17627 MEOH     1174     MEOH     HO1      HDP1A    0.360000       1.00800           0   0.00000       0.00000    
     17628 MEOH     1174     MEOH     HO2      DUMH      0.00000       1.00800           0   0.00000       0.00000    
     17629 MEOH     1174     MEOH     H1A      HDA3B    0.800000E-01   1.00800           0   0.00000       0.00000    
     17630 MEOH     1174     MEOH     H1B      HDA3B    0.800000E-01   1.00800           0   0.00000       0.00000    
     17631 MEOH     1174     MEOH     H1C      HDA3B    0.800000E-01   1.00800           0   0.00000       0.00000    
     17632 MEOH     1174     MEOH     LP1A     LPD     -0.230000       0.00000          -1   0.00000       0.00000    
     17633 MEOH     1174     MEOH     LP1B     LPD     -0.230000       0.00000          -1   0.00000       0.00000    
     17634 MEOH     1175     MEOH     C1       CD33B     2.31410       11.6110           0  -1.00000       1.30000    
     17635 MEOH     1175     MEOH     DC1      DRUD     -2.45410      0.400000           0   0.00000       0.00000    
     17636 MEOH     1175     MEOH     O1       OD31H     2.48830       15.5990           0  -1.02800       1.30000    
     17637 MEOH     1175     MEOH     DO1      DRUD     -2.48830      0.400000           0   0.00000       0.00000    
     17638 MEOH     1175     MEOH     HO1      HDP1A    0.360000       1.00800           0   0.00000       0.00000    
     17639 MEOH     1175     MEOH     HO2      DUMH      0.00000       1.00800           0   0.00000       0.00000    
     17640 MEOH     1175     MEOH     H1A      HDA3B    0.800000E-01   1.00800           0   0.00000       0.00000    
     17641 MEOH     1175     MEOH     H1B      HDA3B    0.800000E-01   1.00800           0   0.00000       0.00000    
     17642 MEOH     1175     MEOH     H1C      HDA3B    0.800000E-01   1.00800           0   0.00000       0.00000    
     17643 MEOH     1175     MEOH     LP1A     LPD     -0.230000       0.00000          -1   0.00000       0.00000    
     17644 MEOH     1175     MEOH     LP1B     LPD     -0.230000       0.00000          -1   0.00000       0.00000    
     17645 MEOH     1176     MEOH     C1       CD33B     2.31410       11.6110           0  -1.00000       1.30000    
     17646 MEOH     1176     MEOH     DC1      DRUD     -2.45410      0.400000           0   0.00000       0.00000    
     17647 MEOH     1176     MEOH     O1       OD31H     2.48830       15.5990           0  -1.02800       1.30000    
     17648 MEOH     1176     MEOH     DO1      DRUD     -2.48830      0.400000           0   0.00000       0.00000    
     17649 MEOH     1176     MEOH     HO1      HDP1A    0.360000       1.00800           0   0.00000       0.00000    
     17650 MEOH     1176     MEOH     HO2      DUMH      0.00000       1.00800           0   0.00000       0.00000    
     17651 MEOH     1176     MEOH     H1A      HDA3B    0.800000E-01   1.00800           0   0.00000       0.00000    
     17652 MEOH     1176     MEOH     H1B      HDA3B    0.800000E-01   1.00800           0   0.00000       0.00000    
     17653 MEOH     1176     MEOH     H1C      HDA3B    0.800000E-01   1.00800           0   0.00000       0.00000    
     17654 MEOH     1176     MEOH     LP1A     LPD     -0.230000       0.00000          -1   0.00000       0.00000    
     17655 MEOH     1176     MEOH     LP1B     LPD     -0.230000       0.00000          -1   0.00000       0.00000    
     17656 MEOH     1177     MEOH     C1       CD33B     2.31410       11.6110           0  -1.00000       1.30000    
     17657 MEOH     1177     MEOH     DC1      DRUD     -2.45410      0.400000           0   0.00000       0.00000    
     17658 MEOH     1177     MEOH     O1       OD31H     2.48830       15.5990           0  -1.02800       1.30000    
     17659 MEOH     1177     MEOH     DO1      DRUD     -2.48830      0.400000           0   0.00000       0.00000    
     17660 MEOH     1177     MEOH     HO1      HDP1A    0.360000       1.00800           0   0.00000       0.00000    
     17661 MEOH     1177     MEOH     HO2      DUMH      0.00000       1.00800           0   0.00000       0.00000    
     17662 MEOH     1177     MEOH     H1A      HDA3B    0.800000E-01   1.00800           0   0.00000       0.00000    
     17663 MEOH     1177     MEOH     H1B      HDA3B    0.800000E-01   1.00800           0   0.00000       0.00000    
     17664 MEOH     1177     MEOH     H1C      HDA3B    0.800000E-01   1.00800           0   0.00000       0.00000    
     17665 MEOH     1177     MEOH     LP1A     LPD     -0.230000       0.00000          -1   0.00000       0.00000    
     17666 MEOH     1177     MEOH     LP1B     LPD     -0.230000       0.00000          -1   0.00000       0.00000    
     17667 MEOH     1178     MEOH     C1       CD33B     2.31410       11.6110           0  -1.00000       1.30000    
     17668 MEOH     1178     MEOH     DC1      DRUD     -2.45410      0.400000           0   0.00000       0.00000    
     17669 MEOH     1178     MEOH     O1       OD31H     2.48830       15.5990           0  -1.02800       1.30000    
     17670 MEOH     1178     MEOH     DO1      DRUD     -2.48830      0.400000           0   0.00000       0.00000    
     17671 MEOH     1178     MEOH     HO1      HDP1A    0.360000       1.00800           0   0.00000       0.00000    
     17672 MEOH     1178     MEOH     HO2      DUMH      0.00000       1.00800           0   0.00000       0.00000    
     17673 MEOH     1178     MEOH     H1A      HDA3B    0.800000E-01   1.00800           0   0.00000       0.00000    
     17674 MEOH     1178     MEOH     H1B      HDA3B    0.800000E-01   1.00800           0   0.00000       0.00000    
     17675 MEOH     1178     MEOH     H1C      HDA3B    0.800000E-01   1.00800           0   0.00000       0.00000    
     17676 MEOH     1178     MEOH     LP1A     LPD     -0.230000       0.00000          -1   0.00000       0.00000    
     17677 MEOH     1178     MEOH     LP1B     LPD     -0.230000       0.00000          -1   0.00000       0.00000    
     17678 MEOH     1179     MEOH     C1       CD33B     2.31410       11.6110           0  -1.00000       1.30000    
     17679 MEOH     1179     MEOH     DC1      DRUD     -2.45410      0.400000           0   0.00000       0.00000    
     17680 MEOH     1179     MEOH     O1       OD31H     2.48830       15.5990           0  -1.02800       1.30000    
     17681 MEOH     1179     MEOH     DO1      DRUD     -2.48830      0.400000           0   0.00000       0.00000    
     17682 MEOH     1179     MEOH     HO1      HDP1A    0.360000       1.00800           0   0.00000       0.00000    
     17683 MEOH     1179     MEOH     HO2      DUMH      0.00000       1.00800           0   0.00000       0.00000    
     17684 MEOH     1179     MEOH     H1A      HDA3B    0.800000E-01   1.00800           0   0.00000       0.00000    
     17685 MEOH     1179     MEOH     H1B      HDA3B    0.800000E-01   1.00800           0   0.00000       0.00000    
     17686 MEOH     1179     MEOH     H1C      HDA3B    0.800000E-01   1.00800           0   0.00000       0.00000    
     17687 MEOH     1179     MEOH     LP1A     LPD     -0.230000       0.00000          -1   0.00000       0.00000    
     17688 MEOH     1179     MEOH     LP1B     LPD     -0.230000       0.00000          -1   0.00000       0.00000    
     17689 MEOH     1180     MEOH     C1       CD33B     2.31410       11.6110           0  -1.00000       1.30000    
     17690 MEOH     1180     MEOH     DC1      DRUD     -2.45410      0.400000           0   0.00000       0.00000    
     17691 MEOH     1180     MEOH     O1       OD31H     2.48830       15.5990           0  -1.02800       1.30000    
     17692 MEOH     1180     MEOH     DO1      DRUD     -2.48830      0.400000           0   0.00000       0.00000    
     17693 MEOH     1180     MEOH     HO1      HDP1A    0.360000       1.00800           0   0.00000       0.00000    
     17694 MEOH     1180     MEOH     HO2      DUMH      0.00000       1.00800           0   0.00000       0.00000    
     17695 MEOH     1180     MEOH     H1A      HDA3B    0.800000E-01   1.00800           0   0.00000       0.00000    
     17696 MEOH     1180     MEOH     H1B      HDA3B    0.800000E-01   1.00800           0   0.00000       0.00000    
     17697 MEOH     1180     MEOH     H1C      HDA3B    0.800000E-01   1.00800           0   0.00000       0.00000    
     17698 MEOH     1180     MEOH     LP1A     LPD     -0.230000       0.00000          -1   0.00000       0.00000    
     17699 MEOH     1180     MEOH     LP1B     LPD     -0.230000       0.00000          -1   0.00000       0.00000    
     17700 MEOH     1181     MEOH     C1       CD33B     2.31410       11.6110           0  -1.00000       1.30000    
     17701 MEOH     1181     MEOH     DC1      DRUD     -2.45410      0.400000           0   0.00000       0.00000    
     17702 MEOH     1181     MEOH     O1       OD31H     2.48830       15.5990           0  -1.02800       1.30000    
     17703 MEOH     1181     MEOH     DO1      DRUD     -2.48830      0.400000           0   0.00000       0.00000    
     17704 MEOH     1181     MEOH     HO1      HDP1A    0.360000       1.00800           0   0.00000       0.00000    
     17705 MEOH     1181     MEOH     HO2      DUMH      0.00000       1.00800           0   0.00000       0.00000    
     17706 MEOH     1181     MEOH     H1A      HDA3B    0.800000E-01   1.00800           0   0.00000       0.00000    
     17707 MEOH     1181     MEOH     H1B      HDA3B    0.800000E-01   1.00800           0   0.00000       0.00000    
     17708 MEOH     1181     MEOH     H1C      HDA3B    0.800000E-01   1.00800           0   0.00000       0.00000    
     17709 MEOH     1181     MEOH     LP1A     LPD     -0.230000       0.00000          -1   0.00000       0.00000    
     17710 MEOH     1181     MEOH     LP1B     LPD     -0.230000       0.00000          -1   0.00000       0.00000    
     17711 MEOH     1182     MEOH     C1       CD33B     2.31410       11.6110           0  -1.00000       1.30000    
     17712 MEOH     1182     MEOH     DC1      DRUD     -2.45410      0.400000           0   0.00000       0.00000    
     17713 MEOH     1182     MEOH     O1       OD31H     2.48830       15.5990           0  -1.02800       1.30000    
     17714 MEOH     1182     MEOH     DO1      DRUD     -2.48830      0.400000           0   0.00000       0.00000    
     17715 MEOH     1182     MEOH     HO1      HDP1A    0.360000       1.00800           0   0.00000       0.00000    
     17716 MEOH     1182     MEOH     HO2      DUMH      0.00000       1.00800           0   0.00000       0.00000    
     17717 MEOH     1182     MEOH     H1A      HDA3B    0.800000E-01   1.00800           0   0.00000       0.00000    
     17718 MEOH     1182     MEOH     H1B      HDA3B    0.800000E-01   1.00800           0   0.00000       0.00000    
     17719 MEOH     1182     MEOH     H1C      HDA3B    0.800000E-01   1.00800           0   0.00000       0.00000    
     17720 MEOH     1182     MEOH     LP1A     LPD     -0.230000       0.00000          -1   0.00000       0.00000    
     17721 MEOH     1182     MEOH     LP1B     LPD     -0.230000       0.00000          -1   0.00000       0.00000    
     17722 MEOH     1183     MEOH     C1       CD33B     2.31410       11.6110           0  -1.00000       1.30000    
     17723 MEOH     1183     MEOH     DC1      DRUD     -2.45410      0.400000           0   0.00000       0.00000    
     17724 MEOH     1183     MEOH     O1       OD31H     2.48830       15.5990           0  -1.02800       1.30000    
     17725 MEOH     1183     MEOH     DO1      DRUD     -2.48830      0.400000           0   0.00000       0.00000    
     17726 MEOH     1183     MEOH     HO1      HDP1A    0.360000       1.00800           0   0.00000       0.00000    
     17727 MEOH     1183     MEOH     HO2      DUMH      0.00000       1.00800           0   0.00000       0.00000    
     17728 MEOH     1183     MEOH     H1A      HDA3B    0.800000E-01   1.00800           0   0.00000       0.00000    
     17729 MEOH     1183     MEOH     H1B      HDA3B    0.800000E-01   1.00800           0   0.00000       0.00000    
     17730 MEOH     1183     MEOH     H1C      HDA3B    0.800000E-01   1.00800           0   0.00000       0.00000    
     17731 MEOH     1183     MEOH     LP1A     LPD     -0.230000       0.00000          -1   0.00000       0.00000    
     17732 MEOH     1183     MEOH     LP1B     LPD     -0.230000       0.00000          -1   0.00000       0.00000    
     17733 MEOH     1184     MEOH     C1       CD33B     2.31410       11.6110           0  -1.00000       1.30000    
     17734 MEOH     1184     MEOH     DC1      DRUD     -2.45410      0.400000           0   0.00000       0.00000    
     17735 MEOH     1184     MEOH     O1       OD31H     2.48830       15.5990           0  -1.02800       1.30000    
     17736 MEOH     1184     MEOH     DO1      DRUD     -2.48830      0.400000           0   0.00000       0.00000    
     17737 MEOH     1184     MEOH     HO1      HDP1A    0.360000       1.00800           0   0.00000       0.00000    
     17738 MEOH     1184     MEOH     HO2      DUMH      0.00000       1.00800           0   0.00000       0.00000    
     17739 MEOH     1184     MEOH     H1A      HDA3B    0.800000E-01   1.00800           0   0.00000       0.00000    
     17740 MEOH     1184     MEOH     H1B      HDA3B    0.800000E-01   1.00800           0   0.00000       0.00000    
     17741 MEOH     1184     MEOH     H1C      HDA3B    0.800000E-01   1.00800           0   0.00000       0.00000    
     17742 MEOH     1184     MEOH     LP1A     LPD     -0.230000       0.00000          -1   0.00000       0.00000    
     17743 MEOH     1184     MEOH     LP1B     LPD     -0.230000       0.00000          -1   0.00000       0.00000    
     17744 MEOH     1185     MEOH     C1       CD33B     2.31410       11.6110           0  -1.00000       1.30000    
     17745 MEOH     1185     MEOH     DC1      DRUD     -2.45410      0.400000           0   0.00000       0.00000    
     17746 MEOH     1185     MEOH     O1       OD31H     2.48830       15.5990           0  -1.02800       1.30000    
     17747 MEOH     1185     MEOH     DO1      DRUD     -2.48830      0.400000           0   0.00000       0.00000    
     17748 MEOH     1185     MEOH     HO1      HDP1A    0.360000       1.00800           0   0.00000       0.00000    
     17749 MEOH     1185     MEOH     HO2      DUMH      0.00000       1.00800           0   0.00000       0.00000    
     17750 MEOH     1185     MEOH     H1A      HDA3B    0.800000E-01   1.00800           0   0.00000       0.00000    
     17751 MEOH     1185     MEOH     H1B      HDA3B    0.800000E-01   1.00800           0   0.00000       0.00000    
     17752 MEOH     1185     MEOH     H1C      HDA3B    0.800000E-01   1.00800           0   0.00000       0.00000    
     17753 MEOH     1185     MEOH     LP1A     LPD     -0.230000       0.00000          -1   0.00000       0.00000    
     17754 MEOH     1185     MEOH     LP1B     LPD     -0.230000       0.00000          -1   0.00000       0.00000    
     17755 MEOH     1186     MEOH     C1       CD33B     2.31410       11.6110           0  -1.00000       1.30000    
     17756 MEOH     1186     MEOH     DC1      DRUD     -2.45410      0.400000           0   0.00000       0.00000    
     17757 MEOH     1186     MEOH     O1       OD31H     2.48830       15.5990           0  -1.02800       1.30000    
     17758 MEOH     1186     MEOH     DO1      DRUD     -2.48830      0.400000           0   0.00000       0.00000    
     17759 MEOH     1186     MEOH     HO1      HDP1A    0.360000       1.00800           0   0.00000       0.00000    
     17760 MEOH     1186     MEOH     HO2      DUMH      0.00000       1.00800           0   0.00000       0.00000    
     17761 MEOH     1186     MEOH     H1A      HDA3B    0.800000E-01   1.00800           0   0.00000       0.00000    
     17762 MEOH     1186     MEOH     H1B      HDA3B    0.800000E-01   1.00800           0   0.00000       0.00000    
     17763 MEOH     1186     MEOH     H1C      HDA3B    0.800000E-01   1.00800           0   0.00000       0.00000    
     17764 MEOH     1186     MEOH     LP1A     LPD     -0.230000       0.00000          -1   0.00000       0.00000    
     17765 MEOH     1186     MEOH     LP1B     LPD     -0.230000       0.00000          -1   0.00000       0.00000    
     17766 MEOH     1187     MEOH     C1       CD33B     2.31410       11.6110           0  -1.00000       1.30000    
     17767 MEOH     1187     MEOH     DC1      DRUD     -2.45410      0.400000           0   0.00000       0.00000    
     17768 MEOH     1187     MEOH     O1       OD31H     2.48830       15.5990           0  -1.02800       1.30000    
     17769 MEOH     1187     MEOH     DO1      DRUD     -2.48830      0.400000           0   0.00000       0.00000    
     17770 MEOH     1187     MEOH     HO1      HDP1A    0.360000       1.00800           0   0.00000       0.00000    
     17771 MEOH     1187     MEOH     HO2      DUMH      0.00000       1.00800           0   0.00000       0.00000    
     17772 MEOH     1187     MEOH     H1A      HDA3B    0.800000E-01   1.00800           0   0.00000       0.00000    
     17773 MEOH     1187     MEOH     H1B      HDA3B    0.800000E-01   1.00800           0   0.00000       0.00000    
     17774 MEOH     1187     MEOH     H1C      HDA3B    0.800000E-01   1.00800           0   0.00000       0.00000    
     17775 MEOH     1187     MEOH     LP1A     LPD     -0.230000       0.00000          -1   0.00000       0.00000    
     17776 MEOH     1187     MEOH     LP1B     LPD     -0.230000       0.00000          -1   0.00000       0.00000    
     17777 MEOH     1188     MEOH     C1       CD33B     2.31410       11.6110           0  -1.00000       1.30000    
     17778 MEOH     1188     MEOH     DC1      DRUD     -2.45410      0.400000           0   0.00000       0.00000    
     17779 MEOH     1188     MEOH     O1       OD31H     2.48830       15.5990           0  -1.02800       1.30000    
     17780 MEOH     1188     MEOH     DO1      DRUD     -2.48830      0.400000           0   0.00000       0.00000    
     17781 MEOH     1188     MEOH     HO1      HDP1A    0.360000       1.00800           0   0.00000       0.00000    
     17782 MEOH     1188     MEOH     HO2      DUMH      0.00000       1.00800           0   0.00000       0.00000    
     17783 MEOH     1188     MEOH     H1A      HDA3B    0.800000E-01   1.00800           0   0.00000       0.00000    
     17784 MEOH     1188     MEOH     H1B      HDA3B    0.800000E-01   1.00800           0   0.00000       0.00000    
     17785 MEOH     1188     MEOH     H1C      HDA3B    0.800000E-01   1.00800           0   0.00000       0.00000    
     17786 MEOH     1188     MEOH     LP1A     LPD     -0.230000       0.00000          -1   0.00000       0.00000    
     17787 MEOH     1188     MEOH     LP1B     LPD     -0.230000       0.00000          -1   0.00000       0.00000    
     17788 MEOH     1189     MEOH     C1       CD33B     2.31410       11.6110           0  -1.00000       1.30000    
     17789 MEOH     1189     MEOH     DC1      DRUD     -2.45410      0.400000           0   0.00000       0.00000    
     17790 MEOH     1189     MEOH     O1       OD31H     2.48830       15.5990           0  -1.02800       1.30000    
     17791 MEOH     1189     MEOH     DO1      DRUD     -2.48830      0.400000           0   0.00000       0.00000    
     17792 MEOH     1189     MEOH     HO1      HDP1A    0.360000       1.00800           0   0.00000       0.00000    
     17793 MEOH     1189     MEOH     HO2      DUMH      0.00000       1.00800           0   0.00000       0.00000    
     17794 MEOH     1189     MEOH     H1A      HDA3B    0.800000E-01   1.00800           0   0.00000       0.00000    
     17795 MEOH     1189     MEOH     H1B      HDA3B    0.800000E-01   1.00800           0   0.00000       0.00000    
     17796 MEOH     1189     MEOH     H1C      HDA3B    0.800000E-01   1.00800           0   0.00000       0.00000    
     17797 MEOH     1189     MEOH     LP1A     LPD     -0.230000       0.00000          -1   0.00000       0.00000    
     17798 MEOH     1189     MEOH     LP1B     LPD     -0.230000       0.00000          -1   0.00000       0.00000    
     17799 MEOH     1190     MEOH     C1       CD33B     2.31410       11.6110           0  -1.00000       1.30000    
     17800 MEOH     1190     MEOH     DC1      DRUD     -2.45410      0.400000           0   0.00000       0.00000    
     17801 MEOH     1190     MEOH     O1       OD31H     2.48830       15.5990           0  -1.02800       1.30000    
     17802 MEOH     1190     MEOH     DO1      DRUD     -2.48830      0.400000           0   0.00000       0.00000    
     17803 MEOH     1190     MEOH     HO1      HDP1A    0.360000       1.00800           0   0.00000       0.00000    
     17804 MEOH     1190     MEOH     HO2      DUMH      0.00000       1.00800           0   0.00000       0.00000    
     17805 MEOH     1190     MEOH     H1A      HDA3B    0.800000E-01   1.00800           0   0.00000       0.00000    
     17806 MEOH     1190     MEOH     H1B      HDA3B    0.800000E-01   1.00800           0   0.00000       0.00000    
     17807 MEOH     1190     MEOH     H1C      HDA3B    0.800000E-01   1.00800           0   0.00000       0.00000    
     17808 MEOH     1190     MEOH     LP1A     LPD     -0.230000       0.00000          -1   0.00000       0.00000    
     17809 MEOH     1190     MEOH     LP1B     LPD     -0.230000       0.00000          -1   0.00000       0.00000    
     17810 MEOH     1191     MEOH     C1       CD33B     2.31410       11.6110           0  -1.00000       1.30000    
     17811 MEOH     1191     MEOH     DC1      DRUD     -2.45410      0.400000           0   0.00000       0.00000    
     17812 MEOH     1191     MEOH     O1       OD31H     2.48830       15.5990           0  -1.02800       1.30000    
     17813 MEOH     1191     MEOH     DO1      DRUD     -2.48830      0.400000           0   0.00000       0.00000    
     17814 MEOH     1191     MEOH     HO1      HDP1A    0.360000       1.00800           0   0.00000       0.00000    
     17815 MEOH     1191     MEOH     HO2      DUMH      0.00000       1.00800           0   0.00000       0.00000    
     17816 MEOH     1191     MEOH     H1A      HDA3B    0.800000E-01   1.00800           0   0.00000       0.00000    
     17817 MEOH     1191     MEOH     H1B      HDA3B    0.800000E-01   1.00800           0   0.00000       0.00000    
     17818 MEOH     1191     MEOH     H1C      HDA3B    0.800000E-01   1.00800           0   0.00000       0.00000    
     17819 MEOH     1191     MEOH     LP1A     LPD     -0.230000       0.00000          -1   0.00000       0.00000    
     17820 MEOH     1191     MEOH     LP1B     LPD     -0.230000       0.00000          -1   0.00000       0.00000    
     17821 MEOH     1192     MEOH     C1       CD33B     2.31410       11.6110           0  -1.00000       1.30000    
     17822 MEOH     1192     MEOH     DC1      DRUD     -2.45410      0.400000           0   0.00000       0.00000    
     17823 MEOH     1192     MEOH     O1       OD31H     2.48830       15.5990           0  -1.02800       1.30000    
     17824 MEOH     1192     MEOH     DO1      DRUD     -2.48830      0.400000           0   0.00000       0.00000    
     17825 MEOH     1192     MEOH     HO1      HDP1A    0.360000       1.00800           0   0.00000       0.00000    
     17826 MEOH     1192     MEOH     HO2      DUMH      0.00000       1.00800           0   0.00000       0.00000    
     17827 MEOH     1192     MEOH     H1A      HDA3B    0.800000E-01   1.00800           0   0.00000       0.00000    
     17828 MEOH     1192     MEOH     H1B      HDA3B    0.800000E-01   1.00800           0   0.00000       0.00000    
     17829 MEOH     1192     MEOH     H1C      HDA3B    0.800000E-01   1.00800           0   0.00000       0.00000    
     17830 MEOH     1192     MEOH     LP1A     LPD     -0.230000       0.00000          -1   0.00000       0.00000    
     17831 MEOH     1192     MEOH     LP1B     LPD     -0.230000       0.00000          -1   0.00000       0.00000    
     17832 MEOH     1193     MEOH     C1       CD33B     2.31410       11.6110           0  -1.00000       1.30000    
     17833 MEOH     1193     MEOH     DC1      DRUD     -2.45410      0.400000           0   0.00000       0.00000    
     17834 MEOH     1193     MEOH     O1       OD31H     2.48830       15.5990           0  -1.02800       1.30000    
     17835 MEOH     1193     MEOH     DO1      DRUD     -2.48830      0.400000           0   0.00000       0.00000    
     17836 MEOH     1193     MEOH     HO1      HDP1A    0.360000       1.00800           0   0.00000       0.00000    
     17837 MEOH     1193     MEOH     HO2      DUMH      0.00000       1.00800           0   0.00000       0.00000    
     17838 MEOH     1193     MEOH     H1A      HDA3B    0.800000E-01   1.00800           0   0.00000       0.00000    
     17839 MEOH     1193     MEOH     H1B      HDA3B    0.800000E-01   1.00800           0   0.00000       0.00000    
     17840 MEOH     1193     MEOH     H1C      HDA3B    0.800000E-01   1.00800           0   0.00000       0.00000    
     17841 MEOH     1193     MEOH     LP1A     LPD     -0.230000       0.00000          -1   0.00000       0.00000    
     17842 MEOH     1193     MEOH     LP1B     LPD     -0.230000       0.00000          -1   0.00000       0.00000    
     17843 MEOH     1194     MEOH     C1       CD33B     2.31410       11.6110           0  -1.00000       1.30000    
     17844 MEOH     1194     MEOH     DC1      DRUD     -2.45410      0.400000           0   0.00000       0.00000    
     17845 MEOH     1194     MEOH     O1       OD31H     2.48830       15.5990           0  -1.02800       1.30000    
     17846 MEOH     1194     MEOH     DO1      DRUD     -2.48830      0.400000           0   0.00000       0.00000    
     17847 MEOH     1194     MEOH     HO1      HDP1A    0.360000       1.00800           0   0.00000       0.00000    
     17848 MEOH     1194     MEOH     HO2      DUMH      0.00000       1.00800           0   0.00000       0.00000    
     17849 MEOH     1194     MEOH     H1A      HDA3B    0.800000E-01   1.00800           0   0.00000       0.00000    
     17850 MEOH     1194     MEOH     H1B      HDA3B    0.800000E-01   1.00800           0   0.00000       0.00000    
     17851 MEOH     1194     MEOH     H1C      HDA3B    0.800000E-01   1.00800           0   0.00000       0.00000    
     17852 MEOH     1194     MEOH     LP1A     LPD     -0.230000       0.00000          -1   0.00000       0.00000    
     17853 MEOH     1194     MEOH     LP1B     LPD     -0.230000       0.00000          -1   0.00000       0.00000    
     17854 MEOH     1195     MEOH     C1       CD33B     2.31410       11.6110           0  -1.00000       1.30000    
     17855 MEOH     1195     MEOH     DC1      DRUD     -2.45410      0.400000           0   0.00000       0.00000    
     17856 MEOH     1195     MEOH     O1       OD31H     2.48830       15.5990           0  -1.02800       1.30000    
     17857 MEOH     1195     MEOH     DO1      DRUD     -2.48830      0.400000           0   0.00000       0.00000    
     17858 MEOH     1195     MEOH     HO1      HDP1A    0.360000       1.00800           0   0.00000       0.00000    
     17859 MEOH     1195     MEOH     HO2      DUMH      0.00000       1.00800           0   0.00000       0.00000    
     17860 MEOH     1195     MEOH     H1A      HDA3B    0.800000E-01   1.00800           0   0.00000       0.00000    
     17861 MEOH     1195     MEOH     H1B      HDA3B    0.800000E-01   1.00800           0   0.00000       0.00000    
     17862 MEOH     1195     MEOH     H1C      HDA3B    0.800000E-01   1.00800           0   0.00000       0.00000    
     17863 MEOH     1195     MEOH     LP1A     LPD     -0.230000       0.00000          -1   0.00000       0.00000    
     17864 MEOH     1195     MEOH     LP1B     LPD     -0.230000       0.00000          -1   0.00000       0.00000    
     17865 MEOH     1196     MEOH     C1       CD33B     2.31410       11.6110           0  -1.00000       1.30000    
     17866 MEOH     1196     MEOH     DC1      DRUD     -2.45410      0.400000           0   0.00000       0.00000    
     17867 MEOH     1196     MEOH     O1       OD31H     2.48830       15.5990           0  -1.02800       1.30000    
     17868 MEOH     1196     MEOH     DO1      DRUD     -2.48830      0.400000           0   0.00000       0.00000    
     17869 MEOH     1196     MEOH     HO1      HDP1A    0.360000       1.00800           0   0.00000       0.00000    
     17870 MEOH     1196     MEOH     HO2      DUMH      0.00000       1.00800           0   0.00000       0.00000    
     17871 MEOH     1196     MEOH     H1A      HDA3B    0.800000E-01   1.00800           0   0.00000       0.00000    
     17872 MEOH     1196     MEOH     H1B      HDA3B    0.800000E-01   1.00800           0   0.00000       0.00000    
     17873 MEOH     1196     MEOH     H1C      HDA3B    0.800000E-01   1.00800           0   0.00000       0.00000    
     17874 MEOH     1196     MEOH     LP1A     LPD     -0.230000       0.00000          -1   0.00000       0.00000    
     17875 MEOH     1196     MEOH     LP1B     LPD     -0.230000       0.00000          -1   0.00000       0.00000    
     17876 MEOH     1197     MEOH     C1       CD33B     2.31410       11.6110           0  -1.00000       1.30000    
     17877 MEOH     1197     MEOH     DC1      DRUD     -2.45410      0.400000           0   0.00000       0.00000    
     17878 MEOH     1197     MEOH     O1       OD31H     2.48830       15.5990           0  -1.02800       1.30000    
     17879 MEOH     1197     MEOH     DO1      DRUD     -2.48830      0.400000           0   0.00000       0.00000    
     17880 MEOH     1197     MEOH     HO1      HDP1A    0.360000       1.00800           0   0.00000       0.00000    
     17881 MEOH     1197     MEOH     HO2      DUMH      0.00000       1.00800           0   0.00000       0.00000    
     17882 MEOH     1197     MEOH     H1A      HDA3B    0.800000E-01   1.00800           0   0.00000       0.00000    
     17883 MEOH     1197     MEOH     H1B      HDA3B    0.800000E-01   1.00800           0   0.00000       0.00000    
     17884 MEOH     1197     MEOH     H1C      HDA3B    0.800000E-01   1.00800           0   0.00000       0.00000    
     17885 MEOH     1197     MEOH     LP1A     LPD     -0.230000       0.00000          -1   0.00000       0.00000    
     17886 MEOH     1197     MEOH     LP1B     LPD     -0.230000       0.00000          -1   0.00000       0.00000    
     17887 MEOH     1198     MEOH     C1       CD33B     2.31410       11.6110           0  -1.00000       1.30000    
     17888 MEOH     1198     MEOH     DC1      DRUD     -2.45410      0.400000           0   0.00000       0.00000    
     17889 MEOH     1198     MEOH     O1       OD31H     2.48830       15.5990           0  -1.02800       1.30000    
     17890 MEOH     1198     MEOH     DO1      DRUD     -2.48830      0.400000           0   0.00000       0.00000    
     17891 MEOH     1198     MEOH     HO1      HDP1A    0.360000       1.00800           0   0.00000       0.00000    
     17892 MEOH     1198     MEOH     HO2      DUMH      0.00000       1.00800           0   0.00000       0.00000    
     17893 MEOH     1198     MEOH     H1A      HDA3B    0.800000E-01   1.00800           0   0.00000       0.00000    
     17894 MEOH     1198     MEOH     H1B      HDA3B    0.800000E-01   1.00800           0   0.00000       0.00000    
     17895 MEOH     1198     MEOH     H1C      HDA3B    0.800000E-01   1.00800           0   0.00000       0.00000    
     17896 MEOH     1198     MEOH     LP1A     LPD     -0.230000       0.00000          -1   0.00000       0.00000    
     17897 MEOH     1198     MEOH     LP1B     LPD     -0.230000       0.00000          -1   0.00000       0.00000    
     17898 MEOH     1199     MEOH     C1       CD33B     2.31410       11.6110           0  -1.00000       1.30000    
     17899 MEOH     1199     MEOH     DC1      DRUD     -2.45410      0.400000           0   0.00000       0.00000    
     17900 MEOH     1199     MEOH     O1       OD31H     2.48830       15.5990           0  -1.02800       1.30000    
     17901 MEOH     1199     MEOH     DO1      DRUD     -2.48830      0.400000           0   0.00000       0.00000    
     17902 MEOH     1199     MEOH     HO1      HDP1A    0.360000       1.00800           0   0.00000       0.00000    
     17903 MEOH     1199     MEOH     HO2      DUMH      0.00000       1.00800           0   0.00000       0.00000    
     17904 MEOH     1199     MEOH     H1A      HDA3B    0.800000E-01   1.00800           0   0.00000       0.00000    
     17905 MEOH     1199     MEOH     H1B      HDA3B    0.800000E-01   1.00800           0   0.00000       0.00000    
     17906 MEOH     1199     MEOH     H1C      HDA3B    0.800000E-01   1.00800           0   0.00000       0.00000    
     17907 MEOH     1199     MEOH     LP1A     LPD     -0.230000       0.00000          -1   0.00000       0.00000    
     17908 MEOH     1199     MEOH     LP1B     LPD     -0.230000       0.00000          -1   0.00000       0.00000    
     17909 MEOH     1200     MEOH     C1       CD33B     2.31410       11.6110           0  -1.00000       1.30000    
     17910 MEOH     1200     MEOH     DC1      DRUD     -2.45410      0.400000           0   0.00000       0.00000    
     17911 MEOH     1200     MEOH     O1       OD31H     2.48830       15.5990           0  -1.02800       1.30000    
     17912 MEOH     1200     MEOH     DO1      DRUD     -2.48830      0.400000           0   0.00000       0.00000    
     17913 MEOH     1200     MEOH     HO1      HDP1A    0.360000       1.00800           0   0.00000       0.00000    
     17914 MEOH     1200     MEOH     HO2      DUMH      0.00000       1.00800           0   0.00000       0.00000    
     17915 MEOH     1200     MEOH     H1A      HDA3B    0.800000E-01   1.00800           0   0.00000       0.00000    
     17916 MEOH     1200     MEOH     H1B      HDA3B    0.800000E-01   1.00800           0   0.00000       0.00000    
     17917 MEOH     1200     MEOH     H1C      HDA3B    0.800000E-01   1.00800           0   0.00000       0.00000    
     17918 MEOH     1200     MEOH     LP1A     LPD     -0.230000       0.00000          -1   0.00000       0.00000    
     17919 MEOH     1200     MEOH     LP1B     LPD     -0.230000       0.00000          -1   0.00000       0.00000    
     17920 MEOH     1201     MEOH     C1       CD33B     2.31410       11.6110           0  -1.00000       1.30000    
     17921 MEOH     1201     MEOH     DC1      DRUD     -2.45410      0.400000           0   0.00000       0.00000    
     17922 MEOH     1201     MEOH     O1       OD31H     2.48830       15.5990           0  -1.02800       1.30000    
     17923 MEOH     1201     MEOH     DO1      DRUD     -2.48830      0.400000           0   0.00000       0.00000    
     17924 MEOH     1201     MEOH     HO1      HDP1A    0.360000       1.00800           0   0.00000       0.00000    
     17925 MEOH     1201     MEOH     HO2      DUMH      0.00000       1.00800           0   0.00000       0.00000    
     17926 MEOH     1201     MEOH     H1A      HDA3B    0.800000E-01   1.00800           0   0.00000       0.00000    
     17927 MEOH     1201     MEOH     H1B      HDA3B    0.800000E-01   1.00800           0   0.00000       0.00000    
     17928 MEOH     1201     MEOH     H1C      HDA3B    0.800000E-01   1.00800           0   0.00000       0.00000    
     17929 MEOH     1201     MEOH     LP1A     LPD     -0.230000       0.00000          -1   0.00000       0.00000    
     17930 MEOH     1201     MEOH     LP1B     LPD     -0.230000       0.00000          -1   0.00000       0.00000    
     17931 MEOH     1202     MEOH     C1       CD33B     2.31410       11.6110           0  -1.00000       1.30000    
     17932 MEOH     1202     MEOH     DC1      DRUD     -2.45410      0.400000           0   0.00000       0.00000    
     17933 MEOH     1202     MEOH     O1       OD31H     2.48830       15.5990           0  -1.02800       1.30000    
     17934 MEOH     1202     MEOH     DO1      DRUD     -2.48830      0.400000           0   0.00000       0.00000    
     17935 MEOH     1202     MEOH     HO1      HDP1A    0.360000       1.00800           0   0.00000       0.00000    
     17936 MEOH     1202     MEOH     HO2      DUMH      0.00000       1.00800           0   0.00000       0.00000    
     17937 MEOH     1202     MEOH     H1A      HDA3B    0.800000E-01   1.00800           0   0.00000       0.00000    
     17938 MEOH     1202     MEOH     H1B      HDA3B    0.800000E-01   1.00800           0   0.00000       0.00000    
     17939 MEOH     1202     MEOH     H1C      HDA3B    0.800000E-01   1.00800           0   0.00000       0.00000    
     17940 MEOH     1202     MEOH     LP1A     LPD     -0.230000       0.00000          -1   0.00000       0.00000    
     17941 MEOH     1202     MEOH     LP1B     LPD     -0.230000       0.00000          -1   0.00000       0.00000    
     17942 MEOH     1203     MEOH     C1       CD33B     2.31410       11.6110           0  -1.00000       1.30000    
     17943 MEOH     1203     MEOH     DC1      DRUD     -2.45410      0.400000           0   0.00000       0.00000    
     17944 MEOH     1203     MEOH     O1       OD31H     2.48830       15.5990           0  -1.02800       1.30000    
     17945 MEOH     1203     MEOH     DO1      DRUD     -2.48830      0.400000           0   0.00000       0.00000    
     17946 MEOH     1203     MEOH     HO1      HDP1A    0.360000       1.00800           0   0.00000       0.00000    
     17947 MEOH     1203     MEOH     HO2      DUMH      0.00000       1.00800           0   0.00000       0.00000    
     17948 MEOH     1203     MEOH     H1A      HDA3B    0.800000E-01   1.00800           0   0.00000       0.00000    
     17949 MEOH     1203     MEOH     H1B      HDA3B    0.800000E-01   1.00800           0   0.00000       0.00000    
     17950 MEOH     1203     MEOH     H1C      HDA3B    0.800000E-01   1.00800           0   0.00000       0.00000    
     17951 MEOH     1203     MEOH     LP1A     LPD     -0.230000       0.00000          -1   0.00000       0.00000    
     17952 MEOH     1203     MEOH     LP1B     LPD     -0.230000       0.00000          -1   0.00000       0.00000    
     17953 MEOH     1204     MEOH     C1       CD33B     2.31410       11.6110           0  -1.00000       1.30000    
     17954 MEOH     1204     MEOH     DC1      DRUD     -2.45410      0.400000           0   0.00000       0.00000    
     17955 MEOH     1204     MEOH     O1       OD31H     2.48830       15.5990           0  -1.02800       1.30000    
     17956 MEOH     1204     MEOH     DO1      DRUD     -2.48830      0.400000           0   0.00000       0.00000    
     17957 MEOH     1204     MEOH     HO1      HDP1A    0.360000       1.00800           0   0.00000       0.00000    
     17958 MEOH     1204     MEOH     HO2      DUMH      0.00000       1.00800           0   0.00000       0.00000    
     17959 MEOH     1204     MEOH     H1A      HDA3B    0.800000E-01   1.00800           0   0.00000       0.00000    
     17960 MEOH     1204     MEOH     H1B      HDA3B    0.800000E-01   1.00800           0   0.00000       0.00000    
     17961 MEOH     1204     MEOH     H1C      HDA3B    0.800000E-01   1.00800           0   0.00000       0.00000    
     17962 MEOH     1204     MEOH     LP1A     LPD     -0.230000       0.00000          -1   0.00000       0.00000    
     17963 MEOH     1204     MEOH     LP1B     LPD     -0.230000       0.00000          -1   0.00000       0.00000    
     17964 MEOH     1205     MEOH     C1       CD33B     2.31410       11.6110           0  -1.00000       1.30000    
     17965 MEOH     1205     MEOH     DC1      DRUD     -2.45410      0.400000           0   0.00000       0.00000    
     17966 MEOH     1205     MEOH     O1       OD31H     2.48830       15.5990           0  -1.02800       1.30000    
     17967 MEOH     1205     MEOH     DO1      DRUD     -2.48830      0.400000           0   0.00000       0.00000    
     17968 MEOH     1205     MEOH     HO1      HDP1A    0.360000       1.00800           0   0.00000       0.00000    
     17969 MEOH     1205     MEOH     HO2      DUMH      0.00000       1.00800           0   0.00000       0.00000    
     17970 MEOH     1205     MEOH     H1A      HDA3B    0.800000E-01   1.00800           0   0.00000       0.00000    
     17971 MEOH     1205     MEOH     H1B      HDA3B    0.800000E-01   1.00800           0   0.00000       0.00000    
     17972 MEOH     1205     MEOH     H1C      HDA3B    0.800000E-01   1.00800           0   0.00000       0.00000    
     17973 MEOH     1205     MEOH     LP1A     LPD     -0.230000       0.00000          -1   0.00000       0.00000    
     17974 MEOH     1205     MEOH     LP1B     LPD     -0.230000       0.00000          -1   0.00000       0.00000    
     17975 MEOH     1206     MEOH     C1       CD33B     2.31410       11.6110           0  -1.00000       1.30000    
     17976 MEOH     1206     MEOH     DC1      DRUD     -2.45410      0.400000           0   0.00000       0.00000    
     17977 MEOH     1206     MEOH     O1       OD31H     2.48830       15.5990           0  -1.02800       1.30000    
     17978 MEOH     1206     MEOH     DO1      DRUD     -2.48830      0.400000           0   0.00000       0.00000    
     17979 MEOH     1206     MEOH     HO1      HDP1A    0.360000       1.00800           0   0.00000       0.00000    
     17980 MEOH     1206     MEOH     HO2      DUMH      0.00000       1.00800           0   0.00000       0.00000    
     17981 MEOH     1206     MEOH     H1A      HDA3B    0.800000E-01   1.00800           0   0.00000       0.00000    
     17982 MEOH     1206     MEOH     H1B      HDA3B    0.800000E-01   1.00800           0   0.00000       0.00000    
     17983 MEOH     1206     MEOH     H1C      HDA3B    0.800000E-01   1.00800           0   0.00000       0.00000    
     17984 MEOH     1206     MEOH     LP1A     LPD     -0.230000       0.00000          -1   0.00000       0.00000    
     17985 MEOH     1206     MEOH     LP1B     LPD     -0.230000       0.00000          -1   0.00000       0.00000    
     17986 MEOH     1207     MEOH     C1       CD33B     2.31410       11.6110           0  -1.00000       1.30000    
     17987 MEOH     1207     MEOH     DC1      DRUD     -2.45410      0.400000           0   0.00000       0.00000    
     17988 MEOH     1207     MEOH     O1       OD31H     2.48830       15.5990           0  -1.02800       1.30000    
     17989 MEOH     1207     MEOH     DO1      DRUD     -2.48830      0.400000           0   0.00000       0.00000    
     17990 MEOH     1207     MEOH     HO1      HDP1A    0.360000       1.00800           0   0.00000       0.00000    
     17991 MEOH     1207     MEOH     HO2      DUMH      0.00000       1.00800           0   0.00000       0.00000    
     17992 MEOH     1207     MEOH     H1A      HDA3B    0.800000E-01   1.00800           0   0.00000       0.00000    
     17993 MEOH     1207     MEOH     H1B      HDA3B    0.800000E-01   1.00800           0   0.00000       0.00000    
     17994 MEOH     1207     MEOH     H1C      HDA3B    0.800000E-01   1.00800           0   0.00000       0.00000    
     17995 MEOH     1207     MEOH     LP1A     LPD     -0.230000       0.00000          -1   0.00000       0.00000    
     17996 MEOH     1207     MEOH     LP1B     LPD     -0.230000       0.00000          -1   0.00000       0.00000    
     17997 MEOH     1208     MEOH     C1       CD33B     2.31410       11.6110           0  -1.00000       1.30000    
     17998 MEOH     1208     MEOH     DC1      DRUD     -2.45410      0.400000           0   0.00000       0.00000    
     17999 MEOH     1208     MEOH     O1       OD31H     2.48830       15.5990           0  -1.02800       1.30000    
     18000 MEOH     1208     MEOH     DO1      DRUD     -2.48830      0.400000           0   0.00000       0.00000    
     18001 MEOH     1208     MEOH     HO1      HDP1A    0.360000       1.00800           0   0.00000       0.00000    
     18002 MEOH     1208     MEOH     HO2      DUMH      0.00000       1.00800           0   0.00000       0.00000    
     18003 MEOH     1208     MEOH     H1A      HDA3B    0.800000E-01   1.00800           0   0.00000       0.00000    
     18004 MEOH     1208     MEOH     H1B      HDA3B    0.800000E-01   1.00800           0   0.00000       0.00000    
     18005 MEOH     1208     MEOH     H1C      HDA3B    0.800000E-01   1.00800           0   0.00000       0.00000    
     18006 MEOH     1208     MEOH     LP1A     LPD     -0.230000       0.00000          -1   0.00000       0.00000    
     18007 MEOH     1208     MEOH     LP1B     LPD     -0.230000       0.00000          -1   0.00000       0.00000    
     18008 MEOH     1209     MEOH     C1       CD33B     2.31410       11.6110           0  -1.00000       1.30000    
     18009 MEOH     1209     MEOH     DC1      DRUD     -2.45410      0.400000           0   0.00000       0.00000    
     18010 MEOH     1209     MEOH     O1       OD31H     2.48830       15.5990           0  -1.02800       1.30000    
     18011 MEOH     1209     MEOH     DO1      DRUD     -2.48830      0.400000           0   0.00000       0.00000    
     18012 MEOH     1209     MEOH     HO1      HDP1A    0.360000       1.00800           0   0.00000       0.00000    
     18013 MEOH     1209     MEOH     HO2      DUMH      0.00000       1.00800           0   0.00000       0.00000    
     18014 MEOH     1209     MEOH     H1A      HDA3B    0.800000E-01   1.00800           0   0.00000       0.00000    
     18015 MEOH     1209     MEOH     H1B      HDA3B    0.800000E-01   1.00800           0   0.00000       0.00000    
     18016 MEOH     1209     MEOH     H1C      HDA3B    0.800000E-01   1.00800           0   0.00000       0.00000    
     18017 MEOH     1209     MEOH     LP1A     LPD     -0.230000       0.00000          -1   0.00000       0.00000    
     18018 MEOH     1209     MEOH     LP1B     LPD     -0.230000       0.00000          -1   0.00000       0.00000    
     18019 MEOH     1210     MEOH     C1       CD33B     2.31410       11.6110           0  -1.00000       1.30000    
     18020 MEOH     1210     MEOH     DC1      DRUD     -2.45410      0.400000           0   0.00000       0.00000    
     18021 MEOH     1210     MEOH     O1       OD31H     2.48830       15.5990           0  -1.02800       1.30000    
     18022 MEOH     1210     MEOH     DO1      DRUD     -2.48830      0.400000           0   0.00000       0.00000    
     18023 MEOH     1210     MEOH     HO1      HDP1A    0.360000       1.00800           0   0.00000       0.00000    
     18024 MEOH     1210     MEOH     HO2      DUMH      0.00000       1.00800           0   0.00000       0.00000    
     18025 MEOH     1210     MEOH     H1A      HDA3B    0.800000E-01   1.00800           0   0.00000       0.00000    
     18026 MEOH     1210     MEOH     H1B      HDA3B    0.800000E-01   1.00800           0   0.00000       0.00000    
     18027 MEOH     1210     MEOH     H1C      HDA3B    0.800000E-01   1.00800           0   0.00000       0.00000    
     18028 MEOH     1210     MEOH     LP1A     LPD     -0.230000       0.00000          -1   0.00000       0.00000    
     18029 MEOH     1210     MEOH     LP1B     LPD     -0.230000       0.00000          -1   0.00000       0.00000    
     18030 MEOH     1211     MEOH     C1       CD33B     2.31410       11.6110           0  -1.00000       1.30000    
     18031 MEOH     1211     MEOH     DC1      DRUD     -2.45410      0.400000           0   0.00000       0.00000    
     18032 MEOH     1211     MEOH     O1       OD31H     2.48830       15.5990           0  -1.02800       1.30000    
     18033 MEOH     1211     MEOH     DO1      DRUD     -2.48830      0.400000           0   0.00000       0.00000    
     18034 MEOH     1211     MEOH     HO1      HDP1A    0.360000       1.00800           0   0.00000       0.00000    
     18035 MEOH     1211     MEOH     HO2      DUMH      0.00000       1.00800           0   0.00000       0.00000    
     18036 MEOH     1211     MEOH     H1A      HDA3B    0.800000E-01   1.00800           0   0.00000       0.00000    
     18037 MEOH     1211     MEOH     H1B      HDA3B    0.800000E-01   1.00800           0   0.00000       0.00000    
     18038 MEOH     1211     MEOH     H1C      HDA3B    0.800000E-01   1.00800           0   0.00000       0.00000    
     18039 MEOH     1211     MEOH     LP1A     LPD     -0.230000       0.00000          -1   0.00000       0.00000    
     18040 MEOH     1211     MEOH     LP1B     LPD     -0.230000       0.00000          -1   0.00000       0.00000    
     18041 MEOH     1212     MEOH     C1       CD33B     2.31410       11.6110           0  -1.00000       1.30000    
     18042 MEOH     1212     MEOH     DC1      DRUD     -2.45410      0.400000           0   0.00000       0.00000    
     18043 MEOH     1212     MEOH     O1       OD31H     2.48830       15.5990           0  -1.02800       1.30000    
     18044 MEOH     1212     MEOH     DO1      DRUD     -2.48830      0.400000           0   0.00000       0.00000    
     18045 MEOH     1212     MEOH     HO1      HDP1A    0.360000       1.00800           0   0.00000       0.00000    
     18046 MEOH     1212     MEOH     HO2      DUMH      0.00000       1.00800           0   0.00000       0.00000    
     18047 MEOH     1212     MEOH     H1A      HDA3B    0.800000E-01   1.00800           0   0.00000       0.00000    
     18048 MEOH     1212     MEOH     H1B      HDA3B    0.800000E-01   1.00800           0   0.00000       0.00000    
     18049 MEOH     1212     MEOH     H1C      HDA3B    0.800000E-01   1.00800           0   0.00000       0.00000    
     18050 MEOH     1212     MEOH     LP1A     LPD     -0.230000       0.00000          -1   0.00000       0.00000    
     18051 MEOH     1212     MEOH     LP1B     LPD     -0.230000       0.00000          -1   0.00000       0.00000    
     18052 MEOH     1213     MEOH     C1       CD33B     2.31410       11.6110           0  -1.00000       1.30000    
     18053 MEOH     1213     MEOH     DC1      DRUD     -2.45410      0.400000           0   0.00000       0.00000    
     18054 MEOH     1213     MEOH     O1       OD31H     2.48830       15.5990           0  -1.02800       1.30000    
     18055 MEOH     1213     MEOH     DO1      DRUD     -2.48830      0.400000           0   0.00000       0.00000    
     18056 MEOH     1213     MEOH     HO1      HDP1A    0.360000       1.00800           0   0.00000       0.00000    
     18057 MEOH     1213     MEOH     HO2      DUMH      0.00000       1.00800           0   0.00000       0.00000    
     18058 MEOH     1213     MEOH     H1A      HDA3B    0.800000E-01   1.00800           0   0.00000       0.00000    
     18059 MEOH     1213     MEOH     H1B      HDA3B    0.800000E-01   1.00800           0   0.00000       0.00000    
     18060 MEOH     1213     MEOH     H1C      HDA3B    0.800000E-01   1.00800           0   0.00000       0.00000    
     18061 MEOH     1213     MEOH     LP1A     LPD     -0.230000       0.00000          -1   0.00000       0.00000    
     18062 MEOH     1213     MEOH     LP1B     LPD     -0.230000       0.00000          -1   0.00000       0.00000    
     18063 MEOH     1214     MEOH     C1       CD33B     2.31410       11.6110           0  -1.00000       1.30000    
     18064 MEOH     1214     MEOH     DC1      DRUD     -2.45410      0.400000           0   0.00000       0.00000    
     18065 MEOH     1214     MEOH     O1       OD31H     2.48830       15.5990           0  -1.02800       1.30000    
     18066 MEOH     1214     MEOH     DO1      DRUD     -2.48830      0.400000           0   0.00000       0.00000    
     18067 MEOH     1214     MEOH     HO1      HDP1A    0.360000       1.00800           0   0.00000       0.00000    
     18068 MEOH     1214     MEOH     HO2      DUMH      0.00000       1.00800           0   0.00000       0.00000    
     18069 MEOH     1214     MEOH     H1A      HDA3B    0.800000E-01   1.00800           0   0.00000       0.00000    
     18070 MEOH     1214     MEOH     H1B      HDA3B    0.800000E-01   1.00800           0   0.00000       0.00000    
     18071 MEOH     1214     MEOH     H1C      HDA3B    0.800000E-01   1.00800           0   0.00000       0.00000    
     18072 MEOH     1214     MEOH     LP1A     LPD     -0.230000       0.00000          -1   0.00000       0.00000    
     18073 MEOH     1214     MEOH     LP1B     LPD     -0.230000       0.00000          -1   0.00000       0.00000    
     18074 MEOH     1215     MEOH     C1       CD33B     2.31410       11.6110           0  -1.00000       1.30000    
     18075 MEOH     1215     MEOH     DC1      DRUD     -2.45410      0.400000           0   0.00000       0.00000    
     18076 MEOH     1215     MEOH     O1       OD31H     2.48830       15.5990           0  -1.02800       1.30000    
     18077 MEOH     1215     MEOH     DO1      DRUD     -2.48830      0.400000           0   0.00000       0.00000    
     18078 MEOH     1215     MEOH     HO1      HDP1A    0.360000       1.00800           0   0.00000       0.00000    
     18079 MEOH     1215     MEOH     HO2      DUMH      0.00000       1.00800           0   0.00000       0.00000    
     18080 MEOH     1215     MEOH     H1A      HDA3B    0.800000E-01   1.00800           0   0.00000       0.00000    
     18081 MEOH     1215     MEOH     H1B      HDA3B    0.800000E-01   1.00800           0   0.00000       0.00000    
     18082 MEOH     1215     MEOH     H1C      HDA3B    0.800000E-01   1.00800           0   0.00000       0.00000    
     18083 MEOH     1215     MEOH     LP1A     LPD     -0.230000       0.00000          -1   0.00000       0.00000    
     18084 MEOH     1215     MEOH     LP1B     LPD     -0.230000       0.00000          -1   0.00000       0.00000    
     18085 MEOH     1216     MEOH     C1       CD33B     2.31410       11.6110           0  -1.00000       1.30000    
     18086 MEOH     1216     MEOH     DC1      DRUD     -2.45410      0.400000           0   0.00000       0.00000    
     18087 MEOH     1216     MEOH     O1       OD31H     2.48830       15.5990           0  -1.02800       1.30000    
     18088 MEOH     1216     MEOH     DO1      DRUD     -2.48830      0.400000           0   0.00000       0.00000    
     18089 MEOH     1216     MEOH     HO1      HDP1A    0.360000       1.00800           0   0.00000       0.00000    
     18090 MEOH     1216     MEOH     HO2      DUMH      0.00000       1.00800           0   0.00000       0.00000    
     18091 MEOH     1216     MEOH     H1A      HDA3B    0.800000E-01   1.00800           0   0.00000       0.00000    
     18092 MEOH     1216     MEOH     H1B      HDA3B    0.800000E-01   1.00800           0   0.00000       0.00000    
     18093 MEOH     1216     MEOH     H1C      HDA3B    0.800000E-01   1.00800           0   0.00000       0.00000    
     18094 MEOH     1216     MEOH     LP1A     LPD     -0.230000       0.00000          -1   0.00000       0.00000    
     18095 MEOH     1216     MEOH     LP1B     LPD     -0.230000       0.00000          -1   0.00000       0.00000    
     18096 MEOH     1217     MEOH     C1       CD33B     2.31410       11.6110           0  -1.00000       1.30000    
     18097 MEOH     1217     MEOH     DC1      DRUD     -2.45410      0.400000           0   0.00000       0.00000    
     18098 MEOH     1217     MEOH     O1       OD31H     2.48830       15.5990           0  -1.02800       1.30000    
     18099 MEOH     1217     MEOH     DO1      DRUD     -2.48830      0.400000           0   0.00000       0.00000    
     18100 MEOH     1217     MEOH     HO1      HDP1A    0.360000       1.00800           0   0.00000       0.00000    
     18101 MEOH     1217     MEOH     HO2      DUMH      0.00000       1.00800           0   0.00000       0.00000    
     18102 MEOH     1217     MEOH     H1A      HDA3B    0.800000E-01   1.00800           0   0.00000       0.00000    
     18103 MEOH     1217     MEOH     H1B      HDA3B    0.800000E-01   1.00800           0   0.00000       0.00000    
     18104 MEOH     1217     MEOH     H1C      HDA3B    0.800000E-01   1.00800           0   0.00000       0.00000    
     18105 MEOH     1217     MEOH     LP1A     LPD     -0.230000       0.00000          -1   0.00000       0.00000    
     18106 MEOH     1217     MEOH     LP1B     LPD     -0.230000       0.00000          -1   0.00000       0.00000    
     18107 MEOH     1218     MEOH     C1       CD33B     2.31410       11.6110           0  -1.00000       1.30000    
     18108 MEOH     1218     MEOH     DC1      DRUD     -2.45410      0.400000           0   0.00000       0.00000    
     18109 MEOH     1218     MEOH     O1       OD31H     2.48830       15.5990           0  -1.02800       1.30000    
     18110 MEOH     1218     MEOH     DO1      DRUD     -2.48830      0.400000           0   0.00000       0.00000    
     18111 MEOH     1218     MEOH     HO1      HDP1A    0.360000       1.00800           0   0.00000       0.00000    
     18112 MEOH     1218     MEOH     HO2      DUMH      0.00000       1.00800           0   0.00000       0.00000    
     18113 MEOH     1218     MEOH     H1A      HDA3B    0.800000E-01   1.00800           0   0.00000       0.00000    
     18114 MEOH     1218     MEOH     H1B      HDA3B    0.800000E-01   1.00800           0   0.00000       0.00000    
     18115 MEOH     1218     MEOH     H1C      HDA3B    0.800000E-01   1.00800           0   0.00000       0.00000    
     18116 MEOH     1218     MEOH     LP1A     LPD     -0.230000       0.00000          -1   0.00000       0.00000    
     18117 MEOH     1218     MEOH     LP1B     LPD     -0.230000       0.00000          -1   0.00000       0.00000    
     18118 MEOH     1219     MEOH     C1       CD33B     2.31410       11.6110           0  -1.00000       1.30000    
     18119 MEOH     1219     MEOH     DC1      DRUD     -2.45410      0.400000           0   0.00000       0.00000    
     18120 MEOH     1219     MEOH     O1       OD31H     2.48830       15.5990           0  -1.02800       1.30000    
     18121 MEOH     1219     MEOH     DO1      DRUD     -2.48830      0.400000           0   0.00000       0.00000    
     18122 MEOH     1219     MEOH     HO1      HDP1A    0.360000       1.00800           0   0.00000       0.00000    
     18123 MEOH     1219     MEOH     HO2      DUMH      0.00000       1.00800           0   0.00000       0.00000    
     18124 MEOH     1219     MEOH     H1A      HDA3B    0.800000E-01   1.00800           0   0.00000       0.00000    
     18125 MEOH     1219     MEOH     H1B      HDA3B    0.800000E-01   1.00800           0   0.00000       0.00000    
     18126 MEOH     1219     MEOH     H1C      HDA3B    0.800000E-01   1.00800           0   0.00000       0.00000    
     18127 MEOH     1219     MEOH     LP1A     LPD     -0.230000       0.00000          -1   0.00000       0.00000    
     18128 MEOH     1219     MEOH     LP1B     LPD     -0.230000       0.00000          -1   0.00000       0.00000    
     18129 MEOH     1220     MEOH     C1       CD33B     2.31410       11.6110           0  -1.00000       1.30000    
     18130 MEOH     1220     MEOH     DC1      DRUD     -2.45410      0.400000           0   0.00000       0.00000    
     18131 MEOH     1220     MEOH     O1       OD31H     2.48830       15.5990           0  -1.02800       1.30000    
     18132 MEOH     1220     MEOH     DO1      DRUD     -2.48830      0.400000           0   0.00000       0.00000    
     18133 MEOH     1220     MEOH     HO1      HDP1A    0.360000       1.00800           0   0.00000       0.00000    
     18134 MEOH     1220     MEOH     HO2      DUMH      0.00000       1.00800           0   0.00000       0.00000    
     18135 MEOH     1220     MEOH     H1A      HDA3B    0.800000E-01   1.00800           0   0.00000       0.00000    
     18136 MEOH     1220     MEOH     H1B      HDA3B    0.800000E-01   1.00800           0   0.00000       0.00000    
     18137 MEOH     1220     MEOH     H1C      HDA3B    0.800000E-01   1.00800           0   0.00000       0.00000    
     18138 MEOH     1220     MEOH     LP1A     LPD     -0.230000       0.00000          -1   0.00000       0.00000    
     18139 MEOH     1220     MEOH     LP1B     LPD     -0.230000       0.00000          -1   0.00000       0.00000    
     18140 MEOH     1221     MEOH     C1       CD33B     2.31410       11.6110           0  -1.00000       1.30000    
     18141 MEOH     1221     MEOH     DC1      DRUD     -2.45410      0.400000           0   0.00000       0.00000    
     18142 MEOH     1221     MEOH     O1       OD31H     2.48830       15.5990           0  -1.02800       1.30000    
     18143 MEOH     1221     MEOH     DO1      DRUD     -2.48830      0.400000           0   0.00000       0.00000    
     18144 MEOH     1221     MEOH     HO1      HDP1A    0.360000       1.00800           0   0.00000       0.00000    
     18145 MEOH     1221     MEOH     HO2      DUMH      0.00000       1.00800           0   0.00000       0.00000    
     18146 MEOH     1221     MEOH     H1A      HDA3B    0.800000E-01   1.00800           0   0.00000       0.00000    
     18147 MEOH     1221     MEOH     H1B      HDA3B    0.800000E-01   1.00800           0   0.00000       0.00000    
     18148 MEOH     1221     MEOH     H1C      HDA3B    0.800000E-01   1.00800           0   0.00000       0.00000    
     18149 MEOH     1221     MEOH     LP1A     LPD     -0.230000       0.00000          -1   0.00000       0.00000    
     18150 MEOH     1221     MEOH     LP1B     LPD     -0.230000       0.00000          -1   0.00000       0.00000    
     18151 MEOH     1222     MEOH     C1       CD33B     2.31410       11.6110           0  -1.00000       1.30000    
     18152 MEOH     1222     MEOH     DC1      DRUD     -2.45410      0.400000           0   0.00000       0.00000    
     18153 MEOH     1222     MEOH     O1       OD31H     2.48830       15.5990           0  -1.02800       1.30000    
     18154 MEOH     1222     MEOH     DO1      DRUD     -2.48830      0.400000           0   0.00000       0.00000    
     18155 MEOH     1222     MEOH     HO1      HDP1A    0.360000       1.00800           0   0.00000       0.00000    
     18156 MEOH     1222     MEOH     HO2      DUMH      0.00000       1.00800           0   0.00000       0.00000    
     18157 MEOH     1222     MEOH     H1A      HDA3B    0.800000E-01   1.00800           0   0.00000       0.00000    
     18158 MEOH     1222     MEOH     H1B      HDA3B    0.800000E-01   1.00800           0   0.00000       0.00000    
     18159 MEOH     1222     MEOH     H1C      HDA3B    0.800000E-01   1.00800           0   0.00000       0.00000    
     18160 MEOH     1222     MEOH     LP1A     LPD     -0.230000       0.00000          -1   0.00000       0.00000    
     18161 MEOH     1222     MEOH     LP1B     LPD     -0.230000       0.00000          -1   0.00000       0.00000    
     18162 MEOH     1223     MEOH     C1       CD33B     2.31410       11.6110           0  -1.00000       1.30000    
     18163 MEOH     1223     MEOH     DC1      DRUD     -2.45410      0.400000           0   0.00000       0.00000    
     18164 MEOH     1223     MEOH     O1       OD31H     2.48830       15.5990           0  -1.02800       1.30000    
     18165 MEOH     1223     MEOH     DO1      DRUD     -2.48830      0.400000           0   0.00000       0.00000    
     18166 MEOH     1223     MEOH     HO1      HDP1A    0.360000       1.00800           0   0.00000       0.00000    
     18167 MEOH     1223     MEOH     HO2      DUMH      0.00000       1.00800           0   0.00000       0.00000    
     18168 MEOH     1223     MEOH     H1A      HDA3B    0.800000E-01   1.00800           0   0.00000       0.00000    
     18169 MEOH     1223     MEOH     H1B      HDA3B    0.800000E-01   1.00800           0   0.00000       0.00000    
     18170 MEOH     1223     MEOH     H1C      HDA3B    0.800000E-01   1.00800           0   0.00000       0.00000    
     18171 MEOH     1223     MEOH     LP1A     LPD     -0.230000       0.00000          -1   0.00000       0.00000    
     18172 MEOH     1223     MEOH     LP1B     LPD     -0.230000       0.00000          -1   0.00000       0.00000    
     18173 MEOH     1224     MEOH     C1       CD33B     2.31410       11.6110           0  -1.00000       1.30000    
     18174 MEOH     1224     MEOH     DC1      DRUD     -2.45410      0.400000           0   0.00000       0.00000    
     18175 MEOH     1224     MEOH     O1       OD31H     2.48830       15.5990           0  -1.02800       1.30000    
     18176 MEOH     1224     MEOH     DO1      DRUD     -2.48830      0.400000           0   0.00000       0.00000    
     18177 MEOH     1224     MEOH     HO1      HDP1A    0.360000       1.00800           0   0.00000       0.00000    
     18178 MEOH     1224     MEOH     HO2      DUMH      0.00000       1.00800           0   0.00000       0.00000    
     18179 MEOH     1224     MEOH     H1A      HDA3B    0.800000E-01   1.00800           0   0.00000       0.00000    
     18180 MEOH     1224     MEOH     H1B      HDA3B    0.800000E-01   1.00800           0   0.00000       0.00000    
     18181 MEOH     1224     MEOH     H1C      HDA3B    0.800000E-01   1.00800           0   0.00000       0.00000    
     18182 MEOH     1224     MEOH     LP1A     LPD     -0.230000       0.00000          -1   0.00000       0.00000    
     18183 MEOH     1224     MEOH     LP1B     LPD     -0.230000       0.00000          -1   0.00000       0.00000    
     18184 MEOH     1225     MEOH     C1       CD33B     2.31410       11.6110           0  -1.00000       1.30000    
     18185 MEOH     1225     MEOH     DC1      DRUD     -2.45410      0.400000           0   0.00000       0.00000    
     18186 MEOH     1225     MEOH     O1       OD31H     2.48830       15.5990           0  -1.02800       1.30000    
     18187 MEOH     1225     MEOH     DO1      DRUD     -2.48830      0.400000           0   0.00000       0.00000    
     18188 MEOH     1225     MEOH     HO1      HDP1A    0.360000       1.00800           0   0.00000       0.00000    
     18189 MEOH     1225     MEOH     HO2      DUMH      0.00000       1.00800           0   0.00000       0.00000    
     18190 MEOH     1225     MEOH     H1A      HDA3B    0.800000E-01   1.00800           0   0.00000       0.00000    
     18191 MEOH     1225     MEOH     H1B      HDA3B    0.800000E-01   1.00800           0   0.00000       0.00000    
     18192 MEOH     1225     MEOH     H1C      HDA3B    0.800000E-01   1.00800           0   0.00000       0.00000    
     18193 MEOH     1225     MEOH     LP1A     LPD     -0.230000       0.00000          -1   0.00000       0.00000    
     18194 MEOH     1225     MEOH     LP1B     LPD     -0.230000       0.00000          -1   0.00000       0.00000    
     18195 MEOH     1226     MEOH     C1       CD33B     2.31410       11.6110           0  -1.00000       1.30000    
     18196 MEOH     1226     MEOH     DC1      DRUD     -2.45410      0.400000           0   0.00000       0.00000    
     18197 MEOH     1226     MEOH     O1       OD31H     2.48830       15.5990           0  -1.02800       1.30000    
     18198 MEOH     1226     MEOH     DO1      DRUD     -2.48830      0.400000           0   0.00000       0.00000    
     18199 MEOH     1226     MEOH     HO1      HDP1A    0.360000       1.00800           0   0.00000       0.00000    
     18200 MEOH     1226     MEOH     HO2      DUMH      0.00000       1.00800           0   0.00000       0.00000    
     18201 MEOH     1226     MEOH     H1A      HDA3B    0.800000E-01   1.00800           0   0.00000       0.00000    
     18202 MEOH     1226     MEOH     H1B      HDA3B    0.800000E-01   1.00800           0   0.00000       0.00000    
     18203 MEOH     1226     MEOH     H1C      HDA3B    0.800000E-01   1.00800           0   0.00000       0.00000    
     18204 MEOH     1226     MEOH     LP1A     LPD     -0.230000       0.00000          -1   0.00000       0.00000    
     18205 MEOH     1226     MEOH     LP1B     LPD     -0.230000       0.00000          -1   0.00000       0.00000    
     18206 MEOH     1227     MEOH     C1       CD33B     2.31410       11.6110           0  -1.00000       1.30000    
     18207 MEOH     1227     MEOH     DC1      DRUD     -2.45410      0.400000           0   0.00000       0.00000    
     18208 MEOH     1227     MEOH     O1       OD31H     2.48830       15.5990           0  -1.02800       1.30000    
     18209 MEOH     1227     MEOH     DO1      DRUD     -2.48830      0.400000           0   0.00000       0.00000    
     18210 MEOH     1227     MEOH     HO1      HDP1A    0.360000       1.00800           0   0.00000       0.00000    
     18211 MEOH     1227     MEOH     HO2      DUMH      0.00000       1.00800           0   0.00000       0.00000    
     18212 MEOH     1227     MEOH     H1A      HDA3B    0.800000E-01   1.00800           0   0.00000       0.00000    
     18213 MEOH     1227     MEOH     H1B      HDA3B    0.800000E-01   1.00800           0   0.00000       0.00000    
     18214 MEOH     1227     MEOH     H1C      HDA3B    0.800000E-01   1.00800           0   0.00000       0.00000    
     18215 MEOH     1227     MEOH     LP1A     LPD     -0.230000       0.00000          -1   0.00000       0.00000    
     18216 MEOH     1227     MEOH     LP1B     LPD     -0.230000       0.00000          -1   0.00000       0.00000    
     18217 MEOH     1228     MEOH     C1       CD33B     2.31410       11.6110           0  -1.00000       1.30000    
     18218 MEOH     1228     MEOH     DC1      DRUD     -2.45410      0.400000           0   0.00000       0.00000    
     18219 MEOH     1228     MEOH     O1       OD31H     2.48830       15.5990           0  -1.02800       1.30000    
     18220 MEOH     1228     MEOH     DO1      DRUD     -2.48830      0.400000           0   0.00000       0.00000    
     18221 MEOH     1228     MEOH     HO1      HDP1A    0.360000       1.00800           0   0.00000       0.00000    
     18222 MEOH     1228     MEOH     HO2      DUMH      0.00000       1.00800           0   0.00000       0.00000    
     18223 MEOH     1228     MEOH     H1A      HDA3B    0.800000E-01   1.00800           0   0.00000       0.00000    
     18224 MEOH     1228     MEOH     H1B      HDA3B    0.800000E-01   1.00800           0   0.00000       0.00000    
     18225 MEOH     1228     MEOH     H1C      HDA3B    0.800000E-01   1.00800           0   0.00000       0.00000    
     18226 MEOH     1228     MEOH     LP1A     LPD     -0.230000       0.00000          -1   0.00000       0.00000    
     18227 MEOH     1228     MEOH     LP1B     LPD     -0.230000       0.00000          -1   0.00000       0.00000    
     18228 MEOH     1229     MEOH     C1       CD33B     2.31410       11.6110           0  -1.00000       1.30000    
     18229 MEOH     1229     MEOH     DC1      DRUD     -2.45410      0.400000           0   0.00000       0.00000    
     18230 MEOH     1229     MEOH     O1       OD31H     2.48830       15.5990           0  -1.02800       1.30000    
     18231 MEOH     1229     MEOH     DO1      DRUD     -2.48830      0.400000           0   0.00000       0.00000    
     18232 MEOH     1229     MEOH     HO1      HDP1A    0.360000       1.00800           0   0.00000       0.00000    
     18233 MEOH     1229     MEOH     HO2      DUMH      0.00000       1.00800           0   0.00000       0.00000    
     18234 MEOH     1229     MEOH     H1A      HDA3B    0.800000E-01   1.00800           0   0.00000       0.00000    
     18235 MEOH     1229     MEOH     H1B      HDA3B    0.800000E-01   1.00800           0   0.00000       0.00000    
     18236 MEOH     1229     MEOH     H1C      HDA3B    0.800000E-01   1.00800           0   0.00000       0.00000    
     18237 MEOH     1229     MEOH     LP1A     LPD     -0.230000       0.00000          -1   0.00000       0.00000    
     18238 MEOH     1229     MEOH     LP1B     LPD     -0.230000       0.00000          -1   0.00000       0.00000    
     18239 MEOH     1230     MEOH     C1       CD33B     2.31410       11.6110           0  -1.00000       1.30000    
     18240 MEOH     1230     MEOH     DC1      DRUD     -2.45410      0.400000           0   0.00000       0.00000    
     18241 MEOH     1230     MEOH     O1       OD31H     2.48830       15.5990           0  -1.02800       1.30000    
     18242 MEOH     1230     MEOH     DO1      DRUD     -2.48830      0.400000           0   0.00000       0.00000    
     18243 MEOH     1230     MEOH     HO1      HDP1A    0.360000       1.00800           0   0.00000       0.00000    
     18244 MEOH     1230     MEOH     HO2      DUMH      0.00000       1.00800           0   0.00000       0.00000    
     18245 MEOH     1230     MEOH     H1A      HDA3B    0.800000E-01   1.00800           0   0.00000       0.00000    
     18246 MEOH     1230     MEOH     H1B      HDA3B    0.800000E-01   1.00800           0   0.00000       0.00000    
     18247 MEOH     1230     MEOH     H1C      HDA3B    0.800000E-01   1.00800           0   0.00000       0.00000    
     18248 MEOH     1230     MEOH     LP1A     LPD     -0.230000       0.00000          -1   0.00000       0.00000    
     18249 MEOH     1230     MEOH     LP1B     LPD     -0.230000       0.00000          -1   0.00000       0.00000    
     18250 MEOH     1231     MEOH     C1       CD33B     2.31410       11.6110           0  -1.00000       1.30000    
     18251 MEOH     1231     MEOH     DC1      DRUD     -2.45410      0.400000           0   0.00000       0.00000    
     18252 MEOH     1231     MEOH     O1       OD31H     2.48830       15.5990           0  -1.02800       1.30000    
     18253 MEOH     1231     MEOH     DO1      DRUD     -2.48830      0.400000           0   0.00000       0.00000    
     18254 MEOH     1231     MEOH     HO1      HDP1A    0.360000       1.00800           0   0.00000       0.00000    
     18255 MEOH     1231     MEOH     HO2      DUMH      0.00000       1.00800           0   0.00000       0.00000    
     18256 MEOH     1231     MEOH     H1A      HDA3B    0.800000E-01   1.00800           0   0.00000       0.00000    
     18257 MEOH     1231     MEOH     H1B      HDA3B    0.800000E-01   1.00800           0   0.00000       0.00000    
     18258 MEOH     1231     MEOH     H1C      HDA3B    0.800000E-01   1.00800           0   0.00000       0.00000    
     18259 MEOH     1231     MEOH     LP1A     LPD     -0.230000       0.00000          -1   0.00000       0.00000    
     18260 MEOH     1231     MEOH     LP1B     LPD     -0.230000       0.00000          -1   0.00000       0.00000    
     18261 MEOH     1232     MEOH     C1       CD33B     2.31410       11.6110           0  -1.00000       1.30000    
     18262 MEOH     1232     MEOH     DC1      DRUD     -2.45410      0.400000           0   0.00000       0.00000    
     18263 MEOH     1232     MEOH     O1       OD31H     2.48830       15.5990           0  -1.02800       1.30000    
     18264 MEOH     1232     MEOH     DO1      DRUD     -2.48830      0.400000           0   0.00000       0.00000    
     18265 MEOH     1232     MEOH     HO1      HDP1A    0.360000       1.00800           0   0.00000       0.00000    
     18266 MEOH     1232     MEOH     HO2      DUMH      0.00000       1.00800           0   0.00000       0.00000    
     18267 MEOH     1232     MEOH     H1A      HDA3B    0.800000E-01   1.00800           0   0.00000       0.00000    
     18268 MEOH     1232     MEOH     H1B      HDA3B    0.800000E-01   1.00800           0   0.00000       0.00000    
     18269 MEOH     1232     MEOH     H1C      HDA3B    0.800000E-01   1.00800           0   0.00000       0.00000    
     18270 MEOH     1232     MEOH     LP1A     LPD     -0.230000       0.00000          -1   0.00000       0.00000    
     18271 MEOH     1232     MEOH     LP1B     LPD     -0.230000       0.00000          -1   0.00000       0.00000    
     18272 MEOH     1233     MEOH     C1       CD33B     2.31410       11.6110           0  -1.00000       1.30000    
     18273 MEOH     1233     MEOH     DC1      DRUD     -2.45410      0.400000           0   0.00000       0.00000    
     18274 MEOH     1233     MEOH     O1       OD31H     2.48830       15.5990           0  -1.02800       1.30000    
     18275 MEOH     1233     MEOH     DO1      DRUD     -2.48830      0.400000           0   0.00000       0.00000    
     18276 MEOH     1233     MEOH     HO1      HDP1A    0.360000       1.00800           0   0.00000       0.00000    
     18277 MEOH     1233     MEOH     HO2      DUMH      0.00000       1.00800           0   0.00000       0.00000    
     18278 MEOH     1233     MEOH     H1A      HDA3B    0.800000E-01   1.00800           0   0.00000       0.00000    
     18279 MEOH     1233     MEOH     H1B      HDA3B    0.800000E-01   1.00800           0   0.00000       0.00000    
     18280 MEOH     1233     MEOH     H1C      HDA3B    0.800000E-01   1.00800           0   0.00000       0.00000    
     18281 MEOH     1233     MEOH     LP1A     LPD     -0.230000       0.00000          -1   0.00000       0.00000    
     18282 MEOH     1233     MEOH     LP1B     LPD     -0.230000       0.00000          -1   0.00000       0.00000    
     18283 MEOH     1234     MEOH     C1       CD33B     2.31410       11.6110           0  -1.00000       1.30000    
     18284 MEOH     1234     MEOH     DC1      DRUD     -2.45410      0.400000           0   0.00000       0.00000    
     18285 MEOH     1234     MEOH     O1       OD31H     2.48830       15.5990           0  -1.02800       1.30000    
     18286 MEOH     1234     MEOH     DO1      DRUD     -2.48830      0.400000           0   0.00000       0.00000    
     18287 MEOH     1234     MEOH     HO1      HDP1A    0.360000       1.00800           0   0.00000       0.00000    
     18288 MEOH     1234     MEOH     HO2      DUMH      0.00000       1.00800           0   0.00000       0.00000    
     18289 MEOH     1234     MEOH     H1A      HDA3B    0.800000E-01   1.00800           0   0.00000       0.00000    
     18290 MEOH     1234     MEOH     H1B      HDA3B    0.800000E-01   1.00800           0   0.00000       0.00000    
     18291 MEOH     1234     MEOH     H1C      HDA3B    0.800000E-01   1.00800           0   0.00000       0.00000    
     18292 MEOH     1234     MEOH     LP1A     LPD     -0.230000       0.00000          -1   0.00000       0.00000    
     18293 MEOH     1234     MEOH     LP1B     LPD     -0.230000       0.00000          -1   0.00000       0.00000    
     18294 MEOH     1235     MEOH     C1       CD33B     2.31410       11.6110           0  -1.00000       1.30000    
     18295 MEOH     1235     MEOH     DC1      DRUD     -2.45410      0.400000           0   0.00000       0.00000    
     18296 MEOH     1235     MEOH     O1       OD31H     2.48830       15.5990           0  -1.02800       1.30000    
     18297 MEOH     1235     MEOH     DO1      DRUD     -2.48830      0.400000           0   0.00000       0.00000    
     18298 MEOH     1235     MEOH     HO1      HDP1A    0.360000       1.00800           0   0.00000       0.00000    
     18299 MEOH     1235     MEOH     HO2      DUMH      0.00000       1.00800           0   0.00000       0.00000    
     18300 MEOH     1235     MEOH     H1A      HDA3B    0.800000E-01   1.00800           0   0.00000       0.00000    
     18301 MEOH     1235     MEOH     H1B      HDA3B    0.800000E-01   1.00800           0   0.00000       0.00000    
     18302 MEOH     1235     MEOH     H1C      HDA3B    0.800000E-01   1.00800           0   0.00000       0.00000    
     18303 MEOH     1235     MEOH     LP1A     LPD     -0.230000       0.00000          -1   0.00000       0.00000    
     18304 MEOH     1235     MEOH     LP1B     LPD     -0.230000       0.00000          -1   0.00000       0.00000    
     18305 MEOH     1236     MEOH     C1       CD33B     2.31410       11.6110           0  -1.00000       1.30000    
     18306 MEOH     1236     MEOH     DC1      DRUD     -2.45410      0.400000           0   0.00000       0.00000    
     18307 MEOH     1236     MEOH     O1       OD31H     2.48830       15.5990           0  -1.02800       1.30000    
     18308 MEOH     1236     MEOH     DO1      DRUD     -2.48830      0.400000           0   0.00000       0.00000    
     18309 MEOH     1236     MEOH     HO1      HDP1A    0.360000       1.00800           0   0.00000       0.00000    
     18310 MEOH     1236     MEOH     HO2      DUMH      0.00000       1.00800           0   0.00000       0.00000    
     18311 MEOH     1236     MEOH     H1A      HDA3B    0.800000E-01   1.00800           0   0.00000       0.00000    
     18312 MEOH     1236     MEOH     H1B      HDA3B    0.800000E-01   1.00800           0   0.00000       0.00000    
     18313 MEOH     1236     MEOH     H1C      HDA3B    0.800000E-01   1.00800           0   0.00000       0.00000    
     18314 MEOH     1236     MEOH     LP1A     LPD     -0.230000       0.00000          -1   0.00000       0.00000    
     18315 MEOH     1236     MEOH     LP1B     LPD     -0.230000       0.00000          -1   0.00000       0.00000    
     18316 MEOH     1237     MEOH     C1       CD33B     2.31410       11.6110           0  -1.00000       1.30000    
     18317 MEOH     1237     MEOH     DC1      DRUD     -2.45410      0.400000           0   0.00000       0.00000    
     18318 MEOH     1237     MEOH     O1       OD31H     2.48830       15.5990           0  -1.02800       1.30000    
     18319 MEOH     1237     MEOH     DO1      DRUD     -2.48830      0.400000           0   0.00000       0.00000    
     18320 MEOH     1237     MEOH     HO1      HDP1A    0.360000       1.00800           0   0.00000       0.00000    
     18321 MEOH     1237     MEOH     HO2      DUMH      0.00000       1.00800           0   0.00000       0.00000    
     18322 MEOH     1237     MEOH     H1A      HDA3B    0.800000E-01   1.00800           0   0.00000       0.00000    
     18323 MEOH     1237     MEOH     H1B      HDA3B    0.800000E-01   1.00800           0   0.00000       0.00000    
     18324 MEOH     1237     MEOH     H1C      HDA3B    0.800000E-01   1.00800           0   0.00000       0.00000    
     18325 MEOH     1237     MEOH     LP1A     LPD     -0.230000       0.00000          -1   0.00000       0.00000    
     18326 MEOH     1237     MEOH     LP1B     LPD     -0.230000       0.00000          -1   0.00000       0.00000    
     18327 MEOH     1238     MEOH     C1       CD33B     2.31410       11.6110           0  -1.00000       1.30000    
     18328 MEOH     1238     MEOH     DC1      DRUD     -2.45410      0.400000           0   0.00000       0.00000    
     18329 MEOH     1238     MEOH     O1       OD31H     2.48830       15.5990           0  -1.02800       1.30000    
     18330 MEOH     1238     MEOH     DO1      DRUD     -2.48830      0.400000           0   0.00000       0.00000    
     18331 MEOH     1238     MEOH     HO1      HDP1A    0.360000       1.00800           0   0.00000       0.00000    
     18332 MEOH     1238     MEOH     HO2      DUMH      0.00000       1.00800           0   0.00000       0.00000    
     18333 MEOH     1238     MEOH     H1A      HDA3B    0.800000E-01   1.00800           0   0.00000       0.00000    
     18334 MEOH     1238     MEOH     H1B      HDA3B    0.800000E-01   1.00800           0   0.00000       0.00000    
     18335 MEOH     1238     MEOH     H1C      HDA3B    0.800000E-01   1.00800           0   0.00000       0.00000    
     18336 MEOH     1238     MEOH     LP1A     LPD     -0.230000       0.00000          -1   0.00000       0.00000    
     18337 MEOH     1238     MEOH     LP1B     LPD     -0.230000       0.00000          -1   0.00000       0.00000    
     18338 MEOH     1239     MEOH     C1       CD33B     2.31410       11.6110           0  -1.00000       1.30000    
     18339 MEOH     1239     MEOH     DC1      DRUD     -2.45410      0.400000           0   0.00000       0.00000    
     18340 MEOH     1239     MEOH     O1       OD31H     2.48830       15.5990           0  -1.02800       1.30000    
     18341 MEOH     1239     MEOH     DO1      DRUD     -2.48830      0.400000           0   0.00000       0.00000    
     18342 MEOH     1239     MEOH     HO1      HDP1A    0.360000       1.00800           0   0.00000       0.00000    
     18343 MEOH     1239     MEOH     HO2      DUMH      0.00000       1.00800           0   0.00000       0.00000    
     18344 MEOH     1239     MEOH     H1A      HDA3B    0.800000E-01   1.00800           0   0.00000       0.00000    
     18345 MEOH     1239     MEOH     H1B      HDA3B    0.800000E-01   1.00800           0   0.00000       0.00000    
     18346 MEOH     1239     MEOH     H1C      HDA3B    0.800000E-01   1.00800           0   0.00000       0.00000    
     18347 MEOH     1239     MEOH     LP1A     LPD     -0.230000       0.00000          -1   0.00000       0.00000    
     18348 MEOH     1239     MEOH     LP1B     LPD     -0.230000       0.00000          -1   0.00000       0.00000    
     18349 MEOH     1240     MEOH     C1       CD33B     2.31410       11.6110           0  -1.00000       1.30000    
     18350 MEOH     1240     MEOH     DC1      DRUD     -2.45410      0.400000           0   0.00000       0.00000    
     18351 MEOH     1240     MEOH     O1       OD31H     2.48830       15.5990           0  -1.02800       1.30000    
     18352 MEOH     1240     MEOH     DO1      DRUD     -2.48830      0.400000           0   0.00000       0.00000    
     18353 MEOH     1240     MEOH     HO1      HDP1A    0.360000       1.00800           0   0.00000       0.00000    
     18354 MEOH     1240     MEOH     HO2      DUMH      0.00000       1.00800           0   0.00000       0.00000    
     18355 MEOH     1240     MEOH     H1A      HDA3B    0.800000E-01   1.00800           0   0.00000       0.00000    
     18356 MEOH     1240     MEOH     H1B      HDA3B    0.800000E-01   1.00800           0   0.00000       0.00000    
     18357 MEOH     1240     MEOH     H1C      HDA3B    0.800000E-01   1.00800           0   0.00000       0.00000    
     18358 MEOH     1240     MEOH     LP1A     LPD     -0.230000       0.00000          -1   0.00000       0.00000    
     18359 MEOH     1240     MEOH     LP1B     LPD     -0.230000       0.00000          -1   0.00000       0.00000    
     18360 MEOH     1241     MEOH     C1       CD33B     2.31410       11.6110           0  -1.00000       1.30000    
     18361 MEOH     1241     MEOH     DC1      DRUD     -2.45410      0.400000           0   0.00000       0.00000    
     18362 MEOH     1241     MEOH     O1       OD31H     2.48830       15.5990           0  -1.02800       1.30000    
     18363 MEOH     1241     MEOH     DO1      DRUD     -2.48830      0.400000           0   0.00000       0.00000    
     18364 MEOH     1241     MEOH     HO1      HDP1A    0.360000       1.00800           0   0.00000       0.00000    
     18365 MEOH     1241     MEOH     HO2      DUMH      0.00000       1.00800           0   0.00000       0.00000    
     18366 MEOH     1241     MEOH     H1A      HDA3B    0.800000E-01   1.00800           0   0.00000       0.00000    
     18367 MEOH     1241     MEOH     H1B      HDA3B    0.800000E-01   1.00800           0   0.00000       0.00000    
     18368 MEOH     1241     MEOH     H1C      HDA3B    0.800000E-01   1.00800           0   0.00000       0.00000    
     18369 MEOH     1241     MEOH     LP1A     LPD     -0.230000       0.00000          -1   0.00000       0.00000    
     18370 MEOH     1241     MEOH     LP1B     LPD     -0.230000       0.00000          -1   0.00000       0.00000    
     18371 MEOH     1242     MEOH     C1       CD33B     2.31410       11.6110           0  -1.00000       1.30000    
     18372 MEOH     1242     MEOH     DC1      DRUD     -2.45410      0.400000           0   0.00000       0.00000    
     18373 MEOH     1242     MEOH     O1       OD31H     2.48830       15.5990           0  -1.02800       1.30000    
     18374 MEOH     1242     MEOH     DO1      DRUD     -2.48830      0.400000           0   0.00000       0.00000    
     18375 MEOH     1242     MEOH     HO1      HDP1A    0.360000       1.00800           0   0.00000       0.00000    
     18376 MEOH     1242     MEOH     HO2      DUMH      0.00000       1.00800           0   0.00000       0.00000    
     18377 MEOH     1242     MEOH     H1A      HDA3B    0.800000E-01   1.00800           0   0.00000       0.00000    
     18378 MEOH     1242     MEOH     H1B      HDA3B    0.800000E-01   1.00800           0   0.00000       0.00000    
     18379 MEOH     1242     MEOH     H1C      HDA3B    0.800000E-01   1.00800           0   0.00000       0.00000    
     18380 MEOH     1242     MEOH     LP1A     LPD     -0.230000       0.00000          -1   0.00000       0.00000    
     18381 MEOH     1242     MEOH     LP1B     LPD     -0.230000       0.00000          -1   0.00000       0.00000    
     18382 MEOH     1243     MEOH     C1       CD33B     2.31410       11.6110           0  -1.00000       1.30000    
     18383 MEOH     1243     MEOH     DC1      DRUD     -2.45410      0.400000           0   0.00000       0.00000    
     18384 MEOH     1243     MEOH     O1       OD31H     2.48830       15.5990           0  -1.02800       1.30000    
     18385 MEOH     1243     MEOH     DO1      DRUD     -2.48830      0.400000           0   0.00000       0.00000    
     18386 MEOH     1243     MEOH     HO1      HDP1A    0.360000       1.00800           0   0.00000       0.00000    
     18387 MEOH     1243     MEOH     HO2      DUMH      0.00000       1.00800           0   0.00000       0.00000    
     18388 MEOH     1243     MEOH     H1A      HDA3B    0.800000E-01   1.00800           0   0.00000       0.00000    
     18389 MEOH     1243     MEOH     H1B      HDA3B    0.800000E-01   1.00800           0   0.00000       0.00000    
     18390 MEOH     1243     MEOH     H1C      HDA3B    0.800000E-01   1.00800           0   0.00000       0.00000    
     18391 MEOH     1243     MEOH     LP1A     LPD     -0.230000       0.00000          -1   0.00000       0.00000    
     18392 MEOH     1243     MEOH     LP1B     LPD     -0.230000       0.00000          -1   0.00000       0.00000    
     18393 MEOH     1244     MEOH     C1       CD33B     2.31410       11.6110           0  -1.00000       1.30000    
     18394 MEOH     1244     MEOH     DC1      DRUD     -2.45410      0.400000           0   0.00000       0.00000    
     18395 MEOH     1244     MEOH     O1       OD31H     2.48830       15.5990           0  -1.02800       1.30000    
     18396 MEOH     1244     MEOH     DO1      DRUD     -2.48830      0.400000           0   0.00000       0.00000    
     18397 MEOH     1244     MEOH     HO1      HDP1A    0.360000       1.00800           0   0.00000       0.00000    
     18398 MEOH     1244     MEOH     HO2      DUMH      0.00000       1.00800           0   0.00000       0.00000    
     18399 MEOH     1244     MEOH     H1A      HDA3B    0.800000E-01   1.00800           0   0.00000       0.00000    
     18400 MEOH     1244     MEOH     H1B      HDA3B    0.800000E-01   1.00800           0   0.00000       0.00000    
     18401 MEOH     1244     MEOH     H1C      HDA3B    0.800000E-01   1.00800           0   0.00000       0.00000    
     18402 MEOH     1244     MEOH     LP1A     LPD     -0.230000       0.00000          -1   0.00000       0.00000    
     18403 MEOH     1244     MEOH     LP1B     LPD     -0.230000       0.00000          -1   0.00000       0.00000    
     18404 MEOH     1245     MEOH     C1       CD33B     2.31410       11.6110           0  -1.00000       1.30000    
     18405 MEOH     1245     MEOH     DC1      DRUD     -2.45410      0.400000           0   0.00000       0.00000    
     18406 MEOH     1245     MEOH     O1       OD31H     2.48830       15.5990           0  -1.02800       1.30000    
     18407 MEOH     1245     MEOH     DO1      DRUD     -2.48830      0.400000           0   0.00000       0.00000    
     18408 MEOH     1245     MEOH     HO1      HDP1A    0.360000       1.00800           0   0.00000       0.00000    
     18409 MEOH     1245     MEOH     HO2      DUMH      0.00000       1.00800           0   0.00000       0.00000    
     18410 MEOH     1245     MEOH     H1A      HDA3B    0.800000E-01   1.00800           0   0.00000       0.00000    
     18411 MEOH     1245     MEOH     H1B      HDA3B    0.800000E-01   1.00800           0   0.00000       0.00000    
     18412 MEOH     1245     MEOH     H1C      HDA3B    0.800000E-01   1.00800           0   0.00000       0.00000    
     18413 MEOH     1245     MEOH     LP1A     LPD     -0.230000       0.00000          -1   0.00000       0.00000    
     18414 MEOH     1245     MEOH     LP1B     LPD     -0.230000       0.00000          -1   0.00000       0.00000    
     18415 MEOH     1246     MEOH     C1       CD33B     2.31410       11.6110           0  -1.00000       1.30000    
     18416 MEOH     1246     MEOH     DC1      DRUD     -2.45410      0.400000           0   0.00000       0.00000    
     18417 MEOH     1246     MEOH     O1       OD31H     2.48830       15.5990           0  -1.02800       1.30000    
     18418 MEOH     1246     MEOH     DO1      DRUD     -2.48830      0.400000           0   0.00000       0.00000    
     18419 MEOH     1246     MEOH     HO1      HDP1A    0.360000       1.00800           0   0.00000       0.00000    
     18420 MEOH     1246     MEOH     HO2      DUMH      0.00000       1.00800           0   0.00000       0.00000    
     18421 MEOH     1246     MEOH     H1A      HDA3B    0.800000E-01   1.00800           0   0.00000       0.00000    
     18422 MEOH     1246     MEOH     H1B      HDA3B    0.800000E-01   1.00800           0   0.00000       0.00000    
     18423 MEOH     1246     MEOH     H1C      HDA3B    0.800000E-01   1.00800           0   0.00000       0.00000    
     18424 MEOH     1246     MEOH     LP1A     LPD     -0.230000       0.00000          -1   0.00000       0.00000    
     18425 MEOH     1246     MEOH     LP1B     LPD     -0.230000       0.00000          -1   0.00000       0.00000    
     18426 MEOH     1247     MEOH     C1       CD33B     2.31410       11.6110           0  -1.00000       1.30000    
     18427 MEOH     1247     MEOH     DC1      DRUD     -2.45410      0.400000           0   0.00000       0.00000    
     18428 MEOH     1247     MEOH     O1       OD31H     2.48830       15.5990           0  -1.02800       1.30000    
     18429 MEOH     1247     MEOH     DO1      DRUD     -2.48830      0.400000           0   0.00000       0.00000    
     18430 MEOH     1247     MEOH     HO1      HDP1A    0.360000       1.00800           0   0.00000       0.00000    
     18431 MEOH     1247     MEOH     HO2      DUMH      0.00000       1.00800           0   0.00000       0.00000    
     18432 MEOH     1247     MEOH     H1A      HDA3B    0.800000E-01   1.00800           0   0.00000       0.00000    
     18433 MEOH     1247     MEOH     H1B      HDA3B    0.800000E-01   1.00800           0   0.00000       0.00000    
     18434 MEOH     1247     MEOH     H1C      HDA3B    0.800000E-01   1.00800           0   0.00000       0.00000    
     18435 MEOH     1247     MEOH     LP1A     LPD     -0.230000       0.00000          -1   0.00000       0.00000    
     18436 MEOH     1247     MEOH     LP1B     LPD     -0.230000       0.00000          -1   0.00000       0.00000    
     18437 MEOH     1248     MEOH     C1       CD33B     2.31410       11.6110           0  -1.00000       1.30000    
     18438 MEOH     1248     MEOH     DC1      DRUD     -2.45410      0.400000           0   0.00000       0.00000    
     18439 MEOH     1248     MEOH     O1       OD31H     2.48830       15.5990           0  -1.02800       1.30000    
     18440 MEOH     1248     MEOH     DO1      DRUD     -2.48830      0.400000           0   0.00000       0.00000    
     18441 MEOH     1248     MEOH     HO1      HDP1A    0.360000       1.00800           0   0.00000       0.00000    
     18442 MEOH     1248     MEOH     HO2      DUMH      0.00000       1.00800           0   0.00000       0.00000    
     18443 MEOH     1248     MEOH     H1A      HDA3B    0.800000E-01   1.00800           0   0.00000       0.00000    
     18444 MEOH     1248     MEOH     H1B      HDA3B    0.800000E-01   1.00800           0   0.00000       0.00000    
     18445 MEOH     1248     MEOH     H1C      HDA3B    0.800000E-01   1.00800           0   0.00000       0.00000    
     18446 MEOH     1248     MEOH     LP1A     LPD     -0.230000       0.00000          -1   0.00000       0.00000    
     18447 MEOH     1248     MEOH     LP1B     LPD     -0.230000       0.00000          -1   0.00000       0.00000    
     18448 MEOH     1249     MEOH     C1       CD33B     2.31410       11.6110           0  -1.00000       1.30000    
     18449 MEOH     1249     MEOH     DC1      DRUD     -2.45410      0.400000           0   0.00000       0.00000    
     18450 MEOH     1249     MEOH     O1       OD31H     2.48830       15.5990           0  -1.02800       1.30000    
     18451 MEOH     1249     MEOH     DO1      DRUD     -2.48830      0.400000           0   0.00000       0.00000    
     18452 MEOH     1249     MEOH     HO1      HDP1A    0.360000       1.00800           0   0.00000       0.00000    
     18453 MEOH     1249     MEOH     HO2      DUMH      0.00000       1.00800           0   0.00000       0.00000    
     18454 MEOH     1249     MEOH     H1A      HDA3B    0.800000E-01   1.00800           0   0.00000       0.00000    
     18455 MEOH     1249     MEOH     H1B      HDA3B    0.800000E-01   1.00800           0   0.00000       0.00000    
     18456 MEOH     1249     MEOH     H1C      HDA3B    0.800000E-01   1.00800           0   0.00000       0.00000    
     18457 MEOH     1249     MEOH     LP1A     LPD     -0.230000       0.00000          -1   0.00000       0.00000    
     18458 MEOH     1249     MEOH     LP1B     LPD     -0.230000       0.00000          -1   0.00000       0.00000    
     18459 MEOH     1250     MEOH     C1       CD33B     2.31410       11.6110           0  -1.00000       1.30000    
     18460 MEOH     1250     MEOH     DC1      DRUD     -2.45410      0.400000           0   0.00000       0.00000    
     18461 MEOH     1250     MEOH     O1       OD31H     2.48830       15.5990           0  -1.02800       1.30000    
     18462 MEOH     1250     MEOH     DO1      DRUD     -2.48830      0.400000           0   0.00000       0.00000    
     18463 MEOH     1250     MEOH     HO1      HDP1A    0.360000       1.00800           0   0.00000       0.00000    
     18464 MEOH     1250     MEOH     HO2      DUMH      0.00000       1.00800           0   0.00000       0.00000    
     18465 MEOH     1250     MEOH     H1A      HDA3B    0.800000E-01   1.00800           0   0.00000       0.00000    
     18466 MEOH     1250     MEOH     H1B      HDA3B    0.800000E-01   1.00800           0   0.00000       0.00000    
     18467 MEOH     1250     MEOH     H1C      HDA3B    0.800000E-01   1.00800           0   0.00000       0.00000    
     18468 MEOH     1250     MEOH     LP1A     LPD     -0.230000       0.00000          -1   0.00000       0.00000    
     18469 MEOH     1250     MEOH     LP1B     LPD     -0.230000       0.00000          -1   0.00000       0.00000    
     18470 MEOH     1251     MEOH     C1       CD33B     2.31410       11.6110           0  -1.00000       1.30000    
     18471 MEOH     1251     MEOH     DC1      DRUD     -2.45410      0.400000           0   0.00000       0.00000    
     18472 MEOH     1251     MEOH     O1       OD31H     2.48830       15.5990           0  -1.02800       1.30000    
     18473 MEOH     1251     MEOH     DO1      DRUD     -2.48830      0.400000           0   0.00000       0.00000    
     18474 MEOH     1251     MEOH     HO1      HDP1A    0.360000       1.00800           0   0.00000       0.00000    
     18475 MEOH     1251     MEOH     HO2      DUMH      0.00000       1.00800           0   0.00000       0.00000    
     18476 MEOH     1251     MEOH     H1A      HDA3B    0.800000E-01   1.00800           0   0.00000       0.00000    
     18477 MEOH     1251     MEOH     H1B      HDA3B    0.800000E-01   1.00800           0   0.00000       0.00000    
     18478 MEOH     1251     MEOH     H1C      HDA3B    0.800000E-01   1.00800           0   0.00000       0.00000    
     18479 MEOH     1251     MEOH     LP1A     LPD     -0.230000       0.00000          -1   0.00000       0.00000    
     18480 MEOH     1251     MEOH     LP1B     LPD     -0.230000       0.00000          -1   0.00000       0.00000    
     18481 MEOH     1252     MEOH     C1       CD33B     2.31410       11.6110           0  -1.00000       1.30000    
     18482 MEOH     1252     MEOH     DC1      DRUD     -2.45410      0.400000           0   0.00000       0.00000    
     18483 MEOH     1252     MEOH     O1       OD31H     2.48830       15.5990           0  -1.02800       1.30000    
     18484 MEOH     1252     MEOH     DO1      DRUD     -2.48830      0.400000           0   0.00000       0.00000    
     18485 MEOH     1252     MEOH     HO1      HDP1A    0.360000       1.00800           0   0.00000       0.00000    
     18486 MEOH     1252     MEOH     HO2      DUMH      0.00000       1.00800           0   0.00000       0.00000    
     18487 MEOH     1252     MEOH     H1A      HDA3B    0.800000E-01   1.00800           0   0.00000       0.00000    
     18488 MEOH     1252     MEOH     H1B      HDA3B    0.800000E-01   1.00800           0   0.00000       0.00000    
     18489 MEOH     1252     MEOH     H1C      HDA3B    0.800000E-01   1.00800           0   0.00000       0.00000    
     18490 MEOH     1252     MEOH     LP1A     LPD     -0.230000       0.00000          -1   0.00000       0.00000    
     18491 MEOH     1252     MEOH     LP1B     LPD     -0.230000       0.00000          -1   0.00000       0.00000    
     18492 MEOH     1253     MEOH     C1       CD33B     2.31410       11.6110           0  -1.00000       1.30000    
     18493 MEOH     1253     MEOH     DC1      DRUD     -2.45410      0.400000           0   0.00000       0.00000    
     18494 MEOH     1253     MEOH     O1       OD31H     2.48830       15.5990           0  -1.02800       1.30000    
     18495 MEOH     1253     MEOH     DO1      DRUD     -2.48830      0.400000           0   0.00000       0.00000    
     18496 MEOH     1253     MEOH     HO1      HDP1A    0.360000       1.00800           0   0.00000       0.00000    
     18497 MEOH     1253     MEOH     HO2      DUMH      0.00000       1.00800           0   0.00000       0.00000    
     18498 MEOH     1253     MEOH     H1A      HDA3B    0.800000E-01   1.00800           0   0.00000       0.00000    
     18499 MEOH     1253     MEOH     H1B      HDA3B    0.800000E-01   1.00800           0   0.00000       0.00000    
     18500 MEOH     1253     MEOH     H1C      HDA3B    0.800000E-01   1.00800           0   0.00000       0.00000    
     18501 MEOH     1253     MEOH     LP1A     LPD     -0.230000       0.00000          -1   0.00000       0.00000    
     18502 MEOH     1253     MEOH     LP1B     LPD     -0.230000       0.00000          -1   0.00000       0.00000    
     18503 MEOH     1254     MEOH     C1       CD33B     2.31410       11.6110           0  -1.00000       1.30000    
     18504 MEOH     1254     MEOH     DC1      DRUD     -2.45410      0.400000           0   0.00000       0.00000    
     18505 MEOH     1254     MEOH     O1       OD31H     2.48830       15.5990           0  -1.02800       1.30000    
     18506 MEOH     1254     MEOH     DO1      DRUD     -2.48830      0.400000           0   0.00000       0.00000    
     18507 MEOH     1254     MEOH     HO1      HDP1A    0.360000       1.00800           0   0.00000       0.00000    
     18508 MEOH     1254     MEOH     HO2      DUMH      0.00000       1.00800           0   0.00000       0.00000    
     18509 MEOH     1254     MEOH     H1A      HDA3B    0.800000E-01   1.00800           0   0.00000       0.00000    
     18510 MEOH     1254     MEOH     H1B      HDA3B    0.800000E-01   1.00800           0   0.00000       0.00000    
     18511 MEOH     1254     MEOH     H1C      HDA3B    0.800000E-01   1.00800           0   0.00000       0.00000    
     18512 MEOH     1254     MEOH     LP1A     LPD     -0.230000       0.00000          -1   0.00000       0.00000    
     18513 MEOH     1254     MEOH     LP1B     LPD     -0.230000       0.00000          -1   0.00000       0.00000    
     18514 MEOH     1255     MEOH     C1       CD33B     2.31410       11.6110           0  -1.00000       1.30000    
     18515 MEOH     1255     MEOH     DC1      DRUD     -2.45410      0.400000           0   0.00000       0.00000    
     18516 MEOH     1255     MEOH     O1       OD31H     2.48830       15.5990           0  -1.02800       1.30000    
     18517 MEOH     1255     MEOH     DO1      DRUD     -2.48830      0.400000           0   0.00000       0.00000    
     18518 MEOH     1255     MEOH     HO1      HDP1A    0.360000       1.00800           0   0.00000       0.00000    
     18519 MEOH     1255     MEOH     HO2      DUMH      0.00000       1.00800           0   0.00000       0.00000    
     18520 MEOH     1255     MEOH     H1A      HDA3B    0.800000E-01   1.00800           0   0.00000       0.00000    
     18521 MEOH     1255     MEOH     H1B      HDA3B    0.800000E-01   1.00800           0   0.00000       0.00000    
     18522 MEOH     1255     MEOH     H1C      HDA3B    0.800000E-01   1.00800           0   0.00000       0.00000    
     18523 MEOH     1255     MEOH     LP1A     LPD     -0.230000       0.00000          -1   0.00000       0.00000    
     18524 MEOH     1255     MEOH     LP1B     LPD     -0.230000       0.00000          -1   0.00000       0.00000    
     18525 MEOH     1256     MEOH     C1       CD33B     2.31410       11.6110           0  -1.00000       1.30000    
     18526 MEOH     1256     MEOH     DC1      DRUD     -2.45410      0.400000           0   0.00000       0.00000    
     18527 MEOH     1256     MEOH     O1       OD31H     2.48830       15.5990           0  -1.02800       1.30000    
     18528 MEOH     1256     MEOH     DO1      DRUD     -2.48830      0.400000           0   0.00000       0.00000    
     18529 MEOH     1256     MEOH     HO1      HDP1A    0.360000       1.00800           0   0.00000       0.00000    
     18530 MEOH     1256     MEOH     HO2      DUMH      0.00000       1.00800           0   0.00000       0.00000    
     18531 MEOH     1256     MEOH     H1A      HDA3B    0.800000E-01   1.00800           0   0.00000       0.00000    
     18532 MEOH     1256     MEOH     H1B      HDA3B    0.800000E-01   1.00800           0   0.00000       0.00000    
     18533 MEOH     1256     MEOH     H1C      HDA3B    0.800000E-01   1.00800           0   0.00000       0.00000    
     18534 MEOH     1256     MEOH     LP1A     LPD     -0.230000       0.00000          -1   0.00000       0.00000    
     18535 MEOH     1256     MEOH     LP1B     LPD     -0.230000       0.00000          -1   0.00000       0.00000    
     18536 MEOH     1257     MEOH     C1       CD33B     2.31410       11.6110           0  -1.00000       1.30000    
     18537 MEOH     1257     MEOH     DC1      DRUD     -2.45410      0.400000           0   0.00000       0.00000    
     18538 MEOH     1257     MEOH     O1       OD31H     2.48830       15.5990           0  -1.02800       1.30000    
     18539 MEOH     1257     MEOH     DO1      DRUD     -2.48830      0.400000           0   0.00000       0.00000    
     18540 MEOH     1257     MEOH     HO1      HDP1A    0.360000       1.00800           0   0.00000       0.00000    
     18541 MEOH     1257     MEOH     HO2      DUMH      0.00000       1.00800           0   0.00000       0.00000    
     18542 MEOH     1257     MEOH     H1A      HDA3B    0.800000E-01   1.00800           0   0.00000       0.00000    
     18543 MEOH     1257     MEOH     H1B      HDA3B    0.800000E-01   1.00800           0   0.00000       0.00000    
     18544 MEOH     1257     MEOH     H1C      HDA3B    0.800000E-01   1.00800           0   0.00000       0.00000    
     18545 MEOH     1257     MEOH     LP1A     LPD     -0.230000       0.00000          -1   0.00000       0.00000    
     18546 MEOH     1257     MEOH     LP1B     LPD     -0.230000       0.00000          -1   0.00000       0.00000    
     18547 MEOH     1258     MEOH     C1       CD33B     2.31410       11.6110           0  -1.00000       1.30000    
     18548 MEOH     1258     MEOH     DC1      DRUD     -2.45410      0.400000           0   0.00000       0.00000    
     18549 MEOH     1258     MEOH     O1       OD31H     2.48830       15.5990           0  -1.02800       1.30000    
     18550 MEOH     1258     MEOH     DO1      DRUD     -2.48830      0.400000           0   0.00000       0.00000    
     18551 MEOH     1258     MEOH     HO1      HDP1A    0.360000       1.00800           0   0.00000       0.00000    
     18552 MEOH     1258     MEOH     HO2      DUMH      0.00000       1.00800           0   0.00000       0.00000    
     18553 MEOH     1258     MEOH     H1A      HDA3B    0.800000E-01   1.00800           0   0.00000       0.00000    
     18554 MEOH     1258     MEOH     H1B      HDA3B    0.800000E-01   1.00800           0   0.00000       0.00000    
     18555 MEOH     1258     MEOH     H1C      HDA3B    0.800000E-01   1.00800           0   0.00000       0.00000    
     18556 MEOH     1258     MEOH     LP1A     LPD     -0.230000       0.00000          -1   0.00000       0.00000    
     18557 MEOH     1258     MEOH     LP1B     LPD     -0.230000       0.00000          -1   0.00000       0.00000    
     18558 MEOH     1259     MEOH     C1       CD33B     2.31410       11.6110           0  -1.00000       1.30000    
     18559 MEOH     1259     MEOH     DC1      DRUD     -2.45410      0.400000           0   0.00000       0.00000    
     18560 MEOH     1259     MEOH     O1       OD31H     2.48830       15.5990           0  -1.02800       1.30000    
     18561 MEOH     1259     MEOH     DO1      DRUD     -2.48830      0.400000           0   0.00000       0.00000    
     18562 MEOH     1259     MEOH     HO1      HDP1A    0.360000       1.00800           0   0.00000       0.00000    
     18563 MEOH     1259     MEOH     HO2      DUMH      0.00000       1.00800           0   0.00000       0.00000    
     18564 MEOH     1259     MEOH     H1A      HDA3B    0.800000E-01   1.00800           0   0.00000       0.00000    
     18565 MEOH     1259     MEOH     H1B      HDA3B    0.800000E-01   1.00800           0   0.00000       0.00000    
     18566 MEOH     1259     MEOH     H1C      HDA3B    0.800000E-01   1.00800           0   0.00000       0.00000    
     18567 MEOH     1259     MEOH     LP1A     LPD     -0.230000       0.00000          -1   0.00000       0.00000    
     18568 MEOH     1259     MEOH     LP1B     LPD     -0.230000       0.00000          -1   0.00000       0.00000    
     18569 MEOH     1260     MEOH     C1       CD33B     2.31410       11.6110           0  -1.00000       1.30000    
     18570 MEOH     1260     MEOH     DC1      DRUD     -2.45410      0.400000           0   0.00000       0.00000    
     18571 MEOH     1260     MEOH     O1       OD31H     2.48830       15.5990           0  -1.02800       1.30000    
     18572 MEOH     1260     MEOH     DO1      DRUD     -2.48830      0.400000           0   0.00000       0.00000    
     18573 MEOH     1260     MEOH     HO1      HDP1A    0.360000       1.00800           0   0.00000       0.00000    
     18574 MEOH     1260     MEOH     HO2      DUMH      0.00000       1.00800           0   0.00000       0.00000    
     18575 MEOH     1260     MEOH     H1A      HDA3B    0.800000E-01   1.00800           0   0.00000       0.00000    
     18576 MEOH     1260     MEOH     H1B      HDA3B    0.800000E-01   1.00800           0   0.00000       0.00000    
     18577 MEOH     1260     MEOH     H1C      HDA3B    0.800000E-01   1.00800           0   0.00000       0.00000    
     18578 MEOH     1260     MEOH     LP1A     LPD     -0.230000       0.00000          -1   0.00000       0.00000    
     18579 MEOH     1260     MEOH     LP1B     LPD     -0.230000       0.00000          -1   0.00000       0.00000    
     18580 MEOH     1261     MEOH     C1       CD33B     2.31410       11.6110           0  -1.00000       1.30000    
     18581 MEOH     1261     MEOH     DC1      DRUD     -2.45410      0.400000           0   0.00000       0.00000    
     18582 MEOH     1261     MEOH     O1       OD31H     2.48830       15.5990           0  -1.02800       1.30000    
     18583 MEOH     1261     MEOH     DO1      DRUD     -2.48830      0.400000           0   0.00000       0.00000    
     18584 MEOH     1261     MEOH     HO1      HDP1A    0.360000       1.00800           0   0.00000       0.00000    
     18585 MEOH     1261     MEOH     HO2      DUMH      0.00000       1.00800           0   0.00000       0.00000    
     18586 MEOH     1261     MEOH     H1A      HDA3B    0.800000E-01   1.00800           0   0.00000       0.00000    
     18587 MEOH     1261     MEOH     H1B      HDA3B    0.800000E-01   1.00800           0   0.00000       0.00000    
     18588 MEOH     1261     MEOH     H1C      HDA3B    0.800000E-01   1.00800           0   0.00000       0.00000    
     18589 MEOH     1261     MEOH     LP1A     LPD     -0.230000       0.00000          -1   0.00000       0.00000    
     18590 MEOH     1261     MEOH     LP1B     LPD     -0.230000       0.00000          -1   0.00000       0.00000    
     18591 MEOH     1262     MEOH     C1       CD33B     2.31410       11.6110           0  -1.00000       1.30000    
     18592 MEOH     1262     MEOH     DC1      DRUD     -2.45410      0.400000           0   0.00000       0.00000    
     18593 MEOH     1262     MEOH     O1       OD31H     2.48830       15.5990           0  -1.02800       1.30000    
     18594 MEOH     1262     MEOH     DO1      DRUD     -2.48830      0.400000           0   0.00000       0.00000    
     18595 MEOH     1262     MEOH     HO1      HDP1A    0.360000       1.00800           0   0.00000       0.00000    
     18596 MEOH     1262     MEOH     HO2      DUMH      0.00000       1.00800           0   0.00000       0.00000    
     18597 MEOH     1262     MEOH     H1A      HDA3B    0.800000E-01   1.00800           0   0.00000       0.00000    
     18598 MEOH     1262     MEOH     H1B      HDA3B    0.800000E-01   1.00800           0   0.00000       0.00000    
     18599 MEOH     1262     MEOH     H1C      HDA3B    0.800000E-01   1.00800           0   0.00000       0.00000    
     18600 MEOH     1262     MEOH     LP1A     LPD     -0.230000       0.00000          -1   0.00000       0.00000    
     18601 MEOH     1262     MEOH     LP1B     LPD     -0.230000       0.00000          -1   0.00000       0.00000    
     18602 MEOH     1263     MEOH     C1       CD33B     2.31410       11.6110           0  -1.00000       1.30000    
     18603 MEOH     1263     MEOH     DC1      DRUD     -2.45410      0.400000           0   0.00000       0.00000    
     18604 MEOH     1263     MEOH     O1       OD31H     2.48830       15.5990           0  -1.02800       1.30000    
     18605 MEOH     1263     MEOH     DO1      DRUD     -2.48830      0.400000           0   0.00000       0.00000    
     18606 MEOH     1263     MEOH     HO1      HDP1A    0.360000       1.00800           0   0.00000       0.00000    
     18607 MEOH     1263     MEOH     HO2      DUMH      0.00000       1.00800           0   0.00000       0.00000    
     18608 MEOH     1263     MEOH     H1A      HDA3B    0.800000E-01   1.00800           0   0.00000       0.00000    
     18609 MEOH     1263     MEOH     H1B      HDA3B    0.800000E-01   1.00800           0   0.00000       0.00000    
     18610 MEOH     1263     MEOH     H1C      HDA3B    0.800000E-01   1.00800           0   0.00000       0.00000    
     18611 MEOH     1263     MEOH     LP1A     LPD     -0.230000       0.00000          -1   0.00000       0.00000    
     18612 MEOH     1263     MEOH     LP1B     LPD     -0.230000       0.00000          -1   0.00000       0.00000    
     18613 MEOH     1264     MEOH     C1       CD33B     2.31410       11.6110           0  -1.00000       1.30000    
     18614 MEOH     1264     MEOH     DC1      DRUD     -2.45410      0.400000           0   0.00000       0.00000    
     18615 MEOH     1264     MEOH     O1       OD31H     2.48830       15.5990           0  -1.02800       1.30000    
     18616 MEOH     1264     MEOH     DO1      DRUD     -2.48830      0.400000           0   0.00000       0.00000    
     18617 MEOH     1264     MEOH     HO1      HDP1A    0.360000       1.00800           0   0.00000       0.00000    
     18618 MEOH     1264     MEOH     HO2      DUMH      0.00000       1.00800           0   0.00000       0.00000    
     18619 MEOH     1264     MEOH     H1A      HDA3B    0.800000E-01   1.00800           0   0.00000       0.00000    
     18620 MEOH     1264     MEOH     H1B      HDA3B    0.800000E-01   1.00800           0   0.00000       0.00000    
     18621 MEOH     1264     MEOH     H1C      HDA3B    0.800000E-01   1.00800           0   0.00000       0.00000    
     18622 MEOH     1264     MEOH     LP1A     LPD     -0.230000       0.00000          -1   0.00000       0.00000    
     18623 MEOH     1264     MEOH     LP1B     LPD     -0.230000       0.00000          -1   0.00000       0.00000    
     18624 MEOH     1265     MEOH     C1       CD33B     2.31410       11.6110           0  -1.00000       1.30000    
     18625 MEOH     1265     MEOH     DC1      DRUD     -2.45410      0.400000           0   0.00000       0.00000    
     18626 MEOH     1265     MEOH     O1       OD31H     2.48830       15.5990           0  -1.02800       1.30000    
     18627 MEOH     1265     MEOH     DO1      DRUD     -2.48830      0.400000           0   0.00000       0.00000    
     18628 MEOH     1265     MEOH     HO1      HDP1A    0.360000       1.00800           0   0.00000       0.00000    
     18629 MEOH     1265     MEOH     HO2      DUMH      0.00000       1.00800           0   0.00000       0.00000    
     18630 MEOH     1265     MEOH     H1A      HDA3B    0.800000E-01   1.00800           0   0.00000       0.00000    
     18631 MEOH     1265     MEOH     H1B      HDA3B    0.800000E-01   1.00800           0   0.00000       0.00000    
     18632 MEOH     1265     MEOH     H1C      HDA3B    0.800000E-01   1.00800           0   0.00000       0.00000    
     18633 MEOH     1265     MEOH     LP1A     LPD     -0.230000       0.00000          -1   0.00000       0.00000    
     18634 MEOH     1265     MEOH     LP1B     LPD     -0.230000       0.00000          -1   0.00000       0.00000    
     18635 MEOH     1266     MEOH     C1       CD33B     2.31410       11.6110           0  -1.00000       1.30000    
     18636 MEOH     1266     MEOH     DC1      DRUD     -2.45410      0.400000           0   0.00000       0.00000    
     18637 MEOH     1266     MEOH     O1       OD31H     2.48830       15.5990           0  -1.02800       1.30000    
     18638 MEOH     1266     MEOH     DO1      DRUD     -2.48830      0.400000           0   0.00000       0.00000    
     18639 MEOH     1266     MEOH     HO1      HDP1A    0.360000       1.00800           0   0.00000       0.00000    
     18640 MEOH     1266     MEOH     HO2      DUMH      0.00000       1.00800           0   0.00000       0.00000    
     18641 MEOH     1266     MEOH     H1A      HDA3B    0.800000E-01   1.00800           0   0.00000       0.00000    
     18642 MEOH     1266     MEOH     H1B      HDA3B    0.800000E-01   1.00800           0   0.00000       0.00000    
     18643 MEOH     1266     MEOH     H1C      HDA3B    0.800000E-01   1.00800           0   0.00000       0.00000    
     18644 MEOH     1266     MEOH     LP1A     LPD     -0.230000       0.00000          -1   0.00000       0.00000    
     18645 MEOH     1266     MEOH     LP1B     LPD     -0.230000       0.00000          -1   0.00000       0.00000    
     18646 MEOH     1267     MEOH     C1       CD33B     2.31410       11.6110           0  -1.00000       1.30000    
     18647 MEOH     1267     MEOH     DC1      DRUD     -2.45410      0.400000           0   0.00000       0.00000    
     18648 MEOH     1267     MEOH     O1       OD31H     2.48830       15.5990           0  -1.02800       1.30000    
     18649 MEOH     1267     MEOH     DO1      DRUD     -2.48830      0.400000           0   0.00000       0.00000    
     18650 MEOH     1267     MEOH     HO1      HDP1A    0.360000       1.00800           0   0.00000       0.00000    
     18651 MEOH     1267     MEOH     HO2      DUMH      0.00000       1.00800           0   0.00000       0.00000    
     18652 MEOH     1267     MEOH     H1A      HDA3B    0.800000E-01   1.00800           0   0.00000       0.00000    
     18653 MEOH     1267     MEOH     H1B      HDA3B    0.800000E-01   1.00800           0   0.00000       0.00000    
     18654 MEOH     1267     MEOH     H1C      HDA3B    0.800000E-01   1.00800           0   0.00000       0.00000    
     18655 MEOH     1267     MEOH     LP1A     LPD     -0.230000       0.00000          -1   0.00000       0.00000    
     18656 MEOH     1267     MEOH     LP1B     LPD     -0.230000       0.00000          -1   0.00000       0.00000    
     18657 MEOH     1268     MEOH     C1       CD33B     2.31410       11.6110           0  -1.00000       1.30000    
     18658 MEOH     1268     MEOH     DC1      DRUD     -2.45410      0.400000           0   0.00000       0.00000    
     18659 MEOH     1268     MEOH     O1       OD31H     2.48830       15.5990           0  -1.02800       1.30000    
     18660 MEOH     1268     MEOH     DO1      DRUD     -2.48830      0.400000           0   0.00000       0.00000    
     18661 MEOH     1268     MEOH     HO1      HDP1A    0.360000       1.00800           0   0.00000       0.00000    
     18662 MEOH     1268     MEOH     HO2      DUMH      0.00000       1.00800           0   0.00000       0.00000    
     18663 MEOH     1268     MEOH     H1A      HDA3B    0.800000E-01   1.00800           0   0.00000       0.00000    
     18664 MEOH     1268     MEOH     H1B      HDA3B    0.800000E-01   1.00800           0   0.00000       0.00000    
     18665 MEOH     1268     MEOH     H1C      HDA3B    0.800000E-01   1.00800           0   0.00000       0.00000    
     18666 MEOH     1268     MEOH     LP1A     LPD     -0.230000       0.00000          -1   0.00000       0.00000    
     18667 MEOH     1268     MEOH     LP1B     LPD     -0.230000       0.00000          -1   0.00000       0.00000    
     18668 MEOH     1269     MEOH     C1       CD33B     2.31410       11.6110           0  -1.00000       1.30000    
     18669 MEOH     1269     MEOH     DC1      DRUD     -2.45410      0.400000           0   0.00000       0.00000    
     18670 MEOH     1269     MEOH     O1       OD31H     2.48830       15.5990           0  -1.02800       1.30000    
     18671 MEOH     1269     MEOH     DO1      DRUD     -2.48830      0.400000           0   0.00000       0.00000    
     18672 MEOH     1269     MEOH     HO1      HDP1A    0.360000       1.00800           0   0.00000       0.00000    
     18673 MEOH     1269     MEOH     HO2      DUMH      0.00000       1.00800           0   0.00000       0.00000    
     18674 MEOH     1269     MEOH     H1A      HDA3B    0.800000E-01   1.00800           0   0.00000       0.00000    
     18675 MEOH     1269     MEOH     H1B      HDA3B    0.800000E-01   1.00800           0   0.00000       0.00000    
     18676 MEOH     1269     MEOH     H1C      HDA3B    0.800000E-01   1.00800           0   0.00000       0.00000    
     18677 MEOH     1269     MEOH     LP1A     LPD     -0.230000       0.00000          -1   0.00000       0.00000    
     18678 MEOH     1269     MEOH     LP1B     LPD     -0.230000       0.00000          -1   0.00000       0.00000    
     18679 MEOH     1270     MEOH     C1       CD33B     2.31410       11.6110           0  -1.00000       1.30000    
     18680 MEOH     1270     MEOH     DC1      DRUD     -2.45410      0.400000           0   0.00000       0.00000    
     18681 MEOH     1270     MEOH     O1       OD31H     2.48830       15.5990           0  -1.02800       1.30000    
     18682 MEOH     1270     MEOH     DO1      DRUD     -2.48830      0.400000           0   0.00000       0.00000    
     18683 MEOH     1270     MEOH     HO1      HDP1A    0.360000       1.00800           0   0.00000       0.00000    
     18684 MEOH     1270     MEOH     HO2      DUMH      0.00000       1.00800           0   0.00000       0.00000    
     18685 MEOH     1270     MEOH     H1A      HDA3B    0.800000E-01   1.00800           0   0.00000       0.00000    
     18686 MEOH     1270     MEOH     H1B      HDA3B    0.800000E-01   1.00800           0   0.00000       0.00000    
     18687 MEOH     1270     MEOH     H1C      HDA3B    0.800000E-01   1.00800           0   0.00000       0.00000    
     18688 MEOH     1270     MEOH     LP1A     LPD     -0.230000       0.00000          -1   0.00000       0.00000    
     18689 MEOH     1270     MEOH     LP1B     LPD     -0.230000       0.00000          -1   0.00000       0.00000    
     18690 MEOH     1271     MEOH     C1       CD33B     2.31410       11.6110           0  -1.00000       1.30000    
     18691 MEOH     1271     MEOH     DC1      DRUD     -2.45410      0.400000           0   0.00000       0.00000    
     18692 MEOH     1271     MEOH     O1       OD31H     2.48830       15.5990           0  -1.02800       1.30000    
     18693 MEOH     1271     MEOH     DO1      DRUD     -2.48830      0.400000           0   0.00000       0.00000    
     18694 MEOH     1271     MEOH     HO1      HDP1A    0.360000       1.00800           0   0.00000       0.00000    
     18695 MEOH     1271     MEOH     HO2      DUMH      0.00000       1.00800           0   0.00000       0.00000    
     18696 MEOH     1271     MEOH     H1A      HDA3B    0.800000E-01   1.00800           0   0.00000       0.00000    
     18697 MEOH     1271     MEOH     H1B      HDA3B    0.800000E-01   1.00800           0   0.00000       0.00000    
     18698 MEOH     1271     MEOH     H1C      HDA3B    0.800000E-01   1.00800           0   0.00000       0.00000    
     18699 MEOH     1271     MEOH     LP1A     LPD     -0.230000       0.00000          -1   0.00000       0.00000    
     18700 MEOH     1271     MEOH     LP1B     LPD     -0.230000       0.00000          -1   0.00000       0.00000    
     18701 MEOH     1272     MEOH     C1       CD33B     2.31410       11.6110           0  -1.00000       1.30000    
     18702 MEOH     1272     MEOH     DC1      DRUD     -2.45410      0.400000           0   0.00000       0.00000    
     18703 MEOH     1272     MEOH     O1       OD31H     2.48830       15.5990           0  -1.02800       1.30000    
     18704 MEOH     1272     MEOH     DO1      DRUD     -2.48830      0.400000           0   0.00000       0.00000    
     18705 MEOH     1272     MEOH     HO1      HDP1A    0.360000       1.00800           0   0.00000       0.00000    
     18706 MEOH     1272     MEOH     HO2      DUMH      0.00000       1.00800           0   0.00000       0.00000    
     18707 MEOH     1272     MEOH     H1A      HDA3B    0.800000E-01   1.00800           0   0.00000       0.00000    
     18708 MEOH     1272     MEOH     H1B      HDA3B    0.800000E-01   1.00800           0   0.00000       0.00000    
     18709 MEOH     1272     MEOH     H1C      HDA3B    0.800000E-01   1.00800           0   0.00000       0.00000    
     18710 MEOH     1272     MEOH     LP1A     LPD     -0.230000       0.00000          -1   0.00000       0.00000    
     18711 MEOH     1272     MEOH     LP1B     LPD     -0.230000       0.00000          -1   0.00000       0.00000    
     18712 MEOH     1273     MEOH     C1       CD33B     2.31410       11.6110           0  -1.00000       1.30000    
     18713 MEOH     1273     MEOH     DC1      DRUD     -2.45410      0.400000           0   0.00000       0.00000    
     18714 MEOH     1273     MEOH     O1       OD31H     2.48830       15.5990           0  -1.02800       1.30000    
     18715 MEOH     1273     MEOH     DO1      DRUD     -2.48830      0.400000           0   0.00000       0.00000    
     18716 MEOH     1273     MEOH     HO1      HDP1A    0.360000       1.00800           0   0.00000       0.00000    
     18717 MEOH     1273     MEOH     HO2      DUMH      0.00000       1.00800           0   0.00000       0.00000    
     18718 MEOH     1273     MEOH     H1A      HDA3B    0.800000E-01   1.00800           0   0.00000       0.00000    
     18719 MEOH     1273     MEOH     H1B      HDA3B    0.800000E-01   1.00800           0   0.00000       0.00000    
     18720 MEOH     1273     MEOH     H1C      HDA3B    0.800000E-01   1.00800           0   0.00000       0.00000    
     18721 MEOH     1273     MEOH     LP1A     LPD     -0.230000       0.00000          -1   0.00000       0.00000    
     18722 MEOH     1273     MEOH     LP1B     LPD     -0.230000       0.00000          -1   0.00000       0.00000    
     18723 MEOH     1274     MEOH     C1       CD33B     2.31410       11.6110           0  -1.00000       1.30000    
     18724 MEOH     1274     MEOH     DC1      DRUD     -2.45410      0.400000           0   0.00000       0.00000    
     18725 MEOH     1274     MEOH     O1       OD31H     2.48830       15.5990           0  -1.02800       1.30000    
     18726 MEOH     1274     MEOH     DO1      DRUD     -2.48830      0.400000           0   0.00000       0.00000    
     18727 MEOH     1274     MEOH     HO1      HDP1A    0.360000       1.00800           0   0.00000       0.00000    
     18728 MEOH     1274     MEOH     HO2      DUMH      0.00000       1.00800           0   0.00000       0.00000    
     18729 MEOH     1274     MEOH     H1A      HDA3B    0.800000E-01   1.00800           0   0.00000       0.00000    
     18730 MEOH     1274     MEOH     H1B      HDA3B    0.800000E-01   1.00800           0   0.00000       0.00000    
     18731 MEOH     1274     MEOH     H1C      HDA3B    0.800000E-01   1.00800           0   0.00000       0.00000    
     18732 MEOH     1274     MEOH     LP1A     LPD     -0.230000       0.00000          -1   0.00000       0.00000    
     18733 MEOH     1274     MEOH     LP1B     LPD     -0.230000       0.00000          -1   0.00000       0.00000    
     18734 MEOH     1275     MEOH     C1       CD33B     2.31410       11.6110           0  -1.00000       1.30000    
     18735 MEOH     1275     MEOH     DC1      DRUD     -2.45410      0.400000           0   0.00000       0.00000    
     18736 MEOH     1275     MEOH     O1       OD31H     2.48830       15.5990           0  -1.02800       1.30000    
     18737 MEOH     1275     MEOH     DO1      DRUD     -2.48830      0.400000           0   0.00000       0.00000    
     18738 MEOH     1275     MEOH     HO1      HDP1A    0.360000       1.00800           0   0.00000       0.00000    
     18739 MEOH     1275     MEOH     HO2      DUMH      0.00000       1.00800           0   0.00000       0.00000    
     18740 MEOH     1275     MEOH     H1A      HDA3B    0.800000E-01   1.00800           0   0.00000       0.00000    
     18741 MEOH     1275     MEOH     H1B      HDA3B    0.800000E-01   1.00800           0   0.00000       0.00000    
     18742 MEOH     1275     MEOH     H1C      HDA3B    0.800000E-01   1.00800           0   0.00000       0.00000    
     18743 MEOH     1275     MEOH     LP1A     LPD     -0.230000       0.00000          -1   0.00000       0.00000    
     18744 MEOH     1275     MEOH     LP1B     LPD     -0.230000       0.00000          -1   0.00000       0.00000    
     18745 MEOH     1276     MEOH     C1       CD33B     2.31410       11.6110           0  -1.00000       1.30000    
     18746 MEOH     1276     MEOH     DC1      DRUD     -2.45410      0.400000           0   0.00000       0.00000    
     18747 MEOH     1276     MEOH     O1       OD31H     2.48830       15.5990           0  -1.02800       1.30000    
     18748 MEOH     1276     MEOH     DO1      DRUD     -2.48830      0.400000           0   0.00000       0.00000    
     18749 MEOH     1276     MEOH     HO1      HDP1A    0.360000       1.00800           0   0.00000       0.00000    
     18750 MEOH     1276     MEOH     HO2      DUMH      0.00000       1.00800           0   0.00000       0.00000    
     18751 MEOH     1276     MEOH     H1A      HDA3B    0.800000E-01   1.00800           0   0.00000       0.00000    
     18752 MEOH     1276     MEOH     H1B      HDA3B    0.800000E-01   1.00800           0   0.00000       0.00000    
     18753 MEOH     1276     MEOH     H1C      HDA3B    0.800000E-01   1.00800           0   0.00000       0.00000    
     18754 MEOH     1276     MEOH     LP1A     LPD     -0.230000       0.00000          -1   0.00000       0.00000    
     18755 MEOH     1276     MEOH     LP1B     LPD     -0.230000       0.00000          -1   0.00000       0.00000    
     18756 MEOH     1277     MEOH     C1       CD33B     2.31410       11.6110           0  -1.00000       1.30000    
     18757 MEOH     1277     MEOH     DC1      DRUD     -2.45410      0.400000           0   0.00000       0.00000    
     18758 MEOH     1277     MEOH     O1       OD31H     2.48830       15.5990           0  -1.02800       1.30000    
     18759 MEOH     1277     MEOH     DO1      DRUD     -2.48830      0.400000           0   0.00000       0.00000    
     18760 MEOH     1277     MEOH     HO1      HDP1A    0.360000       1.00800           0   0.00000       0.00000    
     18761 MEOH     1277     MEOH     HO2      DUMH      0.00000       1.00800           0   0.00000       0.00000    
     18762 MEOH     1277     MEOH     H1A      HDA3B    0.800000E-01   1.00800           0   0.00000       0.00000    
     18763 MEOH     1277     MEOH     H1B      HDA3B    0.800000E-01   1.00800           0   0.00000       0.00000    
     18764 MEOH     1277     MEOH     H1C      HDA3B    0.800000E-01   1.00800           0   0.00000       0.00000    
     18765 MEOH     1277     MEOH     LP1A     LPD     -0.230000       0.00000          -1   0.00000       0.00000    
     18766 MEOH     1277     MEOH     LP1B     LPD     -0.230000       0.00000          -1   0.00000       0.00000    
     18767 MEOH     1278     MEOH     C1       CD33B     2.31410       11.6110           0  -1.00000       1.30000    
     18768 MEOH     1278     MEOH     DC1      DRUD     -2.45410      0.400000           0   0.00000       0.00000    
     18769 MEOH     1278     MEOH     O1       OD31H     2.48830       15.5990           0  -1.02800       1.30000    
     18770 MEOH     1278     MEOH     DO1      DRUD     -2.48830      0.400000           0   0.00000       0.00000    
     18771 MEOH     1278     MEOH     HO1      HDP1A    0.360000       1.00800           0   0.00000       0.00000    
     18772 MEOH     1278     MEOH     HO2      DUMH      0.00000       1.00800           0   0.00000       0.00000    
     18773 MEOH     1278     MEOH     H1A      HDA3B    0.800000E-01   1.00800           0   0.00000       0.00000    
     18774 MEOH     1278     MEOH     H1B      HDA3B    0.800000E-01   1.00800           0   0.00000       0.00000    
     18775 MEOH     1278     MEOH     H1C      HDA3B    0.800000E-01   1.00800           0   0.00000       0.00000    
     18776 MEOH     1278     MEOH     LP1A     LPD     -0.230000       0.00000          -1   0.00000       0.00000    
     18777 MEOH     1278     MEOH     LP1B     LPD     -0.230000       0.00000          -1   0.00000       0.00000    
     18778 MEOH     1279     MEOH     C1       CD33B     2.31410       11.6110           0  -1.00000       1.30000    
     18779 MEOH     1279     MEOH     DC1      DRUD     -2.45410      0.400000           0   0.00000       0.00000    
     18780 MEOH     1279     MEOH     O1       OD31H     2.48830       15.5990           0  -1.02800       1.30000    
     18781 MEOH     1279     MEOH     DO1      DRUD     -2.48830      0.400000           0   0.00000       0.00000    
     18782 MEOH     1279     MEOH     HO1      HDP1A    0.360000       1.00800           0   0.00000       0.00000    
     18783 MEOH     1279     MEOH     HO2      DUMH      0.00000       1.00800           0   0.00000       0.00000    
     18784 MEOH     1279     MEOH     H1A      HDA3B    0.800000E-01   1.00800           0   0.00000       0.00000    
     18785 MEOH     1279     MEOH     H1B      HDA3B    0.800000E-01   1.00800           0   0.00000       0.00000    
     18786 MEOH     1279     MEOH     H1C      HDA3B    0.800000E-01   1.00800           0   0.00000       0.00000    
     18787 MEOH     1279     MEOH     LP1A     LPD     -0.230000       0.00000          -1   0.00000       0.00000    
     18788 MEOH     1279     MEOH     LP1B     LPD     -0.230000       0.00000          -1   0.00000       0.00000    
     18789 MEOH     1280     MEOH     C1       CD33B     2.31410       11.6110           0  -1.00000       1.30000    
     18790 MEOH     1280     MEOH     DC1      DRUD     -2.45410      0.400000           0   0.00000       0.00000    
     18791 MEOH     1280     MEOH     O1       OD31H     2.48830       15.5990           0  -1.02800       1.30000    
     18792 MEOH     1280     MEOH     DO1      DRUD     -2.48830      0.400000           0   0.00000       0.00000    
     18793 MEOH     1280     MEOH     HO1      HDP1A    0.360000       1.00800           0   0.00000       0.00000    
     18794 MEOH     1280     MEOH     HO2      DUMH      0.00000       1.00800           0   0.00000       0.00000    
     18795 MEOH     1280     MEOH     H1A      HDA3B    0.800000E-01   1.00800           0   0.00000       0.00000    
     18796 MEOH     1280     MEOH     H1B      HDA3B    0.800000E-01   1.00800           0   0.00000       0.00000    
     18797 MEOH     1280     MEOH     H1C      HDA3B    0.800000E-01   1.00800           0   0.00000       0.00000    
     18798 MEOH     1280     MEOH     LP1A     LPD     -0.230000       0.00000          -1   0.00000       0.00000    
     18799 MEOH     1280     MEOH     LP1B     LPD     -0.230000       0.00000          -1   0.00000       0.00000    
     18800 MEOH     1281     MEOH     C1       CD33B     2.31410       11.6110           0  -1.00000       1.30000    
     18801 MEOH     1281     MEOH     DC1      DRUD     -2.45410      0.400000           0   0.00000       0.00000    
     18802 MEOH     1281     MEOH     O1       OD31H     2.48830       15.5990           0  -1.02800       1.30000    
     18803 MEOH     1281     MEOH     DO1      DRUD     -2.48830      0.400000           0   0.00000       0.00000    
     18804 MEOH     1281     MEOH     HO1      HDP1A    0.360000       1.00800           0   0.00000       0.00000    
     18805 MEOH     1281     MEOH     HO2      DUMH      0.00000       1.00800           0   0.00000       0.00000    
     18806 MEOH     1281     MEOH     H1A      HDA3B    0.800000E-01   1.00800           0   0.00000       0.00000    
     18807 MEOH     1281     MEOH     H1B      HDA3B    0.800000E-01   1.00800           0   0.00000       0.00000    
     18808 MEOH     1281     MEOH     H1C      HDA3B    0.800000E-01   1.00800           0   0.00000       0.00000    
     18809 MEOH     1281     MEOH     LP1A     LPD     -0.230000       0.00000          -1   0.00000       0.00000    
     18810 MEOH     1281     MEOH     LP1B     LPD     -0.230000       0.00000          -1   0.00000       0.00000    
     18811 MEOH     1282     MEOH     C1       CD33B     2.31410       11.6110           0  -1.00000       1.30000    
     18812 MEOH     1282     MEOH     DC1      DRUD     -2.45410      0.400000           0   0.00000       0.00000    
     18813 MEOH     1282     MEOH     O1       OD31H     2.48830       15.5990           0  -1.02800       1.30000    
     18814 MEOH     1282     MEOH     DO1      DRUD     -2.48830      0.400000           0   0.00000       0.00000    
     18815 MEOH     1282     MEOH     HO1      HDP1A    0.360000       1.00800           0   0.00000       0.00000    
     18816 MEOH     1282     MEOH     HO2      DUMH      0.00000       1.00800           0   0.00000       0.00000    
     18817 MEOH     1282     MEOH     H1A      HDA3B    0.800000E-01   1.00800           0   0.00000       0.00000    
     18818 MEOH     1282     MEOH     H1B      HDA3B    0.800000E-01   1.00800           0   0.00000       0.00000    
     18819 MEOH     1282     MEOH     H1C      HDA3B    0.800000E-01   1.00800           0   0.00000       0.00000    
     18820 MEOH     1282     MEOH     LP1A     LPD     -0.230000       0.00000          -1   0.00000       0.00000    
     18821 MEOH     1282     MEOH     LP1B     LPD     -0.230000       0.00000          -1   0.00000       0.00000    
     18822 MEOH     1283     MEOH     C1       CD33B     2.31410       11.6110           0  -1.00000       1.30000    
     18823 MEOH     1283     MEOH     DC1      DRUD     -2.45410      0.400000           0   0.00000       0.00000    
     18824 MEOH     1283     MEOH     O1       OD31H     2.48830       15.5990           0  -1.02800       1.30000    
     18825 MEOH     1283     MEOH     DO1      DRUD     -2.48830      0.400000           0   0.00000       0.00000    
     18826 MEOH     1283     MEOH     HO1      HDP1A    0.360000       1.00800           0   0.00000       0.00000    
     18827 MEOH     1283     MEOH     HO2      DUMH      0.00000       1.00800           0   0.00000       0.00000    
     18828 MEOH     1283     MEOH     H1A      HDA3B    0.800000E-01   1.00800           0   0.00000       0.00000    
     18829 MEOH     1283     MEOH     H1B      HDA3B    0.800000E-01   1.00800           0   0.00000       0.00000    
     18830 MEOH     1283     MEOH     H1C      HDA3B    0.800000E-01   1.00800           0   0.00000       0.00000    
     18831 MEOH     1283     MEOH     LP1A     LPD     -0.230000       0.00000          -1   0.00000       0.00000    
     18832 MEOH     1283     MEOH     LP1B     LPD     -0.230000       0.00000          -1   0.00000       0.00000    
     18833 MEOH     1284     MEOH     C1       CD33B     2.31410       11.6110           0  -1.00000       1.30000    
     18834 MEOH     1284     MEOH     DC1      DRUD     -2.45410      0.400000           0   0.00000       0.00000    
     18835 MEOH     1284     MEOH     O1       OD31H     2.48830       15.5990           0  -1.02800       1.30000    
     18836 MEOH     1284     MEOH     DO1      DRUD     -2.48830      0.400000           0   0.00000       0.00000    
     18837 MEOH     1284     MEOH     HO1      HDP1A    0.360000       1.00800           0   0.00000       0.00000    
     18838 MEOH     1284     MEOH     HO2      DUMH      0.00000       1.00800           0   0.00000       0.00000    
     18839 MEOH     1284     MEOH     H1A      HDA3B    0.800000E-01   1.00800           0   0.00000       0.00000    
     18840 MEOH     1284     MEOH     H1B      HDA3B    0.800000E-01   1.00800           0   0.00000       0.00000    
     18841 MEOH     1284     MEOH     H1C      HDA3B    0.800000E-01   1.00800           0   0.00000       0.00000    
     18842 MEOH     1284     MEOH     LP1A     LPD     -0.230000       0.00000          -1   0.00000       0.00000    
     18843 MEOH     1284     MEOH     LP1B     LPD     -0.230000       0.00000          -1   0.00000       0.00000    
     18844 MEOH     1285     MEOH     C1       CD33B     2.31410       11.6110           0  -1.00000       1.30000    
     18845 MEOH     1285     MEOH     DC1      DRUD     -2.45410      0.400000           0   0.00000       0.00000    
     18846 MEOH     1285     MEOH     O1       OD31H     2.48830       15.5990           0  -1.02800       1.30000    
     18847 MEOH     1285     MEOH     DO1      DRUD     -2.48830      0.400000           0   0.00000       0.00000    
     18848 MEOH     1285     MEOH     HO1      HDP1A    0.360000       1.00800           0   0.00000       0.00000    
     18849 MEOH     1285     MEOH     HO2      DUMH      0.00000       1.00800           0   0.00000       0.00000    
     18850 MEOH     1285     MEOH     H1A      HDA3B    0.800000E-01   1.00800           0   0.00000       0.00000    
     18851 MEOH     1285     MEOH     H1B      HDA3B    0.800000E-01   1.00800           0   0.00000       0.00000    
     18852 MEOH     1285     MEOH     H1C      HDA3B    0.800000E-01   1.00800           0   0.00000       0.00000    
     18853 MEOH     1285     MEOH     LP1A     LPD     -0.230000       0.00000          -1   0.00000       0.00000    
     18854 MEOH     1285     MEOH     LP1B     LPD     -0.230000       0.00000          -1   0.00000       0.00000    
     18855 MEOH     1286     MEOH     C1       CD33B     2.31410       11.6110           0  -1.00000       1.30000    
     18856 MEOH     1286     MEOH     DC1      DRUD     -2.45410      0.400000           0   0.00000       0.00000    
     18857 MEOH     1286     MEOH     O1       OD31H     2.48830       15.5990           0  -1.02800       1.30000    
     18858 MEOH     1286     MEOH     DO1      DRUD     -2.48830      0.400000           0   0.00000       0.00000    
     18859 MEOH     1286     MEOH     HO1      HDP1A    0.360000       1.00800           0   0.00000       0.00000    
     18860 MEOH     1286     MEOH     HO2      DUMH      0.00000       1.00800           0   0.00000       0.00000    
     18861 MEOH     1286     MEOH     H1A      HDA3B    0.800000E-01   1.00800           0   0.00000       0.00000    
     18862 MEOH     1286     MEOH     H1B      HDA3B    0.800000E-01   1.00800           0   0.00000       0.00000    
     18863 MEOH     1286     MEOH     H1C      HDA3B    0.800000E-01   1.00800           0   0.00000       0.00000    
     18864 MEOH     1286     MEOH     LP1A     LPD     -0.230000       0.00000          -1   0.00000       0.00000    
     18865 MEOH     1286     MEOH     LP1B     LPD     -0.230000       0.00000          -1   0.00000       0.00000    
     18866 MEOH     1287     MEOH     C1       CD33B     2.31410       11.6110           0  -1.00000       1.30000    
     18867 MEOH     1287     MEOH     DC1      DRUD     -2.45410      0.400000           0   0.00000       0.00000    
     18868 MEOH     1287     MEOH     O1       OD31H     2.48830       15.5990           0  -1.02800       1.30000    
     18869 MEOH     1287     MEOH     DO1      DRUD     -2.48830      0.400000           0   0.00000       0.00000    
     18870 MEOH     1287     MEOH     HO1      HDP1A    0.360000       1.00800           0   0.00000       0.00000    
     18871 MEOH     1287     MEOH     HO2      DUMH      0.00000       1.00800           0   0.00000       0.00000    
     18872 MEOH     1287     MEOH     H1A      HDA3B    0.800000E-01   1.00800           0   0.00000       0.00000    
     18873 MEOH     1287     MEOH     H1B      HDA3B    0.800000E-01   1.00800           0   0.00000       0.00000    
     18874 MEOH     1287     MEOH     H1C      HDA3B    0.800000E-01   1.00800           0   0.00000       0.00000    
     18875 MEOH     1287     MEOH     LP1A     LPD     -0.230000       0.00000          -1   0.00000       0.00000    
     18876 MEOH     1287     MEOH     LP1B     LPD     -0.230000       0.00000          -1   0.00000       0.00000    
     18877 MEOH     1288     MEOH     C1       CD33B     2.31410       11.6110           0  -1.00000       1.30000    
     18878 MEOH     1288     MEOH     DC1      DRUD     -2.45410      0.400000           0   0.00000       0.00000    
     18879 MEOH     1288     MEOH     O1       OD31H     2.48830       15.5990           0  -1.02800       1.30000    
     18880 MEOH     1288     MEOH     DO1      DRUD     -2.48830      0.400000           0   0.00000       0.00000    
     18881 MEOH     1288     MEOH     HO1      HDP1A    0.360000       1.00800           0   0.00000       0.00000    
     18882 MEOH     1288     MEOH     HO2      DUMH      0.00000       1.00800           0   0.00000       0.00000    
     18883 MEOH     1288     MEOH     H1A      HDA3B    0.800000E-01   1.00800           0   0.00000       0.00000    
     18884 MEOH     1288     MEOH     H1B      HDA3B    0.800000E-01   1.00800           0   0.00000       0.00000    
     18885 MEOH     1288     MEOH     H1C      HDA3B    0.800000E-01   1.00800           0   0.00000       0.00000    
     18886 MEOH     1288     MEOH     LP1A     LPD     -0.230000       0.00000          -1   0.00000       0.00000    
     18887 MEOH     1288     MEOH     LP1B     LPD     -0.230000       0.00000          -1   0.00000       0.00000    
     18888 MEOH     1289     MEOH     C1       CD33B     2.31410       11.6110           0  -1.00000       1.30000    
     18889 MEOH     1289     MEOH     DC1      DRUD     -2.45410      0.400000           0   0.00000       0.00000    
     18890 MEOH     1289     MEOH     O1       OD31H     2.48830       15.5990           0  -1.02800       1.30000    
     18891 MEOH     1289     MEOH     DO1      DRUD     -2.48830      0.400000           0   0.00000       0.00000    
     18892 MEOH     1289     MEOH     HO1      HDP1A    0.360000       1.00800           0   0.00000       0.00000    
     18893 MEOH     1289     MEOH     HO2      DUMH      0.00000       1.00800           0   0.00000       0.00000    
     18894 MEOH     1289     MEOH     H1A      HDA3B    0.800000E-01   1.00800           0   0.00000       0.00000    
     18895 MEOH     1289     MEOH     H1B      HDA3B    0.800000E-01   1.00800           0   0.00000       0.00000    
     18896 MEOH     1289     MEOH     H1C      HDA3B    0.800000E-01   1.00800           0   0.00000       0.00000    
     18897 MEOH     1289     MEOH     LP1A     LPD     -0.230000       0.00000          -1   0.00000       0.00000    
     18898 MEOH     1289     MEOH     LP1B     LPD     -0.230000       0.00000          -1   0.00000       0.00000    
     18899 MEOH     1290     MEOH     C1       CD33B     2.31410       11.6110           0  -1.00000       1.30000    
     18900 MEOH     1290     MEOH     DC1      DRUD     -2.45410      0.400000           0   0.00000       0.00000    
     18901 MEOH     1290     MEOH     O1       OD31H     2.48830       15.5990           0  -1.02800       1.30000    
     18902 MEOH     1290     MEOH     DO1      DRUD     -2.48830      0.400000           0   0.00000       0.00000    
     18903 MEOH     1290     MEOH     HO1      HDP1A    0.360000       1.00800           0   0.00000       0.00000    
     18904 MEOH     1290     MEOH     HO2      DUMH      0.00000       1.00800           0   0.00000       0.00000    
     18905 MEOH     1290     MEOH     H1A      HDA3B    0.800000E-01   1.00800           0   0.00000       0.00000    
     18906 MEOH     1290     MEOH     H1B      HDA3B    0.800000E-01   1.00800           0   0.00000       0.00000    
     18907 MEOH     1290     MEOH     H1C      HDA3B    0.800000E-01   1.00800           0   0.00000       0.00000    
     18908 MEOH     1290     MEOH     LP1A     LPD     -0.230000       0.00000          -1   0.00000       0.00000    
     18909 MEOH     1290     MEOH     LP1B     LPD     -0.230000       0.00000          -1   0.00000       0.00000    
     18910 MEOH     1291     MEOH     C1       CD33B     2.31410       11.6110           0  -1.00000       1.30000    
     18911 MEOH     1291     MEOH     DC1      DRUD     -2.45410      0.400000           0   0.00000       0.00000    
     18912 MEOH     1291     MEOH     O1       OD31H     2.48830       15.5990           0  -1.02800       1.30000    
     18913 MEOH     1291     MEOH     DO1      DRUD     -2.48830      0.400000           0   0.00000       0.00000    
     18914 MEOH     1291     MEOH     HO1      HDP1A    0.360000       1.00800           0   0.00000       0.00000    
     18915 MEOH     1291     MEOH     HO2      DUMH      0.00000       1.00800           0   0.00000       0.00000    
     18916 MEOH     1291     MEOH     H1A      HDA3B    0.800000E-01   1.00800           0   0.00000       0.00000    
     18917 MEOH     1291     MEOH     H1B      HDA3B    0.800000E-01   1.00800           0   0.00000       0.00000    
     18918 MEOH     1291     MEOH     H1C      HDA3B    0.800000E-01   1.00800           0   0.00000       0.00000    
     18919 MEOH     1291     MEOH     LP1A     LPD     -0.230000       0.00000          -1   0.00000       0.00000    
     18920 MEOH     1291     MEOH     LP1B     LPD     -0.230000       0.00000          -1   0.00000       0.00000    
     18921 MEOH     1292     MEOH     C1       CD33B     2.31410       11.6110           0  -1.00000       1.30000    
     18922 MEOH     1292     MEOH     DC1      DRUD     -2.45410      0.400000           0   0.00000       0.00000    
     18923 MEOH     1292     MEOH     O1       OD31H     2.48830       15.5990           0  -1.02800       1.30000    
     18924 MEOH     1292     MEOH     DO1      DRUD     -2.48830      0.400000           0   0.00000       0.00000    
     18925 MEOH     1292     MEOH     HO1      HDP1A    0.360000       1.00800           0   0.00000       0.00000    
     18926 MEOH     1292     MEOH     HO2      DUMH      0.00000       1.00800           0   0.00000       0.00000    
     18927 MEOH     1292     MEOH     H1A      HDA3B    0.800000E-01   1.00800           0   0.00000       0.00000    
     18928 MEOH     1292     MEOH     H1B      HDA3B    0.800000E-01   1.00800           0   0.00000       0.00000    
     18929 MEOH     1292     MEOH     H1C      HDA3B    0.800000E-01   1.00800           0   0.00000       0.00000    
     18930 MEOH     1292     MEOH     LP1A     LPD     -0.230000       0.00000          -1   0.00000       0.00000    
     18931 MEOH     1292     MEOH     LP1B     LPD     -0.230000       0.00000          -1   0.00000       0.00000    
     18932 MEOH     1293     MEOH     C1       CD33B     2.31410       11.6110           0  -1.00000       1.30000    
     18933 MEOH     1293     MEOH     DC1      DRUD     -2.45410      0.400000           0   0.00000       0.00000    
     18934 MEOH     1293     MEOH     O1       OD31H     2.48830       15.5990           0  -1.02800       1.30000    
     18935 MEOH     1293     MEOH     DO1      DRUD     -2.48830      0.400000           0   0.00000       0.00000    
     18936 MEOH     1293     MEOH     HO1      HDP1A    0.360000       1.00800           0   0.00000       0.00000    
     18937 MEOH     1293     MEOH     HO2      DUMH      0.00000       1.00800           0   0.00000       0.00000    
     18938 MEOH     1293     MEOH     H1A      HDA3B    0.800000E-01   1.00800           0   0.00000       0.00000    
     18939 MEOH     1293     MEOH     H1B      HDA3B    0.800000E-01   1.00800           0   0.00000       0.00000    
     18940 MEOH     1293     MEOH     H1C      HDA3B    0.800000E-01   1.00800           0   0.00000       0.00000    
     18941 MEOH     1293     MEOH     LP1A     LPD     -0.230000       0.00000          -1   0.00000       0.00000    
     18942 MEOH     1293     MEOH     LP1B     LPD     -0.230000       0.00000          -1   0.00000       0.00000    
     18943 MEOH     1294     MEOH     C1       CD33B     2.31410       11.6110           0  -1.00000       1.30000    
     18944 MEOH     1294     MEOH     DC1      DRUD     -2.45410      0.400000           0   0.00000       0.00000    
     18945 MEOH     1294     MEOH     O1       OD31H     2.48830       15.5990           0  -1.02800       1.30000    
     18946 MEOH     1294     MEOH     DO1      DRUD     -2.48830      0.400000           0   0.00000       0.00000    
     18947 MEOH     1294     MEOH     HO1      HDP1A    0.360000       1.00800           0   0.00000       0.00000    
     18948 MEOH     1294     MEOH     HO2      DUMH      0.00000       1.00800           0   0.00000       0.00000    
     18949 MEOH     1294     MEOH     H1A      HDA3B    0.800000E-01   1.00800           0   0.00000       0.00000    
     18950 MEOH     1294     MEOH     H1B      HDA3B    0.800000E-01   1.00800           0   0.00000       0.00000    
     18951 MEOH     1294     MEOH     H1C      HDA3B    0.800000E-01   1.00800           0   0.00000       0.00000    
     18952 MEOH     1294     MEOH     LP1A     LPD     -0.230000       0.00000          -1   0.00000       0.00000    
     18953 MEOH     1294     MEOH     LP1B     LPD     -0.230000       0.00000          -1   0.00000       0.00000    
     18954 MEOH     1295     MEOH     C1       CD33B     2.31410       11.6110           0  -1.00000       1.30000    
     18955 MEOH     1295     MEOH     DC1      DRUD     -2.45410      0.400000           0   0.00000       0.00000    
     18956 MEOH     1295     MEOH     O1       OD31H     2.48830       15.5990           0  -1.02800       1.30000    
     18957 MEOH     1295     MEOH     DO1      DRUD     -2.48830      0.400000           0   0.00000       0.00000    
     18958 MEOH     1295     MEOH     HO1      HDP1A    0.360000       1.00800           0   0.00000       0.00000    
     18959 MEOH     1295     MEOH     HO2      DUMH      0.00000       1.00800           0   0.00000       0.00000    
     18960 MEOH     1295     MEOH     H1A      HDA3B    0.800000E-01   1.00800           0   0.00000       0.00000    
     18961 MEOH     1295     MEOH     H1B      HDA3B    0.800000E-01   1.00800           0   0.00000       0.00000    
     18962 MEOH     1295     MEOH     H1C      HDA3B    0.800000E-01   1.00800           0   0.00000       0.00000    
     18963 MEOH     1295     MEOH     LP1A     LPD     -0.230000       0.00000          -1   0.00000       0.00000    
     18964 MEOH     1295     MEOH     LP1B     LPD     -0.230000       0.00000          -1   0.00000       0.00000    
     18965 MEOH     1296     MEOH     C1       CD33B     2.31410       11.6110           0  -1.00000       1.30000    
     18966 MEOH     1296     MEOH     DC1      DRUD     -2.45410      0.400000           0   0.00000       0.00000    
     18967 MEOH     1296     MEOH     O1       OD31H     2.48830       15.5990           0  -1.02800       1.30000    
     18968 MEOH     1296     MEOH     DO1      DRUD     -2.48830      0.400000           0   0.00000       0.00000    
     18969 MEOH     1296     MEOH     HO1      HDP1A    0.360000       1.00800           0   0.00000       0.00000    
     18970 MEOH     1296     MEOH     HO2      DUMH      0.00000       1.00800           0   0.00000       0.00000    
     18971 MEOH     1296     MEOH     H1A      HDA3B    0.800000E-01   1.00800           0   0.00000       0.00000    
     18972 MEOH     1296     MEOH     H1B      HDA3B    0.800000E-01   1.00800           0   0.00000       0.00000    
     18973 MEOH     1296     MEOH     H1C      HDA3B    0.800000E-01   1.00800           0   0.00000       0.00000    
     18974 MEOH     1296     MEOH     LP1A     LPD     -0.230000       0.00000          -1   0.00000       0.00000    
     18975 MEOH     1296     MEOH     LP1B     LPD     -0.230000       0.00000          -1   0.00000       0.00000    
     18976 MEOH     1297     MEOH     C1       CD33B     2.31410       11.6110           0  -1.00000       1.30000    
     18977 MEOH     1297     MEOH     DC1      DRUD     -2.45410      0.400000           0   0.00000       0.00000    
     18978 MEOH     1297     MEOH     O1       OD31H     2.48830       15.5990           0  -1.02800       1.30000    
     18979 MEOH     1297     MEOH     DO1      DRUD     -2.48830      0.400000           0   0.00000       0.00000    
     18980 MEOH     1297     MEOH     HO1      HDP1A    0.360000       1.00800           0   0.00000       0.00000    
     18981 MEOH     1297     MEOH     HO2      DUMH      0.00000       1.00800           0   0.00000       0.00000    
     18982 MEOH     1297     MEOH     H1A      HDA3B    0.800000E-01   1.00800           0   0.00000       0.00000    
     18983 MEOH     1297     MEOH     H1B      HDA3B    0.800000E-01   1.00800           0   0.00000       0.00000    
     18984 MEOH     1297     MEOH     H1C      HDA3B    0.800000E-01   1.00800           0   0.00000       0.00000    
     18985 MEOH     1297     MEOH     LP1A     LPD     -0.230000       0.00000          -1   0.00000       0.00000    
     18986 MEOH     1297     MEOH     LP1B     LPD     -0.230000       0.00000          -1   0.00000       0.00000    
     18987 MEOH     1298     MEOH     C1       CD33B     2.31410       11.6110           0  -1.00000       1.30000    
     18988 MEOH     1298     MEOH     DC1      DRUD     -2.45410      0.400000           0   0.00000       0.00000    
     18989 MEOH     1298     MEOH     O1       OD31H     2.48830       15.5990           0  -1.02800       1.30000    
     18990 MEOH     1298     MEOH     DO1      DRUD     -2.48830      0.400000           0   0.00000       0.00000    
     18991 MEOH     1298     MEOH     HO1      HDP1A    0.360000       1.00800           0   0.00000       0.00000    
     18992 MEOH     1298     MEOH     HO2      DUMH      0.00000       1.00800           0   0.00000       0.00000    
     18993 MEOH     1298     MEOH     H1A      HDA3B    0.800000E-01   1.00800           0   0.00000       0.00000    
     18994 MEOH     1298     MEOH     H1B      HDA3B    0.800000E-01   1.00800           0   0.00000       0.00000    
     18995 MEOH     1298     MEOH     H1C      HDA3B    0.800000E-01   1.00800           0   0.00000       0.00000    
     18996 MEOH     1298     MEOH     LP1A     LPD     -0.230000       0.00000          -1   0.00000       0.00000    
     18997 MEOH     1298     MEOH     LP1B     LPD     -0.230000       0.00000          -1   0.00000       0.00000    
     18998 MEOH     1299     MEOH     C1       CD33B     2.31410       11.6110           0  -1.00000       1.30000    
     18999 MEOH     1299     MEOH     DC1      DRUD     -2.45410      0.400000           0   0.00000       0.00000    
     19000 MEOH     1299     MEOH     O1       OD31H     2.48830       15.5990           0  -1.02800       1.30000    
     19001 MEOH     1299     MEOH     DO1      DRUD     -2.48830      0.400000           0   0.00000       0.00000    
     19002 MEOH     1299     MEOH     HO1      HDP1A    0.360000       1.00800           0   0.00000       0.00000    
     19003 MEOH     1299     MEOH     HO2      DUMH      0.00000       1.00800           0   0.00000       0.00000    
     19004 MEOH     1299     MEOH     H1A      HDA3B    0.800000E-01   1.00800           0   0.00000       0.00000    
     19005 MEOH     1299     MEOH     H1B      HDA3B    0.800000E-01   1.00800           0   0.00000       0.00000    
     19006 MEOH     1299     MEOH     H1C      HDA3B    0.800000E-01   1.00800           0   0.00000       0.00000    
     19007 MEOH     1299     MEOH     LP1A     LPD     -0.230000       0.00000          -1   0.00000       0.00000    
     19008 MEOH     1299     MEOH     LP1B     LPD     -0.230000       0.00000          -1   0.00000       0.00000    
     19009 MEOH     1300     MEOH     C1       CD33B     2.31410       11.6110           0  -1.00000       1.30000    
     19010 MEOH     1300     MEOH     DC1      DRUD     -2.45410      0.400000           0   0.00000       0.00000    
     19011 MEOH     1300     MEOH     O1       OD31H     2.48830       15.5990           0  -1.02800       1.30000    
     19012 MEOH     1300     MEOH     DO1      DRUD     -2.48830      0.400000           0   0.00000       0.00000    
     19013 MEOH     1300     MEOH     HO1      HDP1A    0.360000       1.00800           0   0.00000       0.00000    
     19014 MEOH     1300     MEOH     HO2      DUMH      0.00000       1.00800           0   0.00000       0.00000    
     19015 MEOH     1300     MEOH     H1A      HDA3B    0.800000E-01   1.00800           0   0.00000       0.00000    
     19016 MEOH     1300     MEOH     H1B      HDA3B    0.800000E-01   1.00800           0   0.00000       0.00000    
     19017 MEOH     1300     MEOH     H1C      HDA3B    0.800000E-01   1.00800           0   0.00000       0.00000    
     19018 MEOH     1300     MEOH     LP1A     LPD     -0.230000       0.00000          -1   0.00000       0.00000    
     19019 MEOH     1300     MEOH     LP1B     LPD     -0.230000       0.00000          -1   0.00000       0.00000    
     19020 MEOH     1301     MEOH     C1       CD33B     2.31410       11.6110           0  -1.00000       1.30000    
     19021 MEOH     1301     MEOH     DC1      DRUD     -2.45410      0.400000           0   0.00000       0.00000    
     19022 MEOH     1301     MEOH     O1       OD31H     2.48830       15.5990           0  -1.02800       1.30000    
     19023 MEOH     1301     MEOH     DO1      DRUD     -2.48830      0.400000           0   0.00000       0.00000    
     19024 MEOH     1301     MEOH     HO1      HDP1A    0.360000       1.00800           0   0.00000       0.00000    
     19025 MEOH     1301     MEOH     HO2      DUMH      0.00000       1.00800           0   0.00000       0.00000    
     19026 MEOH     1301     MEOH     H1A      HDA3B    0.800000E-01   1.00800           0   0.00000       0.00000    
     19027 MEOH     1301     MEOH     H1B      HDA3B    0.800000E-01   1.00800           0   0.00000       0.00000    
     19028 MEOH     1301     MEOH     H1C      HDA3B    0.800000E-01   1.00800           0   0.00000       0.00000    
     19029 MEOH     1301     MEOH     LP1A     LPD     -0.230000       0.00000          -1   0.00000       0.00000    
     19030 MEOH     1301     MEOH     LP1B     LPD     -0.230000       0.00000          -1   0.00000       0.00000    
     19031 MEOH     1302     MEOH     C1       CD33B     2.31410       11.6110           0  -1.00000       1.30000    
     19032 MEOH     1302     MEOH     DC1      DRUD     -2.45410      0.400000           0   0.00000       0.00000    
     19033 MEOH     1302     MEOH     O1       OD31H     2.48830       15.5990           0  -1.02800       1.30000    
     19034 MEOH     1302     MEOH     DO1      DRUD     -2.48830      0.400000           0   0.00000       0.00000    
     19035 MEOH     1302     MEOH     HO1      HDP1A    0.360000       1.00800           0   0.00000       0.00000    
     19036 MEOH     1302     MEOH     HO2      DUMH      0.00000       1.00800           0   0.00000       0.00000    
     19037 MEOH     1302     MEOH     H1A      HDA3B    0.800000E-01   1.00800           0   0.00000       0.00000    
     19038 MEOH     1302     MEOH     H1B      HDA3B    0.800000E-01   1.00800           0   0.00000       0.00000    
     19039 MEOH     1302     MEOH     H1C      HDA3B    0.800000E-01   1.00800           0   0.00000       0.00000    
     19040 MEOH     1302     MEOH     LP1A     LPD     -0.230000       0.00000          -1   0.00000       0.00000    
     19041 MEOH     1302     MEOH     LP1B     LPD     -0.230000       0.00000          -1   0.00000       0.00000    
     19042 MEOH     1303     MEOH     C1       CD33B     2.31410       11.6110           0  -1.00000       1.30000    
     19043 MEOH     1303     MEOH     DC1      DRUD     -2.45410      0.400000           0   0.00000       0.00000    
     19044 MEOH     1303     MEOH     O1       OD31H     2.48830       15.5990           0  -1.02800       1.30000    
     19045 MEOH     1303     MEOH     DO1      DRUD     -2.48830      0.400000           0   0.00000       0.00000    
     19046 MEOH     1303     MEOH     HO1      HDP1A    0.360000       1.00800           0   0.00000       0.00000    
     19047 MEOH     1303     MEOH     HO2      DUMH      0.00000       1.00800           0   0.00000       0.00000    
     19048 MEOH     1303     MEOH     H1A      HDA3B    0.800000E-01   1.00800           0   0.00000       0.00000    
     19049 MEOH     1303     MEOH     H1B      HDA3B    0.800000E-01   1.00800           0   0.00000       0.00000    
     19050 MEOH     1303     MEOH     H1C      HDA3B    0.800000E-01   1.00800           0   0.00000       0.00000    
     19051 MEOH     1303     MEOH     LP1A     LPD     -0.230000       0.00000          -1   0.00000       0.00000    
     19052 MEOH     1303     MEOH     LP1B     LPD     -0.230000       0.00000          -1   0.00000       0.00000    
     19053 MEOH     1304     MEOH     C1       CD33B     2.31410       11.6110           0  -1.00000       1.30000    
     19054 MEOH     1304     MEOH     DC1      DRUD     -2.45410      0.400000           0   0.00000       0.00000    
     19055 MEOH     1304     MEOH     O1       OD31H     2.48830       15.5990           0  -1.02800       1.30000    
     19056 MEOH     1304     MEOH     DO1      DRUD     -2.48830      0.400000           0   0.00000       0.00000    
     19057 MEOH     1304     MEOH     HO1      HDP1A    0.360000       1.00800           0   0.00000       0.00000    
     19058 MEOH     1304     MEOH     HO2      DUMH      0.00000       1.00800           0   0.00000       0.00000    
     19059 MEOH     1304     MEOH     H1A      HDA3B    0.800000E-01   1.00800           0   0.00000       0.00000    
     19060 MEOH     1304     MEOH     H1B      HDA3B    0.800000E-01   1.00800           0   0.00000       0.00000    
     19061 MEOH     1304     MEOH     H1C      HDA3B    0.800000E-01   1.00800           0   0.00000       0.00000    
     19062 MEOH     1304     MEOH     LP1A     LPD     -0.230000       0.00000          -1   0.00000       0.00000    
     19063 MEOH     1304     MEOH     LP1B     LPD     -0.230000       0.00000          -1   0.00000       0.00000    
     19064 MEOH     1305     MEOH     C1       CD33B     2.31410       11.6110           0  -1.00000       1.30000    
     19065 MEOH     1305     MEOH     DC1      DRUD     -2.45410      0.400000           0   0.00000       0.00000    
     19066 MEOH     1305     MEOH     O1       OD31H     2.48830       15.5990           0  -1.02800       1.30000    
     19067 MEOH     1305     MEOH     DO1      DRUD     -2.48830      0.400000           0   0.00000       0.00000    
     19068 MEOH     1305     MEOH     HO1      HDP1A    0.360000       1.00800           0   0.00000       0.00000    
     19069 MEOH     1305     MEOH     HO2      DUMH      0.00000       1.00800           0   0.00000       0.00000    
     19070 MEOH     1305     MEOH     H1A      HDA3B    0.800000E-01   1.00800           0   0.00000       0.00000    
     19071 MEOH     1305     MEOH     H1B      HDA3B    0.800000E-01   1.00800           0   0.00000       0.00000    
     19072 MEOH     1305     MEOH     H1C      HDA3B    0.800000E-01   1.00800           0   0.00000       0.00000    
     19073 MEOH     1305     MEOH     LP1A     LPD     -0.230000       0.00000          -1   0.00000       0.00000    
     19074 MEOH     1305     MEOH     LP1B     LPD     -0.230000       0.00000          -1   0.00000       0.00000    
     19075 MEOH     1306     MEOH     C1       CD33B     2.31410       11.6110           0  -1.00000       1.30000    
     19076 MEOH     1306     MEOH     DC1      DRUD     -2.45410      0.400000           0   0.00000       0.00000    
     19077 MEOH     1306     MEOH     O1       OD31H     2.48830       15.5990           0  -1.02800       1.30000    
     19078 MEOH     1306     MEOH     DO1      DRUD     -2.48830      0.400000           0   0.00000       0.00000    
     19079 MEOH     1306     MEOH     HO1      HDP1A    0.360000       1.00800           0   0.00000       0.00000    
     19080 MEOH     1306     MEOH     HO2      DUMH      0.00000       1.00800           0   0.00000       0.00000    
     19081 MEOH     1306     MEOH     H1A      HDA3B    0.800000E-01   1.00800           0   0.00000       0.00000    
     19082 MEOH     1306     MEOH     H1B      HDA3B    0.800000E-01   1.00800           0   0.00000       0.00000    
     19083 MEOH     1306     MEOH     H1C      HDA3B    0.800000E-01   1.00800           0   0.00000       0.00000    
     19084 MEOH     1306     MEOH     LP1A     LPD     -0.230000       0.00000          -1   0.00000       0.00000    
     19085 MEOH     1306     MEOH     LP1B     LPD     -0.230000       0.00000          -1   0.00000       0.00000    
     19086 MEOH     1307     MEOH     C1       CD33B     2.31410       11.6110           0  -1.00000       1.30000    
     19087 MEOH     1307     MEOH     DC1      DRUD     -2.45410      0.400000           0   0.00000       0.00000    
     19088 MEOH     1307     MEOH     O1       OD31H     2.48830       15.5990           0  -1.02800       1.30000    
     19089 MEOH     1307     MEOH     DO1      DRUD     -2.48830      0.400000           0   0.00000       0.00000    
     19090 MEOH     1307     MEOH     HO1      HDP1A    0.360000       1.00800           0   0.00000       0.00000    
     19091 MEOH     1307     MEOH     HO2      DUMH      0.00000       1.00800           0   0.00000       0.00000    
     19092 MEOH     1307     MEOH     H1A      HDA3B    0.800000E-01   1.00800           0   0.00000       0.00000    
     19093 MEOH     1307     MEOH     H1B      HDA3B    0.800000E-01   1.00800           0   0.00000       0.00000    
     19094 MEOH     1307     MEOH     H1C      HDA3B    0.800000E-01   1.00800           0   0.00000       0.00000    
     19095 MEOH     1307     MEOH     LP1A     LPD     -0.230000       0.00000          -1   0.00000       0.00000    
     19096 MEOH     1307     MEOH     LP1B     LPD     -0.230000       0.00000          -1   0.00000       0.00000    
     19097 MEOH     1308     MEOH     C1       CD33B     2.31410       11.6110           0  -1.00000       1.30000    
     19098 MEOH     1308     MEOH     DC1      DRUD     -2.45410      0.400000           0   0.00000       0.00000    
     19099 MEOH     1308     MEOH     O1       OD31H     2.48830       15.5990           0  -1.02800       1.30000    
     19100 MEOH     1308     MEOH     DO1      DRUD     -2.48830      0.400000           0   0.00000       0.00000    
     19101 MEOH     1308     MEOH     HO1      HDP1A    0.360000       1.00800           0   0.00000       0.00000    
     19102 MEOH     1308     MEOH     HO2      DUMH      0.00000       1.00800           0   0.00000       0.00000    
     19103 MEOH     1308     MEOH     H1A      HDA3B    0.800000E-01   1.00800           0   0.00000       0.00000    
     19104 MEOH     1308     MEOH     H1B      HDA3B    0.800000E-01   1.00800           0   0.00000       0.00000    
     19105 MEOH     1308     MEOH     H1C      HDA3B    0.800000E-01   1.00800           0   0.00000       0.00000    
     19106 MEOH     1308     MEOH     LP1A     LPD     -0.230000       0.00000          -1   0.00000       0.00000    
     19107 MEOH     1308     MEOH     LP1B     LPD     -0.230000       0.00000          -1   0.00000       0.00000    
     19108 MEOH     1309     MEOH     C1       CD33B     2.31410       11.6110           0  -1.00000       1.30000    
     19109 MEOH     1309     MEOH     DC1      DRUD     -2.45410      0.400000           0   0.00000       0.00000    
     19110 MEOH     1309     MEOH     O1       OD31H     2.48830       15.5990           0  -1.02800       1.30000    
     19111 MEOH     1309     MEOH     DO1      DRUD     -2.48830      0.400000           0   0.00000       0.00000    
     19112 MEOH     1309     MEOH     HO1      HDP1A    0.360000       1.00800           0   0.00000       0.00000    
     19113 MEOH     1309     MEOH     HO2      DUMH      0.00000       1.00800           0   0.00000       0.00000    
     19114 MEOH     1309     MEOH     H1A      HDA3B    0.800000E-01   1.00800           0   0.00000       0.00000    
     19115 MEOH     1309     MEOH     H1B      HDA3B    0.800000E-01   1.00800           0   0.00000       0.00000    
     19116 MEOH     1309     MEOH     H1C      HDA3B    0.800000E-01   1.00800           0   0.00000       0.00000    
     19117 MEOH     1309     MEOH     LP1A     LPD     -0.230000       0.00000          -1   0.00000       0.00000    
     19118 MEOH     1309     MEOH     LP1B     LPD     -0.230000       0.00000          -1   0.00000       0.00000    
     19119 MEOH     1310     MEOH     C1       CD33B     2.31410       11.6110           0  -1.00000       1.30000    
     19120 MEOH     1310     MEOH     DC1      DRUD     -2.45410      0.400000           0   0.00000       0.00000    
     19121 MEOH     1310     MEOH     O1       OD31H     2.48830       15.5990           0  -1.02800       1.30000    
     19122 MEOH     1310     MEOH     DO1      DRUD     -2.48830      0.400000           0   0.00000       0.00000    
     19123 MEOH     1310     MEOH     HO1      HDP1A    0.360000       1.00800           0   0.00000       0.00000    
     19124 MEOH     1310     MEOH     HO2      DUMH      0.00000       1.00800           0   0.00000       0.00000    
     19125 MEOH     1310     MEOH     H1A      HDA3B    0.800000E-01   1.00800           0   0.00000       0.00000    
     19126 MEOH     1310     MEOH     H1B      HDA3B    0.800000E-01   1.00800           0   0.00000       0.00000    
     19127 MEOH     1310     MEOH     H1C      HDA3B    0.800000E-01   1.00800           0   0.00000       0.00000    
     19128 MEOH     1310     MEOH     LP1A     LPD     -0.230000       0.00000          -1   0.00000       0.00000    
     19129 MEOH     1310     MEOH     LP1B     LPD     -0.230000       0.00000          -1   0.00000       0.00000    
     19130 MEOH     1311     MEOH     C1       CD33B     2.31410       11.6110           0  -1.00000       1.30000    
     19131 MEOH     1311     MEOH     DC1      DRUD     -2.45410      0.400000           0   0.00000       0.00000    
     19132 MEOH     1311     MEOH     O1       OD31H     2.48830       15.5990           0  -1.02800       1.30000    
     19133 MEOH     1311     MEOH     DO1      DRUD     -2.48830      0.400000           0   0.00000       0.00000    
     19134 MEOH     1311     MEOH     HO1      HDP1A    0.360000       1.00800           0   0.00000       0.00000    
     19135 MEOH     1311     MEOH     HO2      DUMH      0.00000       1.00800           0   0.00000       0.00000    
     19136 MEOH     1311     MEOH     H1A      HDA3B    0.800000E-01   1.00800           0   0.00000       0.00000    
     19137 MEOH     1311     MEOH     H1B      HDA3B    0.800000E-01   1.00800           0   0.00000       0.00000    
     19138 MEOH     1311     MEOH     H1C      HDA3B    0.800000E-01   1.00800           0   0.00000       0.00000    
     19139 MEOH     1311     MEOH     LP1A     LPD     -0.230000       0.00000          -1   0.00000       0.00000    
     19140 MEOH     1311     MEOH     LP1B     LPD     -0.230000       0.00000          -1   0.00000       0.00000    
     19141 MEOH     1312     MEOH     C1       CD33B     2.31410       11.6110           0  -1.00000       1.30000    
     19142 MEOH     1312     MEOH     DC1      DRUD     -2.45410      0.400000           0   0.00000       0.00000    
     19143 MEOH     1312     MEOH     O1       OD31H     2.48830       15.5990           0  -1.02800       1.30000    
     19144 MEOH     1312     MEOH     DO1      DRUD     -2.48830      0.400000           0   0.00000       0.00000    
     19145 MEOH     1312     MEOH     HO1      HDP1A    0.360000       1.00800           0   0.00000       0.00000    
     19146 MEOH     1312     MEOH     HO2      DUMH      0.00000       1.00800           0   0.00000       0.00000    
     19147 MEOH     1312     MEOH     H1A      HDA3B    0.800000E-01   1.00800           0   0.00000       0.00000    
     19148 MEOH     1312     MEOH     H1B      HDA3B    0.800000E-01   1.00800           0   0.00000       0.00000    
     19149 MEOH     1312     MEOH     H1C      HDA3B    0.800000E-01   1.00800           0   0.00000       0.00000    
     19150 MEOH     1312     MEOH     LP1A     LPD     -0.230000       0.00000          -1   0.00000       0.00000    
     19151 MEOH     1312     MEOH     LP1B     LPD     -0.230000       0.00000          -1   0.00000       0.00000    
     19152 MEOH     1313     MEOH     C1       CD33B     2.31410       11.6110           0  -1.00000       1.30000    
     19153 MEOH     1313     MEOH     DC1      DRUD     -2.45410      0.400000           0   0.00000       0.00000    
     19154 MEOH     1313     MEOH     O1       OD31H     2.48830       15.5990           0  -1.02800       1.30000    
     19155 MEOH     1313     MEOH     DO1      DRUD     -2.48830      0.400000           0   0.00000       0.00000    
     19156 MEOH     1313     MEOH     HO1      HDP1A    0.360000       1.00800           0   0.00000       0.00000    
     19157 MEOH     1313     MEOH     HO2      DUMH      0.00000       1.00800           0   0.00000       0.00000    
     19158 MEOH     1313     MEOH     H1A      HDA3B    0.800000E-01   1.00800           0   0.00000       0.00000    
     19159 MEOH     1313     MEOH     H1B      HDA3B    0.800000E-01   1.00800           0   0.00000       0.00000    
     19160 MEOH     1313     MEOH     H1C      HDA3B    0.800000E-01   1.00800           0   0.00000       0.00000    
     19161 MEOH     1313     MEOH     LP1A     LPD     -0.230000       0.00000          -1   0.00000       0.00000    
     19162 MEOH     1313     MEOH     LP1B     LPD     -0.230000       0.00000          -1   0.00000       0.00000    
     19163 MEOH     1314     MEOH     C1       CD33B     2.31410       11.6110           0  -1.00000       1.30000    
     19164 MEOH     1314     MEOH     DC1      DRUD     -2.45410      0.400000           0   0.00000       0.00000    
     19165 MEOH     1314     MEOH     O1       OD31H     2.48830       15.5990           0  -1.02800       1.30000    
     19166 MEOH     1314     MEOH     DO1      DRUD     -2.48830      0.400000           0   0.00000       0.00000    
     19167 MEOH     1314     MEOH     HO1      HDP1A    0.360000       1.00800           0   0.00000       0.00000    
     19168 MEOH     1314     MEOH     HO2      DUMH      0.00000       1.00800           0   0.00000       0.00000    
     19169 MEOH     1314     MEOH     H1A      HDA3B    0.800000E-01   1.00800           0   0.00000       0.00000    
     19170 MEOH     1314     MEOH     H1B      HDA3B    0.800000E-01   1.00800           0   0.00000       0.00000    
     19171 MEOH     1314     MEOH     H1C      HDA3B    0.800000E-01   1.00800           0   0.00000       0.00000    
     19172 MEOH     1314     MEOH     LP1A     LPD     -0.230000       0.00000          -1   0.00000       0.00000    
     19173 MEOH     1314     MEOH     LP1B     LPD     -0.230000       0.00000          -1   0.00000       0.00000    
     19174 MEOH     1315     MEOH     C1       CD33B     2.31410       11.6110           0  -1.00000       1.30000    
     19175 MEOH     1315     MEOH     DC1      DRUD     -2.45410      0.400000           0   0.00000       0.00000    
     19176 MEOH     1315     MEOH     O1       OD31H     2.48830       15.5990           0  -1.02800       1.30000    
     19177 MEOH     1315     MEOH     DO1      DRUD     -2.48830      0.400000           0   0.00000       0.00000    
     19178 MEOH     1315     MEOH     HO1      HDP1A    0.360000       1.00800           0   0.00000       0.00000    
     19179 MEOH     1315     MEOH     HO2      DUMH      0.00000       1.00800           0   0.00000       0.00000    
     19180 MEOH     1315     MEOH     H1A      HDA3B    0.800000E-01   1.00800           0   0.00000       0.00000    
     19181 MEOH     1315     MEOH     H1B      HDA3B    0.800000E-01   1.00800           0   0.00000       0.00000    
     19182 MEOH     1315     MEOH     H1C      HDA3B    0.800000E-01   1.00800           0   0.00000       0.00000    
     19183 MEOH     1315     MEOH     LP1A     LPD     -0.230000       0.00000          -1   0.00000       0.00000    
     19184 MEOH     1315     MEOH     LP1B     LPD     -0.230000       0.00000          -1   0.00000       0.00000    
     19185 MEOH     1316     MEOH     C1       CD33B     2.31410       11.6110           0  -1.00000       1.30000    
     19186 MEOH     1316     MEOH     DC1      DRUD     -2.45410      0.400000           0   0.00000       0.00000    
     19187 MEOH     1316     MEOH     O1       OD31H     2.48830       15.5990           0  -1.02800       1.30000    
     19188 MEOH     1316     MEOH     DO1      DRUD     -2.48830      0.400000           0   0.00000       0.00000    
     19189 MEOH     1316     MEOH     HO1      HDP1A    0.360000       1.00800           0   0.00000       0.00000    
     19190 MEOH     1316     MEOH     HO2      DUMH      0.00000       1.00800           0   0.00000       0.00000    
     19191 MEOH     1316     MEOH     H1A      HDA3B    0.800000E-01   1.00800           0   0.00000       0.00000    
     19192 MEOH     1316     MEOH     H1B      HDA3B    0.800000E-01   1.00800           0   0.00000       0.00000    
     19193 MEOH     1316     MEOH     H1C      HDA3B    0.800000E-01   1.00800           0   0.00000       0.00000    
     19194 MEOH     1316     MEOH     LP1A     LPD     -0.230000       0.00000          -1   0.00000       0.00000    
     19195 MEOH     1316     MEOH     LP1B     LPD     -0.230000       0.00000          -1   0.00000       0.00000    
     19196 MEOH     1317     MEOH     C1       CD33B     2.31410       11.6110           0  -1.00000       1.30000    
     19197 MEOH     1317     MEOH     DC1      DRUD     -2.45410      0.400000           0   0.00000       0.00000    
     19198 MEOH     1317     MEOH     O1       OD31H     2.48830       15.5990           0  -1.02800       1.30000    
     19199 MEOH     1317     MEOH     DO1      DRUD     -2.48830      0.400000           0   0.00000       0.00000    
     19200 MEOH     1317     MEOH     HO1      HDP1A    0.360000       1.00800           0   0.00000       0.00000    
     19201 MEOH     1317     MEOH     HO2      DUMH      0.00000       1.00800           0   0.00000       0.00000    
     19202 MEOH     1317     MEOH     H1A      HDA3B    0.800000E-01   1.00800           0   0.00000       0.00000    
     19203 MEOH     1317     MEOH     H1B      HDA3B    0.800000E-01   1.00800           0   0.00000       0.00000    
     19204 MEOH     1317     MEOH     H1C      HDA3B    0.800000E-01   1.00800           0   0.00000       0.00000    
     19205 MEOH     1317     MEOH     LP1A     LPD     -0.230000       0.00000          -1   0.00000       0.00000    
     19206 MEOH     1317     MEOH     LP1B     LPD     -0.230000       0.00000          -1   0.00000       0.00000    
     19207 MEOH     1318     MEOH     C1       CD33B     2.31410       11.6110           0  -1.00000       1.30000    
     19208 MEOH     1318     MEOH     DC1      DRUD     -2.45410      0.400000           0   0.00000       0.00000    
     19209 MEOH     1318     MEOH     O1       OD31H     2.48830       15.5990           0  -1.02800       1.30000    
     19210 MEOH     1318     MEOH     DO1      DRUD     -2.48830      0.400000           0   0.00000       0.00000    
     19211 MEOH     1318     MEOH     HO1      HDP1A    0.360000       1.00800           0   0.00000       0.00000    
     19212 MEOH     1318     MEOH     HO2      DUMH      0.00000       1.00800           0   0.00000       0.00000    
     19213 MEOH     1318     MEOH     H1A      HDA3B    0.800000E-01   1.00800           0   0.00000       0.00000    
     19214 MEOH     1318     MEOH     H1B      HDA3B    0.800000E-01   1.00800           0   0.00000       0.00000    
     19215 MEOH     1318     MEOH     H1C      HDA3B    0.800000E-01   1.00800           0   0.00000       0.00000    
     19216 MEOH     1318     MEOH     LP1A     LPD     -0.230000       0.00000          -1   0.00000       0.00000    
     19217 MEOH     1318     MEOH     LP1B     LPD     -0.230000       0.00000          -1   0.00000       0.00000    
     19218 MEOH     1319     MEOH     C1       CD33B     2.31410       11.6110           0  -1.00000       1.30000    
     19219 MEOH     1319     MEOH     DC1      DRUD     -2.45410      0.400000           0   0.00000       0.00000    
     19220 MEOH     1319     MEOH     O1       OD31H     2.48830       15.5990           0  -1.02800       1.30000    
     19221 MEOH     1319     MEOH     DO1      DRUD     -2.48830      0.400000           0   0.00000       0.00000    
     19222 MEOH     1319     MEOH     HO1      HDP1A    0.360000       1.00800           0   0.00000       0.00000    
     19223 MEOH     1319     MEOH     HO2      DUMH      0.00000       1.00800           0   0.00000       0.00000    
     19224 MEOH     1319     MEOH     H1A      HDA3B    0.800000E-01   1.00800           0   0.00000       0.00000    
     19225 MEOH     1319     MEOH     H1B      HDA3B    0.800000E-01   1.00800           0   0.00000       0.00000    
     19226 MEOH     1319     MEOH     H1C      HDA3B    0.800000E-01   1.00800           0   0.00000       0.00000    
     19227 MEOH     1319     MEOH     LP1A     LPD     -0.230000       0.00000          -1   0.00000       0.00000    
     19228 MEOH     1319     MEOH     LP1B     LPD     -0.230000       0.00000          -1   0.00000       0.00000    
     19229 MEOH     1320     MEOH     C1       CD33B     2.31410       11.6110           0  -1.00000       1.30000    
     19230 MEOH     1320     MEOH     DC1      DRUD     -2.45410      0.400000           0   0.00000       0.00000    
     19231 MEOH     1320     MEOH     O1       OD31H     2.48830       15.5990           0  -1.02800       1.30000    
     19232 MEOH     1320     MEOH     DO1      DRUD     -2.48830      0.400000           0   0.00000       0.00000    
     19233 MEOH     1320     MEOH     HO1      HDP1A    0.360000       1.00800           0   0.00000       0.00000    
     19234 MEOH     1320     MEOH     HO2      DUMH      0.00000       1.00800           0   0.00000       0.00000    
     19235 MEOH     1320     MEOH     H1A      HDA3B    0.800000E-01   1.00800           0   0.00000       0.00000    
     19236 MEOH     1320     MEOH     H1B      HDA3B    0.800000E-01   1.00800           0   0.00000       0.00000    
     19237 MEOH     1320     MEOH     H1C      HDA3B    0.800000E-01   1.00800           0   0.00000       0.00000    
     19238 MEOH     1320     MEOH     LP1A     LPD     -0.230000       0.00000          -1   0.00000       0.00000    
     19239 MEOH     1320     MEOH     LP1B     LPD     -0.230000       0.00000          -1   0.00000       0.00000    
     19240 MEOH     1321     MEOH     C1       CD33B     2.31410       11.6110           0  -1.00000       1.30000    
     19241 MEOH     1321     MEOH     DC1      DRUD     -2.45410      0.400000           0   0.00000       0.00000    
     19242 MEOH     1321     MEOH     O1       OD31H     2.48830       15.5990           0  -1.02800       1.30000    
     19243 MEOH     1321     MEOH     DO1      DRUD     -2.48830      0.400000           0   0.00000       0.00000    
     19244 MEOH     1321     MEOH     HO1      HDP1A    0.360000       1.00800           0   0.00000       0.00000    
     19245 MEOH     1321     MEOH     HO2      DUMH      0.00000       1.00800           0   0.00000       0.00000    
     19246 MEOH     1321     MEOH     H1A      HDA3B    0.800000E-01   1.00800           0   0.00000       0.00000    
     19247 MEOH     1321     MEOH     H1B      HDA3B    0.800000E-01   1.00800           0   0.00000       0.00000    
     19248 MEOH     1321     MEOH     H1C      HDA3B    0.800000E-01   1.00800           0   0.00000       0.00000    
     19249 MEOH     1321     MEOH     LP1A     LPD     -0.230000       0.00000          -1   0.00000       0.00000    
     19250 MEOH     1321     MEOH     LP1B     LPD     -0.230000       0.00000          -1   0.00000       0.00000    
     19251 MEOH     1322     MEOH     C1       CD33B     2.31410       11.6110           0  -1.00000       1.30000    
     19252 MEOH     1322     MEOH     DC1      DRUD     -2.45410      0.400000           0   0.00000       0.00000    
     19253 MEOH     1322     MEOH     O1       OD31H     2.48830       15.5990           0  -1.02800       1.30000    
     19254 MEOH     1322     MEOH     DO1      DRUD     -2.48830      0.400000           0   0.00000       0.00000    
     19255 MEOH     1322     MEOH     HO1      HDP1A    0.360000       1.00800           0   0.00000       0.00000    
     19256 MEOH     1322     MEOH     HO2      DUMH      0.00000       1.00800           0   0.00000       0.00000    
     19257 MEOH     1322     MEOH     H1A      HDA3B    0.800000E-01   1.00800           0   0.00000       0.00000    
     19258 MEOH     1322     MEOH     H1B      HDA3B    0.800000E-01   1.00800           0   0.00000       0.00000    
     19259 MEOH     1322     MEOH     H1C      HDA3B    0.800000E-01   1.00800           0   0.00000       0.00000    
     19260 MEOH     1322     MEOH     LP1A     LPD     -0.230000       0.00000          -1   0.00000       0.00000    
     19261 MEOH     1322     MEOH     LP1B     LPD     -0.230000       0.00000          -1   0.00000       0.00000    
     19262 MEOH     1323     MEOH     C1       CD33B     2.31410       11.6110           0  -1.00000       1.30000    
     19263 MEOH     1323     MEOH     DC1      DRUD     -2.45410      0.400000           0   0.00000       0.00000    
     19264 MEOH     1323     MEOH     O1       OD31H     2.48830       15.5990           0  -1.02800       1.30000    
     19265 MEOH     1323     MEOH     DO1      DRUD     -2.48830      0.400000           0   0.00000       0.00000    
     19266 MEOH     1323     MEOH     HO1      HDP1A    0.360000       1.00800           0   0.00000       0.00000    
     19267 MEOH     1323     MEOH     HO2      DUMH      0.00000       1.00800           0   0.00000       0.00000    
     19268 MEOH     1323     MEOH     H1A      HDA3B    0.800000E-01   1.00800           0   0.00000       0.00000    
     19269 MEOH     1323     MEOH     H1B      HDA3B    0.800000E-01   1.00800           0   0.00000       0.00000    
     19270 MEOH     1323     MEOH     H1C      HDA3B    0.800000E-01   1.00800           0   0.00000       0.00000    
     19271 MEOH     1323     MEOH     LP1A     LPD     -0.230000       0.00000          -1   0.00000       0.00000    
     19272 MEOH     1323     MEOH     LP1B     LPD     -0.230000       0.00000          -1   0.00000       0.00000    
     19273 MEOH     1324     MEOH     C1       CD33B     2.31410       11.6110           0  -1.00000       1.30000    
     19274 MEOH     1324     MEOH     DC1      DRUD     -2.45410      0.400000           0   0.00000       0.00000    
     19275 MEOH     1324     MEOH     O1       OD31H     2.48830       15.5990           0  -1.02800       1.30000    
     19276 MEOH     1324     MEOH     DO1      DRUD     -2.48830      0.400000           0   0.00000       0.00000    
     19277 MEOH     1324     MEOH     HO1      HDP1A    0.360000       1.00800           0   0.00000       0.00000    
     19278 MEOH     1324     MEOH     HO2      DUMH      0.00000       1.00800           0   0.00000       0.00000    
     19279 MEOH     1324     MEOH     H1A      HDA3B    0.800000E-01   1.00800           0   0.00000       0.00000    
     19280 MEOH     1324     MEOH     H1B      HDA3B    0.800000E-01   1.00800           0   0.00000       0.00000    
     19281 MEOH     1324     MEOH     H1C      HDA3B    0.800000E-01   1.00800           0   0.00000       0.00000    
     19282 MEOH     1324     MEOH     LP1A     LPD     -0.230000       0.00000          -1   0.00000       0.00000    
     19283 MEOH     1324     MEOH     LP1B     LPD     -0.230000       0.00000          -1   0.00000       0.00000    
     19284 MEOH     1325     MEOH     C1       CD33B     2.31410       11.6110           0  -1.00000       1.30000    
     19285 MEOH     1325     MEOH     DC1      DRUD     -2.45410      0.400000           0   0.00000       0.00000    
     19286 MEOH     1325     MEOH     O1       OD31H     2.48830       15.5990           0  -1.02800       1.30000    
     19287 MEOH     1325     MEOH     DO1      DRUD     -2.48830      0.400000           0   0.00000       0.00000    
     19288 MEOH     1325     MEOH     HO1      HDP1A    0.360000       1.00800           0   0.00000       0.00000    
     19289 MEOH     1325     MEOH     HO2      DUMH      0.00000       1.00800           0   0.00000       0.00000    
     19290 MEOH     1325     MEOH     H1A      HDA3B    0.800000E-01   1.00800           0   0.00000       0.00000    
     19291 MEOH     1325     MEOH     H1B      HDA3B    0.800000E-01   1.00800           0   0.00000       0.00000    
     19292 MEOH     1325     MEOH     H1C      HDA3B    0.800000E-01   1.00800           0   0.00000       0.00000    
     19293 MEOH     1325     MEOH     LP1A     LPD     -0.230000       0.00000          -1   0.00000       0.00000    
     19294 MEOH     1325     MEOH     LP1B     LPD     -0.230000       0.00000          -1   0.00000       0.00000    
     19295 MEOH     1326     MEOH     C1       CD33B     2.31410       11.6110           0  -1.00000       1.30000    
     19296 MEOH     1326     MEOH     DC1      DRUD     -2.45410      0.400000           0   0.00000       0.00000    
     19297 MEOH     1326     MEOH     O1       OD31H     2.48830       15.5990           0  -1.02800       1.30000    
     19298 MEOH     1326     MEOH     DO1      DRUD     -2.48830      0.400000           0   0.00000       0.00000    
     19299 MEOH     1326     MEOH     HO1      HDP1A    0.360000       1.00800           0   0.00000       0.00000    
     19300 MEOH     1326     MEOH     HO2      DUMH      0.00000       1.00800           0   0.00000       0.00000    
     19301 MEOH     1326     MEOH     H1A      HDA3B    0.800000E-01   1.00800           0   0.00000       0.00000    
     19302 MEOH     1326     MEOH     H1B      HDA3B    0.800000E-01   1.00800           0   0.00000       0.00000    
     19303 MEOH     1326     MEOH     H1C      HDA3B    0.800000E-01   1.00800           0   0.00000       0.00000    
     19304 MEOH     1326     MEOH     LP1A     LPD     -0.230000       0.00000          -1   0.00000       0.00000    
     19305 MEOH     1326     MEOH     LP1B     LPD     -0.230000       0.00000          -1   0.00000       0.00000    
     19306 MEOH     1327     MEOH     C1       CD33B     2.31410       11.6110           0  -1.00000       1.30000    
     19307 MEOH     1327     MEOH     DC1      DRUD     -2.45410      0.400000           0   0.00000       0.00000    
     19308 MEOH     1327     MEOH     O1       OD31H     2.48830       15.5990           0  -1.02800       1.30000    
     19309 MEOH     1327     MEOH     DO1      DRUD     -2.48830      0.400000           0   0.00000       0.00000    
     19310 MEOH     1327     MEOH     HO1      HDP1A    0.360000       1.00800           0   0.00000       0.00000    
     19311 MEOH     1327     MEOH     HO2      DUMH      0.00000       1.00800           0   0.00000       0.00000    
     19312 MEOH     1327     MEOH     H1A      HDA3B    0.800000E-01   1.00800           0   0.00000       0.00000    
     19313 MEOH     1327     MEOH     H1B      HDA3B    0.800000E-01   1.00800           0   0.00000       0.00000    
     19314 MEOH     1327     MEOH     H1C      HDA3B    0.800000E-01   1.00800           0   0.00000       0.00000    
     19315 MEOH     1327     MEOH     LP1A     LPD     -0.230000       0.00000          -1   0.00000       0.00000    
     19316 MEOH     1327     MEOH     LP1B     LPD     -0.230000       0.00000          -1   0.00000       0.00000    
     19317 MEOH     1328     MEOH     C1       CD33B     2.31410       11.6110           0  -1.00000       1.30000    
     19318 MEOH     1328     MEOH     DC1      DRUD     -2.45410      0.400000           0   0.00000       0.00000    
     19319 MEOH     1328     MEOH     O1       OD31H     2.48830       15.5990           0  -1.02800       1.30000    
     19320 MEOH     1328     MEOH     DO1      DRUD     -2.48830      0.400000           0   0.00000       0.00000    
     19321 MEOH     1328     MEOH     HO1      HDP1A    0.360000       1.00800           0   0.00000       0.00000    
     19322 MEOH     1328     MEOH     HO2      DUMH      0.00000       1.00800           0   0.00000       0.00000    
     19323 MEOH     1328     MEOH     H1A      HDA3B    0.800000E-01   1.00800           0   0.00000       0.00000    
     19324 MEOH     1328     MEOH     H1B      HDA3B    0.800000E-01   1.00800           0   0.00000       0.00000    
     19325 MEOH     1328     MEOH     H1C      HDA3B    0.800000E-01   1.00800           0   0.00000       0.00000    
     19326 MEOH     1328     MEOH     LP1A     LPD     -0.230000       0.00000          -1   0.00000       0.00000    
     19327 MEOH     1328     MEOH     LP1B     LPD     -0.230000       0.00000          -1   0.00000       0.00000    
     19328 MEOH     1329     MEOH     C1       CD33B     2.31410       11.6110           0  -1.00000       1.30000    
     19329 MEOH     1329     MEOH     DC1      DRUD     -2.45410      0.400000           0   0.00000       0.00000    
     19330 MEOH     1329     MEOH     O1       OD31H     2.48830       15.5990           0  -1.02800       1.30000    
     19331 MEOH     1329     MEOH     DO1      DRUD     -2.48830      0.400000           0   0.00000       0.00000    
     19332 MEOH     1329     MEOH     HO1      HDP1A    0.360000       1.00800           0   0.00000       0.00000    
     19333 MEOH     1329     MEOH     HO2      DUMH      0.00000       1.00800           0   0.00000       0.00000    
     19334 MEOH     1329     MEOH     H1A      HDA3B    0.800000E-01   1.00800           0   0.00000       0.00000    
     19335 MEOH     1329     MEOH     H1B      HDA3B    0.800000E-01   1.00800           0   0.00000       0.00000    
     19336 MEOH     1329     MEOH     H1C      HDA3B    0.800000E-01   1.00800           0   0.00000       0.00000    
     19337 MEOH     1329     MEOH     LP1A     LPD     -0.230000       0.00000          -1   0.00000       0.00000    
     19338 MEOH     1329     MEOH     LP1B     LPD     -0.230000       0.00000          -1   0.00000       0.00000    
     19339 MEOH     1330     MEOH     C1       CD33B     2.31410       11.6110           0  -1.00000       1.30000    
     19340 MEOH     1330     MEOH     DC1      DRUD     -2.45410      0.400000           0   0.00000       0.00000    
     19341 MEOH     1330     MEOH     O1       OD31H     2.48830       15.5990           0  -1.02800       1.30000    
     19342 MEOH     1330     MEOH     DO1      DRUD     -2.48830      0.400000           0   0.00000       0.00000    
     19343 MEOH     1330     MEOH     HO1      HDP1A    0.360000       1.00800           0   0.00000       0.00000    
     19344 MEOH     1330     MEOH     HO2      DUMH      0.00000       1.00800           0   0.00000       0.00000    
     19345 MEOH     1330     MEOH     H1A      HDA3B    0.800000E-01   1.00800           0   0.00000       0.00000    
     19346 MEOH     1330     MEOH     H1B      HDA3B    0.800000E-01   1.00800           0   0.00000       0.00000    
     19347 MEOH     1330     MEOH     H1C      HDA3B    0.800000E-01   1.00800           0   0.00000       0.00000    
     19348 MEOH     1330     MEOH     LP1A     LPD     -0.230000       0.00000          -1   0.00000       0.00000    
     19349 MEOH     1330     MEOH     LP1B     LPD     -0.230000       0.00000          -1   0.00000       0.00000    
     19350 MEOH     1331     MEOH     C1       CD33B     2.31410       11.6110           0  -1.00000       1.30000    
     19351 MEOH     1331     MEOH     DC1      DRUD     -2.45410      0.400000           0   0.00000       0.00000    
     19352 MEOH     1331     MEOH     O1       OD31H     2.48830       15.5990           0  -1.02800       1.30000    
     19353 MEOH     1331     MEOH     DO1      DRUD     -2.48830      0.400000           0   0.00000       0.00000    
     19354 MEOH     1331     MEOH     HO1      HDP1A    0.360000       1.00800           0   0.00000       0.00000    
     19355 MEOH     1331     MEOH     HO2      DUMH      0.00000       1.00800           0   0.00000       0.00000    
     19356 MEOH     1331     MEOH     H1A      HDA3B    0.800000E-01   1.00800           0   0.00000       0.00000    
     19357 MEOH     1331     MEOH     H1B      HDA3B    0.800000E-01   1.00800           0   0.00000       0.00000    
     19358 MEOH     1331     MEOH     H1C      HDA3B    0.800000E-01   1.00800           0   0.00000       0.00000    
     19359 MEOH     1331     MEOH     LP1A     LPD     -0.230000       0.00000          -1   0.00000       0.00000    
     19360 MEOH     1331     MEOH     LP1B     LPD     -0.230000       0.00000          -1   0.00000       0.00000    
     19361 MEOH     1332     MEOH     C1       CD33B     2.31410       11.6110           0  -1.00000       1.30000    
     19362 MEOH     1332     MEOH     DC1      DRUD     -2.45410      0.400000           0   0.00000       0.00000    
     19363 MEOH     1332     MEOH     O1       OD31H     2.48830       15.5990           0  -1.02800       1.30000    
     19364 MEOH     1332     MEOH     DO1      DRUD     -2.48830      0.400000           0   0.00000       0.00000    
     19365 MEOH     1332     MEOH     HO1      HDP1A    0.360000       1.00800           0   0.00000       0.00000    
     19366 MEOH     1332     MEOH     HO2      DUMH      0.00000       1.00800           0   0.00000       0.00000    
     19367 MEOH     1332     MEOH     H1A      HDA3B    0.800000E-01   1.00800           0   0.00000       0.00000    
     19368 MEOH     1332     MEOH     H1B      HDA3B    0.800000E-01   1.00800           0   0.00000       0.00000    
     19369 MEOH     1332     MEOH     H1C      HDA3B    0.800000E-01   1.00800           0   0.00000       0.00000    
     19370 MEOH     1332     MEOH     LP1A     LPD     -0.230000       0.00000          -1   0.00000       0.00000    
     19371 MEOH     1332     MEOH     LP1B     LPD     -0.230000       0.00000          -1   0.00000       0.00000    
     19372 MEOH     1333     MEOH     C1       CD33B     2.31410       11.6110           0  -1.00000       1.30000    
     19373 MEOH     1333     MEOH     DC1      DRUD     -2.45410      0.400000           0   0.00000       0.00000    
     19374 MEOH     1333     MEOH     O1       OD31H     2.48830       15.5990           0  -1.02800       1.30000    
     19375 MEOH     1333     MEOH     DO1      DRUD     -2.48830      0.400000           0   0.00000       0.00000    
     19376 MEOH     1333     MEOH     HO1      HDP1A    0.360000       1.00800           0   0.00000       0.00000    
     19377 MEOH     1333     MEOH     HO2      DUMH      0.00000       1.00800           0   0.00000       0.00000    
     19378 MEOH     1333     MEOH     H1A      HDA3B    0.800000E-01   1.00800           0   0.00000       0.00000    
     19379 MEOH     1333     MEOH     H1B      HDA3B    0.800000E-01   1.00800           0   0.00000       0.00000    
     19380 MEOH     1333     MEOH     H1C      HDA3B    0.800000E-01   1.00800           0   0.00000       0.00000    
     19381 MEOH     1333     MEOH     LP1A     LPD     -0.230000       0.00000          -1   0.00000       0.00000    
     19382 MEOH     1333     MEOH     LP1B     LPD     -0.230000       0.00000          -1   0.00000       0.00000    
     19383 MEOH     1334     MEOH     C1       CD33B     2.31410       11.6110           0  -1.00000       1.30000    
     19384 MEOH     1334     MEOH     DC1      DRUD     -2.45410      0.400000           0   0.00000       0.00000    
     19385 MEOH     1334     MEOH     O1       OD31H     2.48830       15.5990           0  -1.02800       1.30000    
     19386 MEOH     1334     MEOH     DO1      DRUD     -2.48830      0.400000           0   0.00000       0.00000    
     19387 MEOH     1334     MEOH     HO1      HDP1A    0.360000       1.00800           0   0.00000       0.00000    
     19388 MEOH     1334     MEOH     HO2      DUMH      0.00000       1.00800           0   0.00000       0.00000    
     19389 MEOH     1334     MEOH     H1A      HDA3B    0.800000E-01   1.00800           0   0.00000       0.00000    
     19390 MEOH     1334     MEOH     H1B      HDA3B    0.800000E-01   1.00800           0   0.00000       0.00000    
     19391 MEOH     1334     MEOH     H1C      HDA3B    0.800000E-01   1.00800           0   0.00000       0.00000    
     19392 MEOH     1334     MEOH     LP1A     LPD     -0.230000       0.00000          -1   0.00000       0.00000    
     19393 MEOH     1334     MEOH     LP1B     LPD     -0.230000       0.00000          -1   0.00000       0.00000    
     19394 MEOH     1335     MEOH     C1       CD33B     2.31410       11.6110           0  -1.00000       1.30000    
     19395 MEOH     1335     MEOH     DC1      DRUD     -2.45410      0.400000           0   0.00000       0.00000    
     19396 MEOH     1335     MEOH     O1       OD31H     2.48830       15.5990           0  -1.02800       1.30000    
     19397 MEOH     1335     MEOH     DO1      DRUD     -2.48830      0.400000           0   0.00000       0.00000    
     19398 MEOH     1335     MEOH     HO1      HDP1A    0.360000       1.00800           0   0.00000       0.00000    
     19399 MEOH     1335     MEOH     HO2      DUMH      0.00000       1.00800           0   0.00000       0.00000    
     19400 MEOH     1335     MEOH     H1A      HDA3B    0.800000E-01   1.00800           0   0.00000       0.00000    
     19401 MEOH     1335     MEOH     H1B      HDA3B    0.800000E-01   1.00800           0   0.00000       0.00000    
     19402 MEOH     1335     MEOH     H1C      HDA3B    0.800000E-01   1.00800           0   0.00000       0.00000    
     19403 MEOH     1335     MEOH     LP1A     LPD     -0.230000       0.00000          -1   0.00000       0.00000    
     19404 MEOH     1335     MEOH     LP1B     LPD     -0.230000       0.00000          -1   0.00000       0.00000    
     19405 MEOH     1336     MEOH     C1       CD33B     2.31410       11.6110           0  -1.00000       1.30000    
     19406 MEOH     1336     MEOH     DC1      DRUD     -2.45410      0.400000           0   0.00000       0.00000    
     19407 MEOH     1336     MEOH     O1       OD31H     2.48830       15.5990           0  -1.02800       1.30000    
     19408 MEOH     1336     MEOH     DO1      DRUD     -2.48830      0.400000           0   0.00000       0.00000    
     19409 MEOH     1336     MEOH     HO1      HDP1A    0.360000       1.00800           0   0.00000       0.00000    
     19410 MEOH     1336     MEOH     HO2      DUMH      0.00000       1.00800           0   0.00000       0.00000    
     19411 MEOH     1336     MEOH     H1A      HDA3B    0.800000E-01   1.00800           0   0.00000       0.00000    
     19412 MEOH     1336     MEOH     H1B      HDA3B    0.800000E-01   1.00800           0   0.00000       0.00000    
     19413 MEOH     1336     MEOH     H1C      HDA3B    0.800000E-01   1.00800           0   0.00000       0.00000    
     19414 MEOH     1336     MEOH     LP1A     LPD     -0.230000       0.00000          -1   0.00000       0.00000    
     19415 MEOH     1336     MEOH     LP1B     LPD     -0.230000       0.00000          -1   0.00000       0.00000    
     19416 MEOH     1337     MEOH     C1       CD33B     2.31410       11.6110           0  -1.00000       1.30000    
     19417 MEOH     1337     MEOH     DC1      DRUD     -2.45410      0.400000           0   0.00000       0.00000    
     19418 MEOH     1337     MEOH     O1       OD31H     2.48830       15.5990           0  -1.02800       1.30000    
     19419 MEOH     1337     MEOH     DO1      DRUD     -2.48830      0.400000           0   0.00000       0.00000    
     19420 MEOH     1337     MEOH     HO1      HDP1A    0.360000       1.00800           0   0.00000       0.00000    
     19421 MEOH     1337     MEOH     HO2      DUMH      0.00000       1.00800           0   0.00000       0.00000    
     19422 MEOH     1337     MEOH     H1A      HDA3B    0.800000E-01   1.00800           0   0.00000       0.00000    
     19423 MEOH     1337     MEOH     H1B      HDA3B    0.800000E-01   1.00800           0   0.00000       0.00000    
     19424 MEOH     1337     MEOH     H1C      HDA3B    0.800000E-01   1.00800           0   0.00000       0.00000    
     19425 MEOH     1337     MEOH     LP1A     LPD     -0.230000       0.00000          -1   0.00000       0.00000    
     19426 MEOH     1337     MEOH     LP1B     LPD     -0.230000       0.00000          -1   0.00000       0.00000    
     19427 MEOH     1338     MEOH     C1       CD33B     2.31410       11.6110           0  -1.00000       1.30000    
     19428 MEOH     1338     MEOH     DC1      DRUD     -2.45410      0.400000           0   0.00000       0.00000    
     19429 MEOH     1338     MEOH     O1       OD31H     2.48830       15.5990           0  -1.02800       1.30000    
     19430 MEOH     1338     MEOH     DO1      DRUD     -2.48830      0.400000           0   0.00000       0.00000    
     19431 MEOH     1338     MEOH     HO1      HDP1A    0.360000       1.00800           0   0.00000       0.00000    
     19432 MEOH     1338     MEOH     HO2      DUMH      0.00000       1.00800           0   0.00000       0.00000    
     19433 MEOH     1338     MEOH     H1A      HDA3B    0.800000E-01   1.00800           0   0.00000       0.00000    
     19434 MEOH     1338     MEOH     H1B      HDA3B    0.800000E-01   1.00800           0   0.00000       0.00000    
     19435 MEOH     1338     MEOH     H1C      HDA3B    0.800000E-01   1.00800           0   0.00000       0.00000    
     19436 MEOH     1338     MEOH     LP1A     LPD     -0.230000       0.00000          -1   0.00000       0.00000    
     19437 MEOH     1338     MEOH     LP1B     LPD     -0.230000       0.00000          -1   0.00000       0.00000    
     19438 MEOH     1339     MEOH     C1       CD33B     2.31410       11.6110           0  -1.00000       1.30000    
     19439 MEOH     1339     MEOH     DC1      DRUD     -2.45410      0.400000           0   0.00000       0.00000    
     19440 MEOH     1339     MEOH     O1       OD31H     2.48830       15.5990           0  -1.02800       1.30000    
     19441 MEOH     1339     MEOH     DO1      DRUD     -2.48830      0.400000           0   0.00000       0.00000    
     19442 MEOH     1339     MEOH     HO1      HDP1A    0.360000       1.00800           0   0.00000       0.00000    
     19443 MEOH     1339     MEOH     HO2      DUMH      0.00000       1.00800           0   0.00000       0.00000    
     19444 MEOH     1339     MEOH     H1A      HDA3B    0.800000E-01   1.00800           0   0.00000       0.00000    
     19445 MEOH     1339     MEOH     H1B      HDA3B    0.800000E-01   1.00800           0   0.00000       0.00000    
     19446 MEOH     1339     MEOH     H1C      HDA3B    0.800000E-01   1.00800           0   0.00000       0.00000    
     19447 MEOH     1339     MEOH     LP1A     LPD     -0.230000       0.00000          -1   0.00000       0.00000    
     19448 MEOH     1339     MEOH     LP1B     LPD     -0.230000       0.00000          -1   0.00000       0.00000    
     19449 MEOH     1340     MEOH     C1       CD33B     2.31410       11.6110           0  -1.00000       1.30000    
     19450 MEOH     1340     MEOH     DC1      DRUD     -2.45410      0.400000           0   0.00000       0.00000    
     19451 MEOH     1340     MEOH     O1       OD31H     2.48830       15.5990           0  -1.02800       1.30000    
     19452 MEOH     1340     MEOH     DO1      DRUD     -2.48830      0.400000           0   0.00000       0.00000    
     19453 MEOH     1340     MEOH     HO1      HDP1A    0.360000       1.00800           0   0.00000       0.00000    
     19454 MEOH     1340     MEOH     HO2      DUMH      0.00000       1.00800           0   0.00000       0.00000    
     19455 MEOH     1340     MEOH     H1A      HDA3B    0.800000E-01   1.00800           0   0.00000       0.00000    
     19456 MEOH     1340     MEOH     H1B      HDA3B    0.800000E-01   1.00800           0   0.00000       0.00000    
     19457 MEOH     1340     MEOH     H1C      HDA3B    0.800000E-01   1.00800           0   0.00000       0.00000    
     19458 MEOH     1340     MEOH     LP1A     LPD     -0.230000       0.00000          -1   0.00000       0.00000    
     19459 MEOH     1340     MEOH     LP1B     LPD     -0.230000       0.00000          -1   0.00000       0.00000    
     19460 MEOH     1341     MEOH     C1       CD33B     2.31410       11.6110           0  -1.00000       1.30000    
     19461 MEOH     1341     MEOH     DC1      DRUD     -2.45410      0.400000           0   0.00000       0.00000    
     19462 MEOH     1341     MEOH     O1       OD31H     2.48830       15.5990           0  -1.02800       1.30000    
     19463 MEOH     1341     MEOH     DO1      DRUD     -2.48830      0.400000           0   0.00000       0.00000    
     19464 MEOH     1341     MEOH     HO1      HDP1A    0.360000       1.00800           0   0.00000       0.00000    
     19465 MEOH     1341     MEOH     HO2      DUMH      0.00000       1.00800           0   0.00000       0.00000    
     19466 MEOH     1341     MEOH     H1A      HDA3B    0.800000E-01   1.00800           0   0.00000       0.00000    
     19467 MEOH     1341     MEOH     H1B      HDA3B    0.800000E-01   1.00800           0   0.00000       0.00000    
     19468 MEOH     1341     MEOH     H1C      HDA3B    0.800000E-01   1.00800           0   0.00000       0.00000    
     19469 MEOH     1341     MEOH     LP1A     LPD     -0.230000       0.00000          -1   0.00000       0.00000    
     19470 MEOH     1341     MEOH     LP1B     LPD     -0.230000       0.00000          -1   0.00000       0.00000    
     19471 MEOH     1342     MEOH     C1       CD33B     2.31410       11.6110           0  -1.00000       1.30000    
     19472 MEOH     1342     MEOH     DC1      DRUD     -2.45410      0.400000           0   0.00000       0.00000    
     19473 MEOH     1342     MEOH     O1       OD31H     2.48830       15.5990           0  -1.02800       1.30000    
     19474 MEOH     1342     MEOH     DO1      DRUD     -2.48830      0.400000           0   0.00000       0.00000    
     19475 MEOH     1342     MEOH     HO1      HDP1A    0.360000       1.00800           0   0.00000       0.00000    
     19476 MEOH     1342     MEOH     HO2      DUMH      0.00000       1.00800           0   0.00000       0.00000    
     19477 MEOH     1342     MEOH     H1A      HDA3B    0.800000E-01   1.00800           0   0.00000       0.00000    
     19478 MEOH     1342     MEOH     H1B      HDA3B    0.800000E-01   1.00800           0   0.00000       0.00000    
     19479 MEOH     1342     MEOH     H1C      HDA3B    0.800000E-01   1.00800           0   0.00000       0.00000    
     19480 MEOH     1342     MEOH     LP1A     LPD     -0.230000       0.00000          -1   0.00000       0.00000    
     19481 MEOH     1342     MEOH     LP1B     LPD     -0.230000       0.00000          -1   0.00000       0.00000    
     19482 MEOH     1343     MEOH     C1       CD33B     2.31410       11.6110           0  -1.00000       1.30000    
     19483 MEOH     1343     MEOH     DC1      DRUD     -2.45410      0.400000           0   0.00000       0.00000    
     19484 MEOH     1343     MEOH     O1       OD31H     2.48830       15.5990           0  -1.02800       1.30000    
     19485 MEOH     1343     MEOH     DO1      DRUD     -2.48830      0.400000           0   0.00000       0.00000    
     19486 MEOH     1343     MEOH     HO1      HDP1A    0.360000       1.00800           0   0.00000       0.00000    
     19487 MEOH     1343     MEOH     HO2      DUMH      0.00000       1.00800           0   0.00000       0.00000    
     19488 MEOH     1343     MEOH     H1A      HDA3B    0.800000E-01   1.00800           0   0.00000       0.00000    
     19489 MEOH     1343     MEOH     H1B      HDA3B    0.800000E-01   1.00800           0   0.00000       0.00000    
     19490 MEOH     1343     MEOH     H1C      HDA3B    0.800000E-01   1.00800           0   0.00000       0.00000    
     19491 MEOH     1343     MEOH     LP1A     LPD     -0.230000       0.00000          -1   0.00000       0.00000    
     19492 MEOH     1343     MEOH     LP1B     LPD     -0.230000       0.00000          -1   0.00000       0.00000    
     19493 MEOH     1344     MEOH     C1       CD33B     2.31410       11.6110           0  -1.00000       1.30000    
     19494 MEOH     1344     MEOH     DC1      DRUD     -2.45410      0.400000           0   0.00000       0.00000    
     19495 MEOH     1344     MEOH     O1       OD31H     2.48830       15.5990           0  -1.02800       1.30000    
     19496 MEOH     1344     MEOH     DO1      DRUD     -2.48830      0.400000           0   0.00000       0.00000    
     19497 MEOH     1344     MEOH     HO1      HDP1A    0.360000       1.00800           0   0.00000       0.00000    
     19498 MEOH     1344     MEOH     HO2      DUMH      0.00000       1.00800           0   0.00000       0.00000    
     19499 MEOH     1344     MEOH     H1A      HDA3B    0.800000E-01   1.00800           0   0.00000       0.00000    
     19500 MEOH     1344     MEOH     H1B      HDA3B    0.800000E-01   1.00800           0   0.00000       0.00000    
     19501 MEOH     1344     MEOH     H1C      HDA3B    0.800000E-01   1.00800           0   0.00000       0.00000    
     19502 MEOH     1344     MEOH     LP1A     LPD     -0.230000       0.00000          -1   0.00000       0.00000    
     19503 MEOH     1344     MEOH     LP1B     LPD     -0.230000       0.00000          -1   0.00000       0.00000    
     19504 MEOH     1345     MEOH     C1       CD33B     2.31410       11.6110           0  -1.00000       1.30000    
     19505 MEOH     1345     MEOH     DC1      DRUD     -2.45410      0.400000           0   0.00000       0.00000    
     19506 MEOH     1345     MEOH     O1       OD31H     2.48830       15.5990           0  -1.02800       1.30000    
     19507 MEOH     1345     MEOH     DO1      DRUD     -2.48830      0.400000           0   0.00000       0.00000    
     19508 MEOH     1345     MEOH     HO1      HDP1A    0.360000       1.00800           0   0.00000       0.00000    
     19509 MEOH     1345     MEOH     HO2      DUMH      0.00000       1.00800           0   0.00000       0.00000    
     19510 MEOH     1345     MEOH     H1A      HDA3B    0.800000E-01   1.00800           0   0.00000       0.00000    
     19511 MEOH     1345     MEOH     H1B      HDA3B    0.800000E-01   1.00800           0   0.00000       0.00000    
     19512 MEOH     1345     MEOH     H1C      HDA3B    0.800000E-01   1.00800           0   0.00000       0.00000    
     19513 MEOH     1345     MEOH     LP1A     LPD     -0.230000       0.00000          -1   0.00000       0.00000    
     19514 MEOH     1345     MEOH     LP1B     LPD     -0.230000       0.00000          -1   0.00000       0.00000    
     19515 MEOH     1346     MEOH     C1       CD33B     2.31410       11.6110           0  -1.00000       1.30000    
     19516 MEOH     1346     MEOH     DC1      DRUD     -2.45410      0.400000           0   0.00000       0.00000    
     19517 MEOH     1346     MEOH     O1       OD31H     2.48830       15.5990           0  -1.02800       1.30000    
     19518 MEOH     1346     MEOH     DO1      DRUD     -2.48830      0.400000           0   0.00000       0.00000    
     19519 MEOH     1346     MEOH     HO1      HDP1A    0.360000       1.00800           0   0.00000       0.00000    
     19520 MEOH     1346     MEOH     HO2      DUMH      0.00000       1.00800           0   0.00000       0.00000    
     19521 MEOH     1346     MEOH     H1A      HDA3B    0.800000E-01   1.00800           0   0.00000       0.00000    
     19522 MEOH     1346     MEOH     H1B      HDA3B    0.800000E-01   1.00800           0   0.00000       0.00000    
     19523 MEOH     1346     MEOH     H1C      HDA3B    0.800000E-01   1.00800           0   0.00000       0.00000    
     19524 MEOH     1346     MEOH     LP1A     LPD     -0.230000       0.00000          -1   0.00000       0.00000    
     19525 MEOH     1346     MEOH     LP1B     LPD     -0.230000       0.00000          -1   0.00000       0.00000    
     19526 MEOH     1347     MEOH     C1       CD33B     2.31410       11.6110           0  -1.00000       1.30000    
     19527 MEOH     1347     MEOH     DC1      DRUD     -2.45410      0.400000           0   0.00000       0.00000    
     19528 MEOH     1347     MEOH     O1       OD31H     2.48830       15.5990           0  -1.02800       1.30000    
     19529 MEOH     1347     MEOH     DO1      DRUD     -2.48830      0.400000           0   0.00000       0.00000    
     19530 MEOH     1347     MEOH     HO1      HDP1A    0.360000       1.00800           0   0.00000       0.00000    
     19531 MEOH     1347     MEOH     HO2      DUMH      0.00000       1.00800           0   0.00000       0.00000    
     19532 MEOH     1347     MEOH     H1A      HDA3B    0.800000E-01   1.00800           0   0.00000       0.00000    
     19533 MEOH     1347     MEOH     H1B      HDA3B    0.800000E-01   1.00800           0   0.00000       0.00000    
     19534 MEOH     1347     MEOH     H1C      HDA3B    0.800000E-01   1.00800           0   0.00000       0.00000    
     19535 MEOH     1347     MEOH     LP1A     LPD     -0.230000       0.00000          -1   0.00000       0.00000    
     19536 MEOH     1347     MEOH     LP1B     LPD     -0.230000       0.00000          -1   0.00000       0.00000    
     19537 MEOH     1348     MEOH     C1       CD33B     2.31410       11.6110           0  -1.00000       1.30000    
     19538 MEOH     1348     MEOH     DC1      DRUD     -2.45410      0.400000           0   0.00000       0.00000    
     19539 MEOH     1348     MEOH     O1       OD31H     2.48830       15.5990           0  -1.02800       1.30000    
     19540 MEOH     1348     MEOH     DO1      DRUD     -2.48830      0.400000           0   0.00000       0.00000    
     19541 MEOH     1348     MEOH     HO1      HDP1A    0.360000       1.00800           0   0.00000       0.00000    
     19542 MEOH     1348     MEOH     HO2      DUMH      0.00000       1.00800           0   0.00000       0.00000    
     19543 MEOH     1348     MEOH     H1A      HDA3B    0.800000E-01   1.00800           0   0.00000       0.00000    
     19544 MEOH     1348     MEOH     H1B      HDA3B    0.800000E-01   1.00800           0   0.00000       0.00000    
     19545 MEOH     1348     MEOH     H1C      HDA3B    0.800000E-01   1.00800           0   0.00000       0.00000    
     19546 MEOH     1348     MEOH     LP1A     LPD     -0.230000       0.00000          -1   0.00000       0.00000    
     19547 MEOH     1348     MEOH     LP1B     LPD     -0.230000       0.00000          -1   0.00000       0.00000    
     19548 MEOH     1349     MEOH     C1       CD33B     2.31410       11.6110           0  -1.00000       1.30000    
     19549 MEOH     1349     MEOH     DC1      DRUD     -2.45410      0.400000           0   0.00000       0.00000    
     19550 MEOH     1349     MEOH     O1       OD31H     2.48830       15.5990           0  -1.02800       1.30000    
     19551 MEOH     1349     MEOH     DO1      DRUD     -2.48830      0.400000           0   0.00000       0.00000    
     19552 MEOH     1349     MEOH     HO1      HDP1A    0.360000       1.00800           0   0.00000       0.00000    
     19553 MEOH     1349     MEOH     HO2      DUMH      0.00000       1.00800           0   0.00000       0.00000    
     19554 MEOH     1349     MEOH     H1A      HDA3B    0.800000E-01   1.00800           0   0.00000       0.00000    
     19555 MEOH     1349     MEOH     H1B      HDA3B    0.800000E-01   1.00800           0   0.00000       0.00000    
     19556 MEOH     1349     MEOH     H1C      HDA3B    0.800000E-01   1.00800           0   0.00000       0.00000    
     19557 MEOH     1349     MEOH     LP1A     LPD     -0.230000       0.00000          -1   0.00000       0.00000    
     19558 MEOH     1349     MEOH     LP1B     LPD     -0.230000       0.00000          -1   0.00000       0.00000    
     19559 MEOH     1350     MEOH     C1       CD33B     2.31410       11.6110           0  -1.00000       1.30000    
     19560 MEOH     1350     MEOH     DC1      DRUD     -2.45410      0.400000           0   0.00000       0.00000    
     19561 MEOH     1350     MEOH     O1       OD31H     2.48830       15.5990           0  -1.02800       1.30000    
     19562 MEOH     1350     MEOH     DO1      DRUD     -2.48830      0.400000           0   0.00000       0.00000    
     19563 MEOH     1350     MEOH     HO1      HDP1A    0.360000       1.00800           0   0.00000       0.00000    
     19564 MEOH     1350     MEOH     HO2      DUMH      0.00000       1.00800           0   0.00000       0.00000    
     19565 MEOH     1350     MEOH     H1A      HDA3B    0.800000E-01   1.00800           0   0.00000       0.00000    
     19566 MEOH     1350     MEOH     H1B      HDA3B    0.800000E-01   1.00800           0   0.00000       0.00000    
     19567 MEOH     1350     MEOH     H1C      HDA3B    0.800000E-01   1.00800           0   0.00000       0.00000    
     19568 MEOH     1350     MEOH     LP1A     LPD     -0.230000       0.00000          -1   0.00000       0.00000    
     19569 MEOH     1350     MEOH     LP1B     LPD     -0.230000       0.00000          -1   0.00000       0.00000    
     19570 MEOH     1351     MEOH     C1       CD33B     2.31410       11.6110           0  -1.00000       1.30000    
     19571 MEOH     1351     MEOH     DC1      DRUD     -2.45410      0.400000           0   0.00000       0.00000    
     19572 MEOH     1351     MEOH     O1       OD31H     2.48830       15.5990           0  -1.02800       1.30000    
     19573 MEOH     1351     MEOH     DO1      DRUD     -2.48830      0.400000           0   0.00000       0.00000    
     19574 MEOH     1351     MEOH     HO1      HDP1A    0.360000       1.00800           0   0.00000       0.00000    
     19575 MEOH     1351     MEOH     HO2      DUMH      0.00000       1.00800           0   0.00000       0.00000    
     19576 MEOH     1351     MEOH     H1A      HDA3B    0.800000E-01   1.00800           0   0.00000       0.00000    
     19577 MEOH     1351     MEOH     H1B      HDA3B    0.800000E-01   1.00800           0   0.00000       0.00000    
     19578 MEOH     1351     MEOH     H1C      HDA3B    0.800000E-01   1.00800           0   0.00000       0.00000    
     19579 MEOH     1351     MEOH     LP1A     LPD     -0.230000       0.00000          -1   0.00000       0.00000    
     19580 MEOH     1351     MEOH     LP1B     LPD     -0.230000       0.00000          -1   0.00000       0.00000    
     19581 MEOH     1352     MEOH     C1       CD33B     2.31410       11.6110           0  -1.00000       1.30000    
     19582 MEOH     1352     MEOH     DC1      DRUD     -2.45410      0.400000           0   0.00000       0.00000    
     19583 MEOH     1352     MEOH     O1       OD31H     2.48830       15.5990           0  -1.02800       1.30000    
     19584 MEOH     1352     MEOH     DO1      DRUD     -2.48830      0.400000           0   0.00000       0.00000    
     19585 MEOH     1352     MEOH     HO1      HDP1A    0.360000       1.00800           0   0.00000       0.00000    
     19586 MEOH     1352     MEOH     HO2      DUMH      0.00000       1.00800           0   0.00000       0.00000    
     19587 MEOH     1352     MEOH     H1A      HDA3B    0.800000E-01   1.00800           0   0.00000       0.00000    
     19588 MEOH     1352     MEOH     H1B      HDA3B    0.800000E-01   1.00800           0   0.00000       0.00000    
     19589 MEOH     1352     MEOH     H1C      HDA3B    0.800000E-01   1.00800           0   0.00000       0.00000    
     19590 MEOH     1352     MEOH     LP1A     LPD     -0.230000       0.00000          -1   0.00000       0.00000    
     19591 MEOH     1352     MEOH     LP1B     LPD     -0.230000       0.00000          -1   0.00000       0.00000    
     19592 MEOH     1353     MEOH     C1       CD33B     2.31410       11.6110           0  -1.00000       1.30000    
     19593 MEOH     1353     MEOH     DC1      DRUD     -2.45410      0.400000           0   0.00000       0.00000    
     19594 MEOH     1353     MEOH     O1       OD31H     2.48830       15.5990           0  -1.02800       1.30000    
     19595 MEOH     1353     MEOH     DO1      DRUD     -2.48830      0.400000           0   0.00000       0.00000    
     19596 MEOH     1353     MEOH     HO1      HDP1A    0.360000       1.00800           0   0.00000       0.00000    
     19597 MEOH     1353     MEOH     HO2      DUMH      0.00000       1.00800           0   0.00000       0.00000    
     19598 MEOH     1353     MEOH     H1A      HDA3B    0.800000E-01   1.00800           0   0.00000       0.00000    
     19599 MEOH     1353     MEOH     H1B      HDA3B    0.800000E-01   1.00800           0   0.00000       0.00000    
     19600 MEOH     1353     MEOH     H1C      HDA3B    0.800000E-01   1.00800           0   0.00000       0.00000    
     19601 MEOH     1353     MEOH     LP1A     LPD     -0.230000       0.00000          -1   0.00000       0.00000    
     19602 MEOH     1353     MEOH     LP1B     LPD     -0.230000       0.00000          -1   0.00000       0.00000    
     19603 MEOH     1354     MEOH     C1       CD33B     2.31410       11.6110           0  -1.00000       1.30000    
     19604 MEOH     1354     MEOH     DC1      DRUD     -2.45410      0.400000           0   0.00000       0.00000    
     19605 MEOH     1354     MEOH     O1       OD31H     2.48830       15.5990           0  -1.02800       1.30000    
     19606 MEOH     1354     MEOH     DO1      DRUD     -2.48830      0.400000           0   0.00000       0.00000    
     19607 MEOH     1354     MEOH     HO1      HDP1A    0.360000       1.00800           0   0.00000       0.00000    
     19608 MEOH     1354     MEOH     HO2      DUMH      0.00000       1.00800           0   0.00000       0.00000    
     19609 MEOH     1354     MEOH     H1A      HDA3B    0.800000E-01   1.00800           0   0.00000       0.00000    
     19610 MEOH     1354     MEOH     H1B      HDA3B    0.800000E-01   1.00800           0   0.00000       0.00000    
     19611 MEOH     1354     MEOH     H1C      HDA3B    0.800000E-01   1.00800           0   0.00000       0.00000    
     19612 MEOH     1354     MEOH     LP1A     LPD     -0.230000       0.00000          -1   0.00000       0.00000    
     19613 MEOH     1354     MEOH     LP1B     LPD     -0.230000       0.00000          -1   0.00000       0.00000    
     19614 MEOH     1355     MEOH     C1       CD33B     2.31410       11.6110           0  -1.00000       1.30000    
     19615 MEOH     1355     MEOH     DC1      DRUD     -2.45410      0.400000           0   0.00000       0.00000    
     19616 MEOH     1355     MEOH     O1       OD31H     2.48830       15.5990           0  -1.02800       1.30000    
     19617 MEOH     1355     MEOH     DO1      DRUD     -2.48830      0.400000           0   0.00000       0.00000    
     19618 MEOH     1355     MEOH     HO1      HDP1A    0.360000       1.00800           0   0.00000       0.00000    
     19619 MEOH     1355     MEOH     HO2      DUMH      0.00000       1.00800           0   0.00000       0.00000    
     19620 MEOH     1355     MEOH     H1A      HDA3B    0.800000E-01   1.00800           0   0.00000       0.00000    
     19621 MEOH     1355     MEOH     H1B      HDA3B    0.800000E-01   1.00800           0   0.00000       0.00000    
     19622 MEOH     1355     MEOH     H1C      HDA3B    0.800000E-01   1.00800           0   0.00000       0.00000    
     19623 MEOH     1355     MEOH     LP1A     LPD     -0.230000       0.00000          -1   0.00000       0.00000    
     19624 MEOH     1355     MEOH     LP1B     LPD     -0.230000       0.00000          -1   0.00000       0.00000    
     19625 MEOH     1356     MEOH     C1       CD33B     2.31410       11.6110           0  -1.00000       1.30000    
     19626 MEOH     1356     MEOH     DC1      DRUD     -2.45410      0.400000           0   0.00000       0.00000    
     19627 MEOH     1356     MEOH     O1       OD31H     2.48830       15.5990           0  -1.02800       1.30000    
     19628 MEOH     1356     MEOH     DO1      DRUD     -2.48830      0.400000           0   0.00000       0.00000    
     19629 MEOH     1356     MEOH     HO1      HDP1A    0.360000       1.00800           0   0.00000       0.00000    
     19630 MEOH     1356     MEOH     HO2      DUMH      0.00000       1.00800           0   0.00000       0.00000    
     19631 MEOH     1356     MEOH     H1A      HDA3B    0.800000E-01   1.00800           0   0.00000       0.00000    
     19632 MEOH     1356     MEOH     H1B      HDA3B    0.800000E-01   1.00800           0   0.00000       0.00000    
     19633 MEOH     1356     MEOH     H1C      HDA3B    0.800000E-01   1.00800           0   0.00000       0.00000    
     19634 MEOH     1356     MEOH     LP1A     LPD     -0.230000       0.00000          -1   0.00000       0.00000    
     19635 MEOH     1356     MEOH     LP1B     LPD     -0.230000       0.00000          -1   0.00000       0.00000    
     19636 MEOH     1357     MEOH     C1       CD33B     2.31410       11.6110           0  -1.00000       1.30000    
     19637 MEOH     1357     MEOH     DC1      DRUD     -2.45410      0.400000           0   0.00000       0.00000    
     19638 MEOH     1357     MEOH     O1       OD31H     2.48830       15.5990           0  -1.02800       1.30000    
     19639 MEOH     1357     MEOH     DO1      DRUD     -2.48830      0.400000           0   0.00000       0.00000    
     19640 MEOH     1357     MEOH     HO1      HDP1A    0.360000       1.00800           0   0.00000       0.00000    
     19641 MEOH     1357     MEOH     HO2      DUMH      0.00000       1.00800           0   0.00000       0.00000    
     19642 MEOH     1357     MEOH     H1A      HDA3B    0.800000E-01   1.00800           0   0.00000       0.00000    
     19643 MEOH     1357     MEOH     H1B      HDA3B    0.800000E-01   1.00800           0   0.00000       0.00000    
     19644 MEOH     1357     MEOH     H1C      HDA3B    0.800000E-01   1.00800           0   0.00000       0.00000    
     19645 MEOH     1357     MEOH     LP1A     LPD     -0.230000       0.00000          -1   0.00000       0.00000    
     19646 MEOH     1357     MEOH     LP1B     LPD     -0.230000       0.00000          -1   0.00000       0.00000    
     19647 MEOH     1358     MEOH     C1       CD33B     2.31410       11.6110           0  -1.00000       1.30000    
     19648 MEOH     1358     MEOH     DC1      DRUD     -2.45410      0.400000           0   0.00000       0.00000    
     19649 MEOH     1358     MEOH     O1       OD31H     2.48830       15.5990           0  -1.02800       1.30000    
     19650 MEOH     1358     MEOH     DO1      DRUD     -2.48830      0.400000           0   0.00000       0.00000    
     19651 MEOH     1358     MEOH     HO1      HDP1A    0.360000       1.00800           0   0.00000       0.00000    
     19652 MEOH     1358     MEOH     HO2      DUMH      0.00000       1.00800           0   0.00000       0.00000    
     19653 MEOH     1358     MEOH     H1A      HDA3B    0.800000E-01   1.00800           0   0.00000       0.00000    
     19654 MEOH     1358     MEOH     H1B      HDA3B    0.800000E-01   1.00800           0   0.00000       0.00000    
     19655 MEOH     1358     MEOH     H1C      HDA3B    0.800000E-01   1.00800           0   0.00000       0.00000    
     19656 MEOH     1358     MEOH     LP1A     LPD     -0.230000       0.00000          -1   0.00000       0.00000    
     19657 MEOH     1358     MEOH     LP1B     LPD     -0.230000       0.00000          -1   0.00000       0.00000    
     19658 MEOH     1359     MEOH     C1       CD33B     2.31410       11.6110           0  -1.00000       1.30000    
     19659 MEOH     1359     MEOH     DC1      DRUD     -2.45410      0.400000           0   0.00000       0.00000    
     19660 MEOH     1359     MEOH     O1       OD31H     2.48830       15.5990           0  -1.02800       1.30000    
     19661 MEOH     1359     MEOH     DO1      DRUD     -2.48830      0.400000           0   0.00000       0.00000    
     19662 MEOH     1359     MEOH     HO1      HDP1A    0.360000       1.00800           0   0.00000       0.00000    
     19663 MEOH     1359     MEOH     HO2      DUMH      0.00000       1.00800           0   0.00000       0.00000    
     19664 MEOH     1359     MEOH     H1A      HDA3B    0.800000E-01   1.00800           0   0.00000       0.00000    
     19665 MEOH     1359     MEOH     H1B      HDA3B    0.800000E-01   1.00800           0   0.00000       0.00000    
     19666 MEOH     1359     MEOH     H1C      HDA3B    0.800000E-01   1.00800           0   0.00000       0.00000    
     19667 MEOH     1359     MEOH     LP1A     LPD     -0.230000       0.00000          -1   0.00000       0.00000    
     19668 MEOH     1359     MEOH     LP1B     LPD     -0.230000       0.00000          -1   0.00000       0.00000    
     19669 MEOH     1360     MEOH     C1       CD33B     2.31410       11.6110           0  -1.00000       1.30000    
     19670 MEOH     1360     MEOH     DC1      DRUD     -2.45410      0.400000           0   0.00000       0.00000    
     19671 MEOH     1360     MEOH     O1       OD31H     2.48830       15.5990           0  -1.02800       1.30000    
     19672 MEOH     1360     MEOH     DO1      DRUD     -2.48830      0.400000           0   0.00000       0.00000    
     19673 MEOH     1360     MEOH     HO1      HDP1A    0.360000       1.00800           0   0.00000       0.00000    
     19674 MEOH     1360     MEOH     HO2      DUMH      0.00000       1.00800           0   0.00000       0.00000    
     19675 MEOH     1360     MEOH     H1A      HDA3B    0.800000E-01   1.00800           0   0.00000       0.00000    
     19676 MEOH     1360     MEOH     H1B      HDA3B    0.800000E-01   1.00800           0   0.00000       0.00000    
     19677 MEOH     1360     MEOH     H1C      HDA3B    0.800000E-01   1.00800           0   0.00000       0.00000    
     19678 MEOH     1360     MEOH     LP1A     LPD     -0.230000       0.00000          -1   0.00000       0.00000    
     19679 MEOH     1360     MEOH     LP1B     LPD     -0.230000       0.00000          -1   0.00000       0.00000    
     19680 MEOH     1361     MEOH     C1       CD33B     2.31410       11.6110           0  -1.00000       1.30000    
     19681 MEOH     1361     MEOH     DC1      DRUD     -2.45410      0.400000           0   0.00000       0.00000    
     19682 MEOH     1361     MEOH     O1       OD31H     2.48830       15.5990           0  -1.02800       1.30000    
     19683 MEOH     1361     MEOH     DO1      DRUD     -2.48830      0.400000           0   0.00000       0.00000    
     19684 MEOH     1361     MEOH     HO1      HDP1A    0.360000       1.00800           0   0.00000       0.00000    
     19685 MEOH     1361     MEOH     HO2      DUMH      0.00000       1.00800           0   0.00000       0.00000    
     19686 MEOH     1361     MEOH     H1A      HDA3B    0.800000E-01   1.00800           0   0.00000       0.00000    
     19687 MEOH     1361     MEOH     H1B      HDA3B    0.800000E-01   1.00800           0   0.00000       0.00000    
     19688 MEOH     1361     MEOH     H1C      HDA3B    0.800000E-01   1.00800           0   0.00000       0.00000    
     19689 MEOH     1361     MEOH     LP1A     LPD     -0.230000       0.00000          -1   0.00000       0.00000    
     19690 MEOH     1361     MEOH     LP1B     LPD     -0.230000       0.00000          -1   0.00000       0.00000    
     19691 MEOH     1362     MEOH     C1       CD33B     2.31410       11.6110           0  -1.00000       1.30000    
     19692 MEOH     1362     MEOH     DC1      DRUD     -2.45410      0.400000           0   0.00000       0.00000    
     19693 MEOH     1362     MEOH     O1       OD31H     2.48830       15.5990           0  -1.02800       1.30000    
     19694 MEOH     1362     MEOH     DO1      DRUD     -2.48830      0.400000           0   0.00000       0.00000    
     19695 MEOH     1362     MEOH     HO1      HDP1A    0.360000       1.00800           0   0.00000       0.00000    
     19696 MEOH     1362     MEOH     HO2      DUMH      0.00000       1.00800           0   0.00000       0.00000    
     19697 MEOH     1362     MEOH     H1A      HDA3B    0.800000E-01   1.00800           0   0.00000       0.00000    
     19698 MEOH     1362     MEOH     H1B      HDA3B    0.800000E-01   1.00800           0   0.00000       0.00000    
     19699 MEOH     1362     MEOH     H1C      HDA3B    0.800000E-01   1.00800           0   0.00000       0.00000    
     19700 MEOH     1362     MEOH     LP1A     LPD     -0.230000       0.00000          -1   0.00000       0.00000    
     19701 MEOH     1362     MEOH     LP1B     LPD     -0.230000       0.00000          -1   0.00000       0.00000    
     19702 MEOH     1363     MEOH     C1       CD33B     2.31410       11.6110           0  -1.00000       1.30000    
     19703 MEOH     1363     MEOH     DC1      DRUD     -2.45410      0.400000           0   0.00000       0.00000    
     19704 MEOH     1363     MEOH     O1       OD31H     2.48830       15.5990           0  -1.02800       1.30000    
     19705 MEOH     1363     MEOH     DO1      DRUD     -2.48830      0.400000           0   0.00000       0.00000    
     19706 MEOH     1363     MEOH     HO1      HDP1A    0.360000       1.00800           0   0.00000       0.00000    
     19707 MEOH     1363     MEOH     HO2      DUMH      0.00000       1.00800           0   0.00000       0.00000    
     19708 MEOH     1363     MEOH     H1A      HDA3B    0.800000E-01   1.00800           0   0.00000       0.00000    
     19709 MEOH     1363     MEOH     H1B      HDA3B    0.800000E-01   1.00800           0   0.00000       0.00000    
     19710 MEOH     1363     MEOH     H1C      HDA3B    0.800000E-01   1.00800           0   0.00000       0.00000    
     19711 MEOH     1363     MEOH     LP1A     LPD     -0.230000       0.00000          -1   0.00000       0.00000    
     19712 MEOH     1363     MEOH     LP1B     LPD     -0.230000       0.00000          -1   0.00000       0.00000    
     19713 MEOH     1364     MEOH     C1       CD33B     2.31410       11.6110           0  -1.00000       1.30000    
     19714 MEOH     1364     MEOH     DC1      DRUD     -2.45410      0.400000           0   0.00000       0.00000    
     19715 MEOH     1364     MEOH     O1       OD31H     2.48830       15.5990           0  -1.02800       1.30000    
     19716 MEOH     1364     MEOH     DO1      DRUD     -2.48830      0.400000           0   0.00000       0.00000    
     19717 MEOH     1364     MEOH     HO1      HDP1A    0.360000       1.00800           0   0.00000       0.00000    
     19718 MEOH     1364     MEOH     HO2      DUMH      0.00000       1.00800           0   0.00000       0.00000    
     19719 MEOH     1364     MEOH     H1A      HDA3B    0.800000E-01   1.00800           0   0.00000       0.00000    
     19720 MEOH     1364     MEOH     H1B      HDA3B    0.800000E-01   1.00800           0   0.00000       0.00000    
     19721 MEOH     1364     MEOH     H1C      HDA3B    0.800000E-01   1.00800           0   0.00000       0.00000    
     19722 MEOH     1364     MEOH     LP1A     LPD     -0.230000       0.00000          -1   0.00000       0.00000    
     19723 MEOH     1364     MEOH     LP1B     LPD     -0.230000       0.00000          -1   0.00000       0.00000    
     19724 MEOH     1365     MEOH     C1       CD33B     2.31410       11.6110           0  -1.00000       1.30000    
     19725 MEOH     1365     MEOH     DC1      DRUD     -2.45410      0.400000           0   0.00000       0.00000    
     19726 MEOH     1365     MEOH     O1       OD31H     2.48830       15.5990           0  -1.02800       1.30000    
     19727 MEOH     1365     MEOH     DO1      DRUD     -2.48830      0.400000           0   0.00000       0.00000    
     19728 MEOH     1365     MEOH     HO1      HDP1A    0.360000       1.00800           0   0.00000       0.00000    
     19729 MEOH     1365     MEOH     HO2      DUMH      0.00000       1.00800           0   0.00000       0.00000    
     19730 MEOH     1365     MEOH     H1A      HDA3B    0.800000E-01   1.00800           0   0.00000       0.00000    
     19731 MEOH     1365     MEOH     H1B      HDA3B    0.800000E-01   1.00800           0   0.00000       0.00000    
     19732 MEOH     1365     MEOH     H1C      HDA3B    0.800000E-01   1.00800           0   0.00000       0.00000    
     19733 MEOH     1365     MEOH     LP1A     LPD     -0.230000       0.00000          -1   0.00000       0.00000    
     19734 MEOH     1365     MEOH     LP1B     LPD     -0.230000       0.00000          -1   0.00000       0.00000    
     19735 MEOH     1366     MEOH     C1       CD33B     2.31410       11.6110           0  -1.00000       1.30000    
     19736 MEOH     1366     MEOH     DC1      DRUD     -2.45410      0.400000           0   0.00000       0.00000    
     19737 MEOH     1366     MEOH     O1       OD31H     2.48830       15.5990           0  -1.02800       1.30000    
     19738 MEOH     1366     MEOH     DO1      DRUD     -2.48830      0.400000           0   0.00000       0.00000    
     19739 MEOH     1366     MEOH     HO1      HDP1A    0.360000       1.00800           0   0.00000       0.00000    
     19740 MEOH     1366     MEOH     HO2      DUMH      0.00000       1.00800           0   0.00000       0.00000    
     19741 MEOH     1366     MEOH     H1A      HDA3B    0.800000E-01   1.00800           0   0.00000       0.00000    
     19742 MEOH     1366     MEOH     H1B      HDA3B    0.800000E-01   1.00800           0   0.00000       0.00000    
     19743 MEOH     1366     MEOH     H1C      HDA3B    0.800000E-01   1.00800           0   0.00000       0.00000    
     19744 MEOH     1366     MEOH     LP1A     LPD     -0.230000       0.00000          -1   0.00000       0.00000    
     19745 MEOH     1366     MEOH     LP1B     LPD     -0.230000       0.00000          -1   0.00000       0.00000    
     19746 MEOH     1367     MEOH     C1       CD33B     2.31410       11.6110           0  -1.00000       1.30000    
     19747 MEOH     1367     MEOH     DC1      DRUD     -2.45410      0.400000           0   0.00000       0.00000    
     19748 MEOH     1367     MEOH     O1       OD31H     2.48830       15.5990           0  -1.02800       1.30000    
     19749 MEOH     1367     MEOH     DO1      DRUD     -2.48830      0.400000           0   0.00000       0.00000    
     19750 MEOH     1367     MEOH     HO1      HDP1A    0.360000       1.00800           0   0.00000       0.00000    
     19751 MEOH     1367     MEOH     HO2      DUMH      0.00000       1.00800           0   0.00000       0.00000    
     19752 MEOH     1367     MEOH     H1A      HDA3B    0.800000E-01   1.00800           0   0.00000       0.00000    
     19753 MEOH     1367     MEOH     H1B      HDA3B    0.800000E-01   1.00800           0   0.00000       0.00000    
     19754 MEOH     1367     MEOH     H1C      HDA3B    0.800000E-01   1.00800           0   0.00000       0.00000    
     19755 MEOH     1367     MEOH     LP1A     LPD     -0.230000       0.00000          -1   0.00000       0.00000    
     19756 MEOH     1367     MEOH     LP1B     LPD     -0.230000       0.00000          -1   0.00000       0.00000    
     19757 MEOH     1368     MEOH     C1       CD33B     2.31410       11.6110           0  -1.00000       1.30000    
     19758 MEOH     1368     MEOH     DC1      DRUD     -2.45410      0.400000           0   0.00000       0.00000    
     19759 MEOH     1368     MEOH     O1       OD31H     2.48830       15.5990           0  -1.02800       1.30000    
     19760 MEOH     1368     MEOH     DO1      DRUD     -2.48830      0.400000           0   0.00000       0.00000    
     19761 MEOH     1368     MEOH     HO1      HDP1A    0.360000       1.00800           0   0.00000       0.00000    
     19762 MEOH     1368     MEOH     HO2      DUMH      0.00000       1.00800           0   0.00000       0.00000    
     19763 MEOH     1368     MEOH     H1A      HDA3B    0.800000E-01   1.00800           0   0.00000       0.00000    
     19764 MEOH     1368     MEOH     H1B      HDA3B    0.800000E-01   1.00800           0   0.00000       0.00000    
     19765 MEOH     1368     MEOH     H1C      HDA3B    0.800000E-01   1.00800           0   0.00000       0.00000    
     19766 MEOH     1368     MEOH     LP1A     LPD     -0.230000       0.00000          -1   0.00000       0.00000    
     19767 MEOH     1368     MEOH     LP1B     LPD     -0.230000       0.00000          -1   0.00000       0.00000    
     19768 MEOH     1369     MEOH     C1       CD33B     2.31410       11.6110           0  -1.00000       1.30000    
     19769 MEOH     1369     MEOH     DC1      DRUD     -2.45410      0.400000           0   0.00000       0.00000    
     19770 MEOH     1369     MEOH     O1       OD31H     2.48830       15.5990           0  -1.02800       1.30000    
     19771 MEOH     1369     MEOH     DO1      DRUD     -2.48830      0.400000           0   0.00000       0.00000    
     19772 MEOH     1369     MEOH     HO1      HDP1A    0.360000       1.00800           0   0.00000       0.00000    
     19773 MEOH     1369     MEOH     HO2      DUMH      0.00000       1.00800           0   0.00000       0.00000    
     19774 MEOH     1369     MEOH     H1A      HDA3B    0.800000E-01   1.00800           0   0.00000       0.00000    
     19775 MEOH     1369     MEOH     H1B      HDA3B    0.800000E-01   1.00800           0   0.00000       0.00000    
     19776 MEOH     1369     MEOH     H1C      HDA3B    0.800000E-01   1.00800           0   0.00000       0.00000    
     19777 MEOH     1369     MEOH     LP1A     LPD     -0.230000       0.00000          -1   0.00000       0.00000    
     19778 MEOH     1369     MEOH     LP1B     LPD     -0.230000       0.00000          -1   0.00000       0.00000    
     19779 MEOH     1370     MEOH     C1       CD33B     2.31410       11.6110           0  -1.00000       1.30000    
     19780 MEOH     1370     MEOH     DC1      DRUD     -2.45410      0.400000           0   0.00000       0.00000    
     19781 MEOH     1370     MEOH     O1       OD31H     2.48830       15.5990           0  -1.02800       1.30000    
     19782 MEOH     1370     MEOH     DO1      DRUD     -2.48830      0.400000           0   0.00000       0.00000    
     19783 MEOH     1370     MEOH     HO1      HDP1A    0.360000       1.00800           0   0.00000       0.00000    
     19784 MEOH     1370     MEOH     HO2      DUMH      0.00000       1.00800           0   0.00000       0.00000    
     19785 MEOH     1370     MEOH     H1A      HDA3B    0.800000E-01   1.00800           0   0.00000       0.00000    
     19786 MEOH     1370     MEOH     H1B      HDA3B    0.800000E-01   1.00800           0   0.00000       0.00000    
     19787 MEOH     1370     MEOH     H1C      HDA3B    0.800000E-01   1.00800           0   0.00000       0.00000    
     19788 MEOH     1370     MEOH     LP1A     LPD     -0.230000       0.00000          -1   0.00000       0.00000    
     19789 MEOH     1370     MEOH     LP1B     LPD     -0.230000       0.00000          -1   0.00000       0.00000    
     19790 MEOH     1371     MEOH     C1       CD33B     2.31410       11.6110           0  -1.00000       1.30000    
     19791 MEOH     1371     MEOH     DC1      DRUD     -2.45410      0.400000           0   0.00000       0.00000    
     19792 MEOH     1371     MEOH     O1       OD31H     2.48830       15.5990           0  -1.02800       1.30000    
     19793 MEOH     1371     MEOH     DO1      DRUD     -2.48830      0.400000           0   0.00000       0.00000    
     19794 MEOH     1371     MEOH     HO1      HDP1A    0.360000       1.00800           0   0.00000       0.00000    
     19795 MEOH     1371     MEOH     HO2      DUMH      0.00000       1.00800           0   0.00000       0.00000    
     19796 MEOH     1371     MEOH     H1A      HDA3B    0.800000E-01   1.00800           0   0.00000       0.00000    
     19797 MEOH     1371     MEOH     H1B      HDA3B    0.800000E-01   1.00800           0   0.00000       0.00000    
     19798 MEOH     1371     MEOH     H1C      HDA3B    0.800000E-01   1.00800           0   0.00000       0.00000    
     19799 MEOH     1371     MEOH     LP1A     LPD     -0.230000       0.00000          -1   0.00000       0.00000    
     19800 MEOH     1371     MEOH     LP1B     LPD     -0.230000       0.00000          -1   0.00000       0.00000    
     19801 MEOH2    1        MEOH2    C1       CD33B     2.31610       11.6110           0  -1.00000       1.30000    
     19802 MEOH2    1        MEOH2    DC1      DRUD     -2.45410      0.400000           0   0.00000       0.00000    
     19803 MEOH2    1        MEOH2    O1       OD31H     2.48830       15.5990           0  -1.02800       1.30000    
     19804 MEOH2    1        MEOH2    DO1      DRUD     -2.48830      0.400000           0   0.00000       0.00000    
     19805 MEOH2    1        MEOH2    HO1      HDP1A    0.481000       1.00800           0   0.00000       0.00000    
     19806 MEOH2    1        MEOH2    HO2      HDP1A    0.481000       1.00800           0   0.00000       0.00000    
     19807 MEOH2    1        MEOH2    H1A      HDA3B    0.194000       1.00800           0   0.00000       0.00000    
     19808 MEOH2    1        MEOH2    H1B      HDA3B    0.194000       1.00800           0   0.00000       0.00000    
     19809 MEOH2    1        MEOH2    H1C      HDA3B    0.194000       1.00800           0   0.00000       0.00000    
     19810 MEOH2    1        MEOH2    LP1A     LPD     -0.203000       0.00000          -1   0.00000       0.00000    
     19811 MEOH2    1        MEOH2    LP1B     LPD     -0.203000       0.00000          -1   0.00000       0.00000    
     19812 MEOH2    2        MEOH2    C1       CD33B     2.31610       11.6110           0  -1.00000       1.30000    
     19813 MEOH2    2        MEOH2    DC1      DRUD     -2.45410      0.400000           0   0.00000       0.00000    
     19814 MEOH2    2        MEOH2    O1       OD31H     2.48830       15.5990           0  -1.02800       1.30000    
     19815 MEOH2    2        MEOH2    DO1      DRUD     -2.48830      0.400000           0   0.00000       0.00000    
     19816 MEOH2    2        MEOH2    HO1      HDP1A    0.481000       1.00800           0   0.00000       0.00000    
     19817 MEOH2    2        MEOH2    HO2      HDP1A    0.481000       1.00800           0   0.00000       0.00000    
     19818 MEOH2    2        MEOH2    H1A      HDA3B    0.194000       1.00800           0   0.00000       0.00000    
     19819 MEOH2    2        MEOH2    H1B      HDA3B    0.194000       1.00800           0   0.00000       0.00000    
     19820 MEOH2    2        MEOH2    H1C      HDA3B    0.194000       1.00800           0   0.00000       0.00000    
     19821 MEOH2    2        MEOH2    LP1A     LPD     -0.203000       0.00000          -1   0.00000       0.00000    
     19822 MEOH2    2        MEOH2    LP1B     LPD     -0.203000       0.00000          -1   0.00000       0.00000    
     19823 MEOH2    3        MEOH2    C1       CD33B     2.31610       11.6110           0  -1.00000       1.30000    
     19824 MEOH2    3        MEOH2    DC1      DRUD     -2.45410      0.400000           0   0.00000       0.00000    
     19825 MEOH2    3        MEOH2    O1       OD31H     2.48830       15.5990           0  -1.02800       1.30000    
     19826 MEOH2    3        MEOH2    DO1      DRUD     -2.48830      0.400000           0   0.00000       0.00000    
     19827 MEOH2    3        MEOH2    HO1      HDP1A    0.481000       1.00800           0   0.00000       0.00000    
     19828 MEOH2    3        MEOH2    HO2      HDP1A    0.481000       1.00800           0   0.00000       0.00000    
     19829 MEOH2    3        MEOH2    H1A      HDA3B    0.194000       1.00800           0   0.00000       0.00000    
     19830 MEOH2    3        MEOH2    H1B      HDA3B    0.194000       1.00800           0   0.00000       0.00000    
     19831 MEOH2    3        MEOH2    H1C      HDA3B    0.194000       1.00800           0   0.00000       0.00000    
     19832 MEOH2    3        MEOH2    LP1A     LPD     -0.203000       0.00000          -1   0.00000       0.00000    
     19833 MEOH2    3        MEOH2    LP1B     LPD     -0.203000       0.00000          -1   0.00000       0.00000    
     19834 MEOH2    4        MEOH2    C1       CD33B     2.31610       11.6110           0  -1.00000       1.30000    
     19835 MEOH2    4        MEOH2    DC1      DRUD     -2.45410      0.400000           0   0.00000       0.00000    
     19836 MEOH2    4        MEOH2    O1       OD31H     2.48830       15.5990           0  -1.02800       1.30000    
     19837 MEOH2    4        MEOH2    DO1      DRUD     -2.48830      0.400000           0   0.00000       0.00000    
     19838 MEOH2    4        MEOH2    HO1      HDP1A    0.481000       1.00800           0   0.00000       0.00000    
     19839 MEOH2    4        MEOH2    HO2      HDP1A    0.481000       1.00800           0   0.00000       0.00000    
     19840 MEOH2    4        MEOH2    H1A      HDA3B    0.194000       1.00800           0   0.00000       0.00000    
     19841 MEOH2    4        MEOH2    H1B      HDA3B    0.194000       1.00800           0   0.00000       0.00000    
     19842 MEOH2    4        MEOH2    H1C      HDA3B    0.194000       1.00800           0   0.00000       0.00000    
     19843 MEOH2    4        MEOH2    LP1A     LPD     -0.203000       0.00000          -1   0.00000       0.00000    
     19844 MEOH2    4        MEOH2    LP1B     LPD     -0.203000       0.00000          -1   0.00000       0.00000    
     19845 MEOH2    5        MEOH2    C1       CD33B     2.31610       11.6110           0  -1.00000       1.30000    
     19846 MEOH2    5        MEOH2    DC1      DRUD     -2.45410      0.400000           0   0.00000       0.00000    
     19847 MEOH2    5        MEOH2    O1       OD31H     2.48830       15.5990           0  -1.02800       1.30000    
     19848 MEOH2    5        MEOH2    DO1      DRUD     -2.48830      0.400000           0   0.00000       0.00000    
     19849 MEOH2    5        MEOH2    HO1      HDP1A    0.481000       1.00800           0   0.00000       0.00000    
     19850 MEOH2    5        MEOH2    HO2      HDP1A    0.481000       1.00800           0   0.00000       0.00000    
     19851 MEOH2    5        MEOH2    H1A      HDA3B    0.194000       1.00800           0   0.00000       0.00000    
     19852 MEOH2    5        MEOH2    H1B      HDA3B    0.194000       1.00800           0   0.00000       0.00000    
     19853 MEOH2    5        MEOH2    H1C      HDA3B    0.194000       1.00800           0   0.00000       0.00000    
     19854 MEOH2    5        MEOH2    LP1A     LPD     -0.203000       0.00000          -1   0.00000       0.00000    
     19855 MEOH2    5        MEOH2    LP1B     LPD     -0.203000       0.00000          -1   0.00000       0.00000    
     19856 MEOH2    6        MEOH2    C1       CD33B     2.31610       11.6110           0  -1.00000       1.30000    
     19857 MEOH2    6        MEOH2    DC1      DRUD     -2.45410      0.400000           0   0.00000       0.00000    
     19858 MEOH2    6        MEOH2    O1       OD31H     2.48830       15.5990           0  -1.02800       1.30000    
     19859 MEOH2    6        MEOH2    DO1      DRUD     -2.48830      0.400000           0   0.00000       0.00000    
     19860 MEOH2    6        MEOH2    HO1      HDP1A    0.481000       1.00800           0   0.00000       0.00000    
     19861 MEOH2    6        MEOH2    HO2      HDP1A    0.481000       1.00800           0   0.00000       0.00000    
     19862 MEOH2    6        MEOH2    H1A      HDA3B    0.194000       1.00800           0   0.00000       0.00000    
     19863 MEOH2    6        MEOH2    H1B      HDA3B    0.194000       1.00800           0   0.00000       0.00000    
     19864 MEOH2    6        MEOH2    H1C      HDA3B    0.194000       1.00800           0   0.00000       0.00000    
     19865 MEOH2    6        MEOH2    LP1A     LPD     -0.203000       0.00000          -1   0.00000       0.00000    
     19866 MEOH2    6        MEOH2    LP1B     LPD     -0.203000       0.00000          -1   0.00000       0.00000    
     19867 SOD      1        SOD      SOD      SODD      1.97240       22.6000           0 -0.157000       1.30000    
     19868 SOD      1        SOD      DSOD     DRUD    -0.972400      0.400000           0   0.00000       0.00000    
     19869 SOD      2        SOD      SOD      SODD      1.97240       22.6000           0 -0.157000       1.30000    
     19870 SOD      2        SOD      DSOD     DRUD    -0.972400      0.400000           0   0.00000       0.00000    
     19871 SOD      3        SOD      SOD      SODD      1.97240       22.6000           0 -0.157000       1.30000    
     19872 SOD      3        SOD      DSOD     DRUD    -0.972400      0.400000           0   0.00000       0.00000    
     19873 SOD      4        SOD      SOD      SODD      1.97240       22.6000           0 -0.157000       1.30000    
     19874 SOD      4        SOD      DSOD     DRUD    -0.972400      0.400000           0   0.00000       0.00000    
     19875 SOD      5        SOD      SOD      SODD      1.97240       22.6000           0 -0.157000       1.30000    
     19876 SOD      5        SOD      DSOD     DRUD    -0.972400      0.400000           0   0.00000       0.00000    
     19877 SOD      6        SOD      SOD      SODD      1.97240       22.6000           0 -0.157000       1.30000    
     19878 SOD      6        SOD      DSOD     DRUD    -0.972400      0.400000           0   0.00000       0.00000    

     18396 !NBOND: bonds
         1         2         6         7         8         9        11        12
        14        15        17        18         1         6         1         3
         1         4         1         5         6         8         6        14
         8        11         8        10        11        13        11        17
        17        14        14        16        17        19        20        17
        21        22        26        27        28        29        31        32
        34        35        37        38        21        26        21        23
        21        24        21        25        26        28        26        34
        28        31        28        30        31        33        31        37
        37        34        34        36        37        39        40        37
        41        42        46        47        48        49        51        52
        54        55        57        58        41        46        41        43
        41        44        41        45        46        48        46        54
        48        51        48        50        51        53        51        57
        57        54        54        56        57        59        60        57
        61        62        66        67        68        69        71        72
        74        75        77        78        61        66        61        63
        61        64        61        65        66        68        66        74
        68        71        68        70        71        73        71        77
        77        74        74        76        77        79        80        77
        81        82        86        87        88        89        91        92
        94        95        97        98        81        86        81        83
        81        84        81        85        86        88        86        94
        88        91        88        90        91        93        91        97
        97        94        94        96        97        99       100        97
       101       102       106       107       108       109       111       112
       114       115       117       118       101       106       101       103
       101       104       101       105       106       108       106       114
       108       111       108       110       111       113       111       117
       117       114       114       116       117       119       120       117
       121       122       126       127       128       129       131       132
       134       135       137       138       121       126       121       123
       121       124       121       125       126       128       126       134
       128       131       128       130       131       133       131       137
       137       134       134       136       137       139       140       137
       141       142       146       147       148       149       151       152
       154       155       157       158       141       146       141       143
       141       144       141       145       146       148       146       154
       148       151       148       150       151       153       151       157
       157       154       154       156       157       159       160       157
       161       162       166       167       168       169       171       172
       174       175       177       178       161       166       161       163
       161       164       161       165       166       168       166       174
       168       171       168       170       171       173       171       177
       177       174       174       176       177       179       180       177
       181       182       186       187       188       189       191       192
       194       195       197       198       181       186       181       183
       181       184       181       185       186       188       186       194
       188       191       188       190       191       193       191       197
       197       194       194       196       197       199       200       197
       201       202       206       207       208       209       211       212
       214       215       217       218       201       206       201       203
       201       204       201       205       206       208       206       214
       208       211       208       210       211       213       211       217
       217       214       214       216       217       219       220       217
       221       222       226       227       228       229       231       232
       234       235       237       238       221       226       221       223
       221       224       221       225       226       228       226       234
       228       231       228       230       231       233       231       237
       237       234       234       236       237       239       240       237
       241       242       246       247       248       249       251       252
       254       255       257       258       241       246       241       243
       241       244       241       245       246       248       246       254
       248       251       248       250       251       253       251       257
       257       254       254       256       257       259       260       257
       261       262       266       267       268       269       271       272
       274       275       277       278       261       266       261       263
       261       264       261       265       266       268       266       274
       268       271       268       270       271       273       271       277
       277       274       274       276       277       279       280       277
       281       282       286       287       288       289       291       292
       294       295       297       298       281       286       281       283
       281       284       281       285       286       288       286       294
       288       291       288       290       291       293       291       297
       297       294       294       296       297       299       300       297
       301       302       306       307       308       309       311       312
       314       315       317       318       301       306       301       303
       301       304       301       305       306       308       306       314
       308       311       308       310       311       313       311       317
       317       314       314       316       317       319       320       317
       321       322       326       327       328       329       331       332
       334       335       337       338       321       326       321       323
       321       324       321       325       326       328       326       334
       328       331       328       330       331       333       331       337
       337       334       334       336       337       339       340       337
       341       342       346       347       348       349       351       352
       354       355       357       358       341       346       341       343
       341       344       341       345       346       348       346       354
       348       351       348       350       351       353       351       357
       357       354       354       356       357       359       360       357
       361       362       366       367       368       369       371       372
       374       375       377       378       361       366       361       363
       361       364       361       365       366       368       366       374
       368       371       368       370       371       373       371       377
       377       374       374       376       377       379       380       377
       381       382       386       387       388       389       391       392
       394       395       397       398       381       386       381       383
       381       384       381       385       386       388       386       394
       388       391       388       390       391       393       391       397
       397       394       394       396       397       399       400       397
       401       402       406       407       408       409       411       412
       414       415       417       418       401       406       401       403
       401       404       401       405       406       408       406       414
       408       411       408       410       411       413       411       417
       417       414       414       416       417       419       420       417
       421       422       426       427       428       429       431       432
       434       435       437       438       421       426       421       423
       421       424       421       425       426       428       426       434
       428       431       428       430       431       433       431       437
       437       434       434       436       437       439       440       437
       441       442       446       447       448       449       451       452
       454       455       457       458       441       446       441       443
       441       444       441       445       446       448       446       454
       448       451       448       450       451       453       451       457
       457       454       454       456       457       459       460       457
       461       462       466       467       468       469       471       472
       474       475       477       478       461       466       461       463
       461       464       461       465       466       468       466       474
       468       471       468       470       471       473       471       477
       477       474       474       476       477       479       480       477
       481       482       486       487       488       489       491       492
       494       495       497       498       481       486       481       483
       481       484       481       485       486       488       486       494
       488       491       488       490       491       493       491       497
       497       494       494       496       497       499       500       497
       501       502       506       507       508       509       511       512
       514       515       517       518       501       506       501       503
       501       504       501       505       506       508       506       514
       508       511       508       510       511       513       511       517
       517       514       514       516       517       519       520       517
       521       522       526       527       528       529       531       532
       534       535       537       538       521       526       521       523
       521       524       521       525       526       528       526       534
       528       531       528       530       531       533       531       537
       537       534       534       536       537       539       540       537
       541       542       546       547       548       549       551       552
       554       555       557       558       541       546       541       543
       541       544       541       545       546       548       546       554
       548       551       548       550       551       553       551       557
       557       554       554       556       557       559       560       557
       561       562       566       567       568       569       571       572
       574       575       577       578       561       566       561       563
       561       564       561       565       566       568       566       574
       568       571       568       570       571       573       571       577
       577       574       574       576       577       579       580       577
       581       582       586       587       588       589       591       592
       594       595       597       598       581       586       581       583
       581       584       581       585       586       588       586       594
       588       591       588       590       591       593       591       597
       597       594       594       596       597       599       600       597
       601       602       606       607       608       609       611       612
       614       615       617       618       601       606       601       603
       601       604       601       605       606       608       606       614
       608       611       608       610       611       613       611       617
       617       614       614       616       617       619       620       617
       621       622       626       627       628       629       631       632
       634       635       637       638       621       626       621       623
       621       624       621       625       626       628       626       634
       628       631       628       630       631       633       631       637
       637       634       634       636       637       639       640       637
       641       642       646       647       648       649       651       652
       654       655       657       658       641       646       641       643
       641       644       641       645       646       648       646       654
       648       651       648       650       651       653       651       657
       657       654       654       656       657       659       660       657
       661       662       663       664       668       669       670       671
       663       661       661       668       661       670       663       665
       663       666       663       667       668       673       670       672
       668       674       668       675       670       676       670       677
       678       679       680       681       685       686       687       688
       680       678       678       685       678       687       680       682
       680       683       680       684       685       690       687       689
       685       691       685       692       687       693       687       694
       695       696       697       698       702       703       704       705
       697       695       695       702       695       704       697       699
       697       700       697       701       702       707       704       706
       702       708       702       709       704       710       704       711
       712       713       714       715       719       720       721       722
       714       712       712       719       712       721       714       716
       714       717       714       718       719       724       721       723
       719       725       719       726       721       727       721       728
       729       730       731       732       736       737       738       739
       731       729       729       736       729       738       731       733
       731       734       731       735       736       741       738       740
       736       742       736       743       738       744       738       745
       746       747       748       749       753       754       755       756
       748       746       746       753       746       755       748       750
       748       751       748       752       753       758       755       757
       753       759       753       760       755       761       755       762
       763       764       765       766       770       771       772       773
       765       763       763       770       763       772       765       767
       765       768       765       769       770       775       772       774
       770       776       770       777       772       778       772       779
       780       781       782       783       787       788       789       790
       782       780       780       787       780       789       782       784
       782       785       782       786       787       792       789       791
       787       793       787       794       789       795       789       796
       797       798       799       800       804       805       806       807
       799       797       797       804       797       806       799       801
       799       802       799       803       804       809       806       808
       804       810       804       811       806       812       806       813
       814       815       816       817       821       822       823       824
       816       814       814       821       814       823       816       818
       816       819       816       820       821       826       823       825
       821       827       821       828       823       829       823       830
       831       832       833       834       838       839       840       841
       833       831       831       838       831       840       833       835
       833       836       833       837       838       843       840       842
       838       844       838       845       840       846       840       847
       848       849       850       851       855       856       857       858
       850       848       848       855       848       857       850       852
       850       853       850       854       855       860       857       859
       855       861       855       862       857       863       857       864
       865       866       867       868       872       873       874       875
       867       865       865       872       865       874       867       869
       867       870       867       871       872       877       874       876
       872       878       872       879       874       880       874       881
       882       883       884       885       889       890       891       892
       884       882       882       889       882       891       884       886
       884       887       884       888       889       894       891       893
       889       895       889       896       891       897       891       898
       899       900       901       902       906       907       908       909
       901       899       899       906       899       908       901       903
       901       904       901       905       906       911       908       910
       906       912       906       913       908       914       908       915
       916       917       918       919       923       924       925       926
       918       916       916       923       916       925       918       920
       918       921       918       922       923       928       925       927
       923       929       923       930       925       931       925       932
       933       934       935       936       940       941       942       943
       935       933       933       940       933       942       935       937
       935       938       935       939       940       945       942       944
       940       946       940       947       942       948       942       949
       950       951       952       953       957       958       959       960
       952       950       950       957       950       959       952       954
       952       955       952       956       957       962       959       961
       957       963       957       964       959       965       959       966
       967       968       969       970       974       975       976       977
       969       967       967       974       967       976       969       971
       969       972       969       973       974       979       976       978
       974       980       974       981       976       982       976       983
       984       985       986       987       991       992       993       994
       986       984       984       991       984       993       986       988
       986       989       986       990       991       996       993       995
       991       997       991       998       993       999       993      1000
      1001      1002      1003      1004      1008      1009      1010      1011
      1003      1001      1001      1008      1001      1010      1003      1005
      1003      1006      1003      1007      1008      1013      1010      1012
      1008      1014      1008      1015      1010      1016      1010      1017
      1018      1019      1020      1021      1025      1026      1027      1028
      1020      1018      1018      1025      1018      1027      1020      1022
      1020      1023      1020      1024      1025      1030      1027      1029
      1025      1031      1025      1032      1027      1033      1027      1034
      1035      1036      1037      1038      1042      1043      1044      1045
      1037      1035      1035      1042      1035      1044      1037      1039
      1037      1040      1037      1041      1042      1047      1044      1046
      1042      1048      1042      1049      1044      1050      1044      1051
      1052      1053      1054      1055      1059      1060      1061      1062
      1054      1052      1052      1059      1052      1061      1054      1056
      1054      1057      1054      1058      1059      1064      1061      1063
      1059      1065      1059      1066      1061      1067      1061      1068
      1069      1070      1071      1072      1076      1077      1078      1079
      1071      1069      1069      1076      1069      1078      1071      1073
      1071      1074      1071      1075      1076      1081      1078      1080
      1076      1082      1076      1083      1078      1084      1078      1085
      1086      1087      1088      1089      1093      1094      1095      1096
      1088      1086      1086      1093      1086      1095      1088      1090
      1088      1091      1088      1092      1093      1098      1095      1097
      1093      1099      1093      1100      1095      1101      1095      1102
      1103      1104      1105      1106      1110      1111      1112      1113
      1105      1103      1103      1110      1103      1112      1105      1107
      1105      1108      1105      1109      1110      1115      1112      1114
      1110      1116      1110      1117      1112      1118      1112      1119
      1120      1121      1122      1123      1127      1128      1129      1130
      1122      1120      1120      1127      1120      1129      1122      1124
      1122      1125      1122      1126      1127      1132      1129      1131
      1127      1133      1127      1134      1129      1135      1129      1136
      1137      1138      1139      1140      1144      1145      1146      1147
      1139      1137      1137      1144      1137      1146      1139      1141
      1139      1142      1139      1143      1144      1149      1146      1148
      1144      1150      1144      1151      1146      1152      1146      1153
      1154      1155      1156      1157      1161      1162      1163      1164
      1156      1154      1154      1161      1154      1163      1156      1158
      1156      1159      1156      1160      1161      1166      1163      1165
      1161      1167      1161      1168      1163      1169      1163      1170
      1171      1172      1173      1174      1178      1179      1180      1181
      1173      1171      1171      1178      1171      1180      1173      1175
      1173      1176      1173      1177      1178      1183      1180      1182
      1178      1184      1178      1185      1180      1186      1180      1187
      1188      1189      1190      1191      1195      1196      1197      1198
      1190      1188      1188      1195      1188      1197      1190      1192
      1190      1193      1190      1194      1195      1200      1197      1199
      1195      1201      1195      1202      1197      1203      1197      1204
      1205      1206      1207      1208      1212      1213      1214      1215
      1207      1205      1205      1212      1205      1214      1207      1209
      1207      1210      1207      1211      1212      1217      1214      1216
      1212      1218      1212      1219      1214      1220      1214      1221
      1222      1223      1227      1228      1229      1230      1232      1233
      1235      1236      1238      1239      1222      1227      1222      1224
      1222      1225      1222      1226      1227      1229      1227      1235
      1229      1232      1229      1231      1232      1234      1232      1238
      1238      1235      1235      1237      1238      1240      1241      1238
      1242      1243      1247      1248      1249      1250      1252      1253
      1255      1256      1258      1259      1242      1247      1242      1244
      1242      1245      1242      1246      1247      1249      1247      1255
      1249      1252      1249      1251      1252      1254      1252      1258
      1258      1255      1255      1257      1258      1260      1261      1258
      1262      1263      1267      1268      1269      1270      1272      1273
      1275      1276      1278      1279      1262      1267      1262      1264
      1262      1265      1262      1266      1267      1269      1267      1275
      1269      1272      1269      1271      1272      1274      1272      1278
      1278      1275      1275      1277      1278      1280      1281      1278
      1282      1283      1287      1288      1289      1290      1292      1293
      1295      1296      1298      1299      1282      1287      1282      1284
      1282      1285      1282      1286      1287      1289      1287      1295
      1289      1292      1289      1291      1292      1294      1292      1298
      1298      1295      1295      1297      1298      1300      1301      1298
      1302      1303      1307      1308      1309      1310      1312      1313
      1315      1316      1318      1319      1302      1307      1302      1304
      1302      1305      1302      1306      1307      1309      1307      1315
      1309      1312      1309      1311      1312      1314      1312      1318
      1318      1315      1315      1317      1318      1320      1321      1318
      1322      1323      1327      1328      1329      1330      1332      1333
      1335      1336      1338      1339      1322      1327      1322      1324
      1322      1325      1322      1326      1327      1329      1327      1335
      1329      1332      1329      1331      1332      1334      1332      1338
      1338      1335      1335      1337      1338      1340      1341      1338
      1342      1343      1347      1348      1349      1350      1352      1353
      1355      1356      1358      1359      1342      1347      1342      1344
      1342      1345      1342      1346      1347      1349      1347      1355
      1349      1352      1349      1351      1352      1354      1352      1358
      1358      1355      1355      1357      1358      1360      1361      1358
      1362      1363      1367      1368      1369      1370      1372      1373
      1375      1376      1378      1379      1362      1367      1362      1364
      1362      1365      1362      1366      1367      1369      1367      1375
      1369      1372      1369      1371      1372      1374      1372      1378
      1378      1375      1375      1377      1378      1380      1381      1378
      1382      1383      1387      1388      1389      1390      1392      1393
      1395      1396      1398      1399      1382      1387      1382      1384
      1382      1385      1382      1386      1387      1389      1387      1395
      1389      1392      1389      1391      1392      1394      1392      1398
      1398      1395      1395      1397      1398      1400      1401      1398
      1402      1403      1407      1408      1409      1410      1412      1413
      1415      1416      1418      1419      1402      1407      1402      1404
      1402      1405      1402      1406      1407      1409      1407      1415
      1409      1412      1409      1411      1412      1414      1412      1418
      1418      1415      1415      1417      1418      1420      1421      1418
      1422      1423      1427      1428      1429      1430      1432      1433
      1435      1436      1438      1439      1422      1427      1422      1424
      1422      1425      1422      1426      1427      1429      1427      1435
      1429      1432      1429      1431      1432      1434      1432      1438
      1438      1435      1435      1437      1438      1440      1441      1438
      1442      1443      1447      1448      1449      1450      1452      1453
      1455      1456      1458      1459      1442      1447      1442      1444
      1442      1445      1442      1446      1447      1449      1447      1455
      1449      1452      1449      1451      1452      1454      1452      1458
      1458      1455      1455      1457      1458      1460      1461      1458
      1462      1463      1467      1468      1469      1470      1472      1473
      1475      1476      1478      1479      1462      1467      1462      1464
      1462      1465      1462      1466      1467      1469      1467      1475
      1469      1472      1469      1471      1472      1474      1472      1478
      1478      1475      1475      1477      1478      1480      1481      1478
      1482      1483      1487      1488      1489      1490      1492      1493
      1495      1496      1498      1499      1482      1487      1482      1484
      1482      1485      1482      1486      1487      1489      1487      1495
      1489      1492      1489      1491      1492      1494      1492      1498
      1498      1495      1495      1497      1498      1500      1501      1498
      1502      1503      1507      1508      1509      1510      1512      1513
      1515      1516      1518      1519      1502      1507      1502      1504
      1502      1505      1502      1506      1507      1509      1507      1515
      1509      1512      1509      1511      1512      1514      1512      1518
      1518      1515      1515      1517      1518      1520      1521      1518
      1522      1523      1527      1528      1529      1530      1532      1533
      1535      1536      1538      1539      1522      1527      1522      1524
      1522      1525      1522      1526      1527      1529      1527      1535
      1529      1532      1529      1531      1532      1534      1532      1538
      1538      1535      1535      1537      1538      1540      1541      1538
      1542      1543      1547      1548      1549      1550      1552      1553
      1555      1556      1558      1559      1542      1547      1542      1544
      1542      1545      1542      1546      1547      1549      1547      1555
      1549      1552      1549      1551      1552      1554      1552      1558
      1558      1555      1555      1557      1558      1560      1561      1558
      1562      1563      1567      1568      1569      1570      1572      1573
      1575      1576      1578      1579      1562      1567      1562      1564
      1562      1565      1562      1566      1567      1569      1567      1575
      1569      1572      1569      1571      1572      1574      1572      1578
      1578      1575      1575      1577      1578      1580      1581      1578
      1582      1583      1587      1588      1589      1590      1592      1593
      1595      1596      1598      1599      1582      1587      1582      1584
      1582      1585      1582      1586      1587      1589      1587      1595
      1589      1592      1589      1591      1592      1594      1592      1598
      1598      1595      1595      1597      1598      1600      1601      1598
      1602      1603      1607      1608      1609      1610      1612      1613
      1615      1616      1618      1619      1602      1607      1602      1604
      1602      1605      1602      1606      1607      1609      1607      1615
      1609      1612      1609      1611      1612      1614      1612      1618
      1618      1615      1615      1617      1618      1620      1621      1618
      1622      1623      1627      1628      1629      1630      1632      1633
      1635      1636      1638      1639      1622      1627      1622      1624
      1622      1625      1622      1626      1627      1629      1627      1635
      1629      1632      1629      1631      1632      1634      1632      1638
      1638      1635      1635      1637      1638      1640      1641      1638
      1642      1643      1647      1648      1649      1650      1652      1653
      1655      1656      1658      1659      1642      1647      1642      1644
      1642      1645      1642      1646      1647      1649      1647      1655
      1649      1652      1649      1651      1652      1654      1652      1658
      1658      1655      1655      1657      1658      1660      1661      1658
      1662      1663      1667      1668      1669      1670      1672      1673
      1675      1676      1678      1679      1662      1667      1662      1664
      1662      1665      1662      1666      1667      1669      1667      1675
      1669      1672      1669      1671      1672      1674      1672      1678
      1678      1675      1675      1677      1678      1680      1681      1678
      1682      1683      1687      1688      1689      1690      1692      1693
      1695      1696      1698      1699      1682      1687      1682      1684
      1682      1685      1682      1686      1687      1689      1687      1695
      1689      1692      1689      1691      1692      1694      1692      1698
      1698      1695      1695      1697      1698      1700      1701      1698
      1702      1703      1707      1708      1709      1710      1712      1713
      1715      1716      1718      1719      1702      1707      1702      1704
      1702      1705      1702      1706      1707      1709      1707      1715
      1709      1712      1709      1711      1712      1714      1712      1718
      1718      1715      1715      1717      1718      1720      1721      1718
      1722      1723      1727      1728      1729      1730      1732      1733
      1735      1736      1738      1739      1722      1727      1722      1724
      1722      1725      1722      1726      1727      1729      1727      1735
      1729      1732      1729      1731      1732      1734      1732      1738
      1738      1735      1735      1737      1738      1740      1741      1738
      1742      1743      1747      1748      1749      1750      1752      1753
      1755      1756      1758      1759      1742      1747      1742      1744
      1742      1745      1742      1746      1747      1749      1747      1755
      1749      1752      1749      1751      1752      1754      1752      1758
      1758      1755      1755      1757      1758      1760      1761      1758
      1762      1763      1767      1768      1769      1770      1772      1773
      1775      1776      1778      1779      1762      1767      1762      1764
      1762      1765      1762      1766      1767      1769      1767      1775
      1769      1772      1769      1771      1772      1774      1772      1778
      1778      1775      1775      1777      1778      1780      1781      1778
      1782      1783      1787      1788      1789      1790      1792      1793
      1795      1796      1798      1799      1782      1787      1782      1784
      1782      1785      1782      1786      1787      1789      1787      1795
      1789      1792      1789      1791      1792      1794      1792      1798
      1798      1795      1795      1797      1798      1800      1801      1798
      1802      1803      1807      1808      1809      1810      1812      1813
      1815      1816      1818      1819      1802      1807      1802      1804
      1802      1805      1802      1806      1807      1809      1807      1815
      1809      1812      1809      1811      1812      1814      1812      1818
      1818      1815      1815      1817      1818      1820      1821      1818
      1822      1823      1827      1828      1829      1830      1832      1833
      1835      1836      1838      1839      1822      1827      1822      1824
      1822      1825      1822      1826      1827      1829      1827      1835
      1829      1832      1829      1831      1832      1834      1832      1838
      1838      1835      1835      1837      1838      1840      1841      1838
      1842      1843      1847      1848      1849      1850      1852      1853
      1855      1856      1858      1859      1842      1847      1842      1844
      1842      1845      1842      1846      1847      1849      1847      1855
      1849      1852      1849      1851      1852      1854      1852      1858
      1858      1855      1855      1857      1858      1860      1861      1858
      1862      1863      1867      1868      1869      1870      1872      1873
      1875      1876      1878      1879      1862      1867      1862      1864
      1862      1865      1862      1866      1867      1869      1867      1875
      1869      1872      1869      1871      1872      1874      1872      1878
      1878      1875      1875      1877      1878      1880      1881      1878
      1882      1883      1887      1888      1889      1890      1892      1893
      1895      1896      1898      1899      1882      1887      1882      1884
      1882      1885      1882      1886      1887      1889      1887      1895
      1889      1892      1889      1891      1892      1894      1892      1898
      1898      1895      1895      1897      1898      1900      1901      1898
      1902      1903      1907      1908      1909      1910      1912      1913
      1915      1916      1918      1919      1902      1907      1902      1904
      1902      1905      1902      1906      1907      1909      1907      1915
      1909      1912      1909      1911      1912      1914      1912      1918
      1918      1915      1915      1917      1918      1920      1921      1918
      1922      1923      1927      1928      1929      1930      1932      1933
      1935      1936      1938      1939      1922      1927      1922      1924
      1922      1925      1922      1926      1927      1929      1927      1935
      1929      1932      1929      1931      1932      1934      1932      1938
      1938      1935      1935      1937      1938      1940      1941      1938
      1942      1943      1947      1948      1949      1950      1952      1953
      1955      1956      1958      1959      1942      1947      1942      1944
      1942      1945      1942      1946      1947      1949      1947      1955
      1949      1952      1949      1951      1952      1954      1952      1958
      1958      1955      1955      1957      1958      1960      1961      1958
      1962      1963      1967      1968      1969      1970      1972      1973
      1975      1976      1978      1979      1962      1967      1962      1964
      1962      1965      1962      1966      1967      1969      1967      1975
      1969      1972      1969      1971      1972      1974      1972      1978
      1978      1975      1975      1977      1978      1980      1981      1978
      1982      1983      1987      1988      1989      1990      1992      1993
      1995      1996      1998      1999      1982      1987      1982      1984
      1982      1985      1982      1986      1987      1989      1987      1995
      1989      1992      1989      1991      1992      1994      1992      1998
      1998      1995      1995      1997      1998      2000      2001      1998
      2002      2003      2007      2008      2009      2010      2012      2013
      2015      2016      2018      2019      2002      2007      2002      2004
      2002      2005      2002      2006      2007      2009      2007      2015
      2009      2012      2009      2011      2012      2014      2012      2018
      2018      2015      2015      2017      2018      2020      2021      2018
      2022      2023      2027      2028      2029      2030      2032      2033
      2035      2036      2038      2039      2022      2027      2022      2024
      2022      2025      2022      2026      2027      2029      2027      2035
      2029      2032      2029      2031      2032      2034      2032      2038
      2038      2035      2035      2037      2038      2040      2041      2038
      2042      2043      2047      2048      2049      2050      2052      2053
      2055      2056      2058      2059      2042      2047      2042      2044
      2042      2045      2042      2046      2047      2049      2047      2055
      2049      2052      2049      2051      2052      2054      2052      2058
      2058      2055      2055      2057      2058      2060      2061      2058
      2062      2063      2067      2068      2069      2070      2072      2073
      2075      2076      2078      2079      2062      2067      2062      2064
      2062      2065      2062      2066      2067      2069      2067      2075
      2069      2072      2069      2071      2072      2074      2072      2078
      2078      2075      2075      2077      2078      2080      2081      2078
      2082      2083      2087      2088      2089      2090      2092      2093
      2095      2096      2098      2099      2082      2087      2082      2084
      2082      2085      2082      2086      2087      2089      2087      2095
      2089      2092      2089      2091      2092      2094      2092      2098
      2098      2095      2095      2097      2098      2100      2101      2098
      2102      2103      2107      2108      2109      2110      2112      2113
      2115      2116      2118      2119      2102      2107      2102      2104
      2102      2105      2102      2106      2107      2109      2107      2115
      2109      2112      2109      2111      2112      2114      2112      2118
      2118      2115      2115      2117      2118      2120      2121      2118
      2122      2123      2127      2128      2129      2130      2132      2133
      2135      2136      2138      2139      2122      2127      2122      2124
      2122      2125      2122      2126      2127      2129      2127      2135
      2129      2132      2129      2131      2132      2134      2132      2138
      2138      2135      2135      2137      2138      2140      2141      2138
      2142      2143      2147      2148      2149      2150      2152      2153
      2155      2156      2158      2159      2142      2147      2142      2144
      2142      2145      2142      2146      2147      2149      2147      2155
      2149      2152      2149      2151      2152      2154      2152      2158
      2158      2155      2155      2157      2158      2160      2161      2158
      2162      2163      2167      2168      2169      2170      2172      2173
      2175      2176      2178      2179      2162      2167      2162      2164
      2162      2165      2162      2166      2167      2169      2167      2175
      2169      2172      2169      2171      2172      2174      2172      2178
      2178      2175      2175      2177      2178      2180      2181      2178
      2182      2183      2187      2188      2189      2190      2192      2193
      2195      2196      2198      2199      2182      2187      2182      2184
      2182      2185      2182      2186      2187      2189      2187      2195
      2189      2192      2189      2191      2192      2194      2192      2198
      2198      2195      2195      2197      2198      2200      2201      2198
      2202      2203      2207      2208      2209      2210      2212      2213
      2215      2216      2218      2219      2202      2207      2202      2204
      2202      2205      2202      2206      2207      2209      2207      2215
      2209      2212      2209      2211      2212      2214      2212      2218
      2218      2215      2215      2217      2218      2220      2221      2218
      2222      2223      2227      2228      2229      2230      2232      2233
      2235      2236      2238      2239      2222      2227      2222      2224
      2222      2225      2222      2226      2227      2229      2227      2235
      2229      2232      2229      2231      2232      2234      2232      2238
      2238      2235      2235      2237      2238      2240      2241      2238
      2242      2243      2247      2248      2249      2250      2252      2253
      2255      2256      2258      2259      2242      2247      2242      2244
      2242      2245      2242      2246      2247      2249      2247      2255
      2249      2252      2249      2251      2252      2254      2252      2258
      2258      2255      2255      2257      2258      2260      2261      2258
      2262      2263      2267      2268      2269      2270      2272      2273
      2275      2276      2278      2279      2262      2267      2262      2264
      2262      2265      2262      2266      2267      2269      2267      2275
      2269      2272      2269      2271      2272      2274      2272      2278
      2278      2275      2275      2277      2278      2280      2281      2278
      2282      2283      2287      2288      2289      2290      2292      2293
      2295      2296      2298      2299      2282      2287      2282      2284
      2282      2285      2282      2286      2287      2289      2287      2295
      2289      2292      2289      2291      2292      2294      2292      2298
      2298      2295      2295      2297      2298      2300      2301      2298
      2302      2303      2307      2308      2309      2310      2312      2313
      2315      2316      2318      2319      2302      2307      2302      2304
      2302      2305      2302      2306      2307      2309      2307      2315
      2309      2312      2309      2311      2312      2314      2312      2318
      2318      2315      2315      2317      2318      2320      2321      2318
      2322      2323      2327      2328      2329      2330      2332      2333
      2335      2336      2338      2339      2322      2327      2322      2324
      2322      2325      2322      2326      2327      2329      2327      2335
      2329      2332      2329      2331      2332      2334      2332      2338
      2338      2335      2335      2337      2338      2340      2341      2338
      2342      2343      2347      2348      2349      2350      2352      2353
      2355      2356      2358      2359      2342      2347      2342      2344
      2342      2345      2342      2346      2347      2349      2347      2355
      2349      2352      2349      2351      2352      2354      2352      2358
      2358      2355      2355      2357      2358      2360      2361      2358
      2362      2363      2367      2368      2369      2370      2372      2373
      2375      2376      2378      2379      2362      2367      2362      2364
      2362      2365      2362      2366      2367      2369      2367      2375
      2369      2372      2369      2371      2372      2374      2372      2378
      2378      2375      2375      2377      2378      2380      2381      2378
      2382      2383      2387      2388      2389      2390      2392      2393
      2395      2396      2398      2399      2382      2387      2382      2384
      2382      2385      2382      2386      2387      2389      2387      2395
      2389      2392      2389      2391      2392      2394      2392      2398
      2398      2395      2395      2397      2398      2400      2401      2398
      2402      2403      2407      2408      2409      2410      2412      2413
      2415      2416      2418      2419      2402      2407      2402      2404
      2402      2405      2402      2406      2407      2409      2407      2415
      2409      2412      2409      2411      2412      2414      2412      2418
      2418      2415      2415      2417      2418      2420      2421      2418
      2422      2423      2427      2428      2429      2430      2432      2433
      2435      2436      2438      2439      2422      2427      2422      2424
      2422      2425      2422      2426      2427      2429      2427      2435
      2429      2432      2429      2431      2432      2434      2432      2438
      2438      2435      2435      2437      2438      2440      2441      2438
      2442      2443      2447      2448      2449      2450      2452      2453
      2455      2456      2458      2459      2442      2447      2442      2444
      2442      2445      2442      2446      2447      2449      2447      2455
      2449      2452      2449      2451      2452      2454      2452      2458
      2458      2455      2455      2457      2458      2460      2461      2458
      2462      2463      2467      2468      2469      2470      2472      2473
      2475      2476      2478      2479      2462      2467      2462      2464
      2462      2465      2462      2466      2467      2469      2467      2475
      2469      2472      2469      2471      2472      2474      2472      2478
      2478      2475      2475      2477      2478      2480      2481      2478
      2482      2483      2487      2488      2489      2490      2492      2493
      2495      2496      2498      2499      2482      2487      2482      2484
      2482      2485      2482      2486      2487      2489      2487      2495
      2489      2492      2489      2491      2492      2494      2492      2498
      2498      2495      2495      2497      2498      2500      2501      2498
      2502      2503      2507      2508      2509      2510      2512      2513
      2515      2516      2518      2519      2502      2507      2502      2504
      2502      2505      2502      2506      2507      2509      2507      2515
      2509      2512      2509      2511      2512      2514      2512      2518
      2518      2515      2515      2517      2518      2520      2521      2518
      2522      2523      2527      2528      2529      2530      2532      2533
      2535      2536      2538      2539      2522      2527      2522      2524
      2522      2525      2522      2526      2527      2529      2527      2535
      2529      2532      2529      2531      2532      2534      2532      2538
      2538      2535      2535      2537      2538      2540      2541      2538
      2542      2543      2547      2548      2549      2550      2552      2553
      2555      2556      2558      2559      2542      2547      2542      2544
      2542      2545      2542      2546      2547      2549      2547      2555
      2549      2552      2549      2551      2552      2554      2552      2558
      2558      2555      2555      2557      2558      2560      2561      2558
      2562      2563      2567      2568      2569      2570      2572      2573
      2575      2576      2578      2579      2562      2567      2562      2564
      2562      2565      2562      2566      2567      2569      2567      2575
      2569      2572      2569      2571      2572      2574      2572      2578
      2578      2575      2575      2577      2578      2580      2581      2578
      2582      2583      2587      2588      2589      2590      2592      2593
      2595      2596      2598      2599      2582      2587      2582      2584
      2582      2585      2582      2586      2587      2589      2587      2595
      2589      2592      2589      2591      2592      2594      2592      2598
      2598      2595      2595      2597      2598      2600      2601      2598
      2602      2603      2607      2608      2609      2610      2612      2613
      2615      2616      2618      2619      2602      2607      2602      2604
      2602      2605      2602      2606      2607      2609      2607      2615
      2609      2612      2609      2611      2612      2614      2612      2618
      2618      2615      2615      2617      2618      2620      2621      2618
      2622      2623      2627      2628      2629      2630      2632      2633
      2635      2636      2638      2639      2622      2627      2622      2624
      2622      2625      2622      2626      2627      2629      2627      2635
      2629      2632      2629      2631      2632      2634      2632      2638
      2638      2635      2635      2637      2638      2640      2641      2638
      2642      2643      2647      2648      2649      2650      2652      2653
      2655      2656      2658      2659      2642      2647      2642      2644
      2642      2645      2642      2646      2647      2649      2647      2655
      2649      2652      2649      2651      2652      2654      2652      2658
      2658      2655      2655      2657      2658      2660      2661      2658
      2662      2663      2667      2668      2669      2670      2672      2673
      2675      2676      2678      2679      2662      2667      2662      2664
      2662      2665      2662      2666      2667      2669      2667      2675
      2669      2672      2669      2671      2672      2674      2672      2678
      2678      2675      2675      2677      2678      2680      2681      2678
      2682      2683      2687      2688      2689      2690      2692      2693
      2695      2696      2698      2699      2682      2687      2682      2684
      2682      2685      2682      2686      2687      2689      2687      2695
      2689      2692      2689      2691      2692      2694      2692      2698
      2698      2695      2695      2697      2698      2700      2701      2698
      2702      2703      2707      2708      2709      2710      2712      2713
      2715      2716      2718      2719      2702      2707      2702      2704
      2702      2705      2702      2706      2707      2709      2707      2715
      2709      2712      2709      2711      2712      2714      2712      2718
      2718      2715      2715      2717      2718      2720      2721      2718
      2722      2723      2727      2728      2729      2730      2732      2733
      2735      2736      2738      2739      2722      2727      2722      2724
      2722      2725      2722      2726      2727      2729      2727      2735
      2729      2732      2729      2731      2732      2734      2732      2738
      2738      2735      2735      2737      2738      2740      2741      2738
      2742      2743      2747      2748      2749      2750      2752      2753
      2755      2756      2758      2759      2742      2747      2742      2744
      2742      2745      2742      2746      2747      2749      2747      2755
      2749      2752      2749      2751      2752      2754      2752      2758
      2758      2755      2755      2757      2758      2760      2761      2758
      2762      2763      2767      2768      2769      2770      2772      2773
      2775      2776      2778      2779      2762      2767      2762      2764
      2762      2765      2762      2766      2767      2769      2767      2775
      2769      2772      2769      2771      2772      2774      2772      2778
      2778      2775      2775      2777      2778      2780      2781      2778
      2782      2783      2784      2785      2789      2790      2791      2792
      2784      2782      2782      2789      2782      2791      2784      2786
      2784      2787      2784      2788      2789      2794      2791      2793
      2789      2795      2789      2796      2791      2797      2791      2798
      2799      2800      2801      2802      2806      2807      2808      2809
      2801      2799      2799      2806      2799      2808      2801      2803
      2801      2804      2801      2805      2806      2811      2808      2810
      2806      2812      2806      2813      2808      2814      2808      2815
      2816      2817      2818      2819      2823      2824      2825      2826
      2818      2816      2816      2823      2816      2825      2818      2820
      2818      2821      2818      2822      2823      2828      2825      2827
      2823      2829      2823      2830      2825      2831      2825      2832
      2833      2834      2835      2836      2840      2841      2842      2843
      2835      2833      2833      2840      2833      2842      2835      2837
      2835      2838      2835      2839      2840      2845      2842      2844
      2840      2846      2840      2847      2842      2848      2842      2849
      2850      2851      2852      2853      2857      2858      2859      2860
      2852      2850      2850      2857      2850      2859      2852      2854
      2852      2855      2852      2856      2857      2862      2859      2861
      2857      2863      2857      2864      2859      2865      2859      2866
      2867      2868      2869      2870      2874      2875      2876      2877
      2869      2867      2867      2874      2867      2876      2869      2871
      2869      2872      2869      2873      2874      2879      2876      2878
      2874      2880      2874      2881      2876      2882      2876      2883
      2884      2885      2886      2887      2891      2892      2893      2894
      2886      2884      2884      2891      2884      2893      2886      2888
      2886      2889      2886      2890      2891      2896      2893      2895
      2891      2897      2891      2898      2893      2899      2893      2900
      2901      2902      2903      2904      2908      2909      2910      2911
      2903      2901      2901      2908      2901      2910      2903      2905
      2903      2906      2903      2907      2908      2913      2910      2912
      2908      2914      2908      2915      2910      2916      2910      2917
      2918      2919      2920      2921      2925      2926      2927      2928
      2920      2918      2918      2925      2918      2927      2920      2922
      2920      2923      2920      2924      2925      2930      2927      2929
      2925      2931      2925      2932      2927      2933      2927      2934
      2935      2936      2937      2938      2942      2943      2944      2945
      2937      2935      2935      2942      2935      2944      2937      2939
      2937      2940      2937      2941      2942      2947      2944      2946
      2942      2948      2942      2949      2944      2950      2944      2951
      2952      2953      2954      2955      2959      2960      2961      2962
      2954      2952      2952      2959      2952      2961      2954      2956
      2954      2957      2954      2958      2959      2964      2961      2963
      2959      2965      2959      2966      2961      2967      2961      2968
      2969      2970      2971      2972      2976      2977      2978      2979
      2971      2969      2969      2976      2969      2978      2971      2973
      2971      2974      2971      2975      2976      2981      2978      2980
      2976      2982      2976      2983      2978      2984      2978      2985
      2986      2987      2988      2989      2993      2994      2995      2996
      2988      2986      2986      2993      2986      2995      2988      2990
      2988      2991      2988      2992      2993      2998      2995      2997
      2993      2999      2993      3000      2995      3001      2995      3002
      3003      3004      3005      3006      3010      3011      3012      3013
      3005      3003      3003      3010      3003      3012      3005      3007
      3005      3008      3005      3009      3010      3015      3012      3014
      3010      3016      3010      3017      3012      3018      3012      3019
      3020      3021      3022      3023      3027      3028      3029      3030
      3022      3020      3020      3027      3020      3029      3022      3024
      3022      3025      3022      3026      3027      3032      3029      3031
      3027      3033      3027      3034      3029      3035      3029      3036
      3037      3038      3039      3040      3044      3045      3046      3047
      3039      3037      3037      3044      3037      3046      3039      3041
      3039      3042      3039      3043      3044      3049      3046      3048
      3044      3050      3044      3051      3046      3052      3046      3053
      3054      3055      3056      3057      3061      3062      3063      3064
      3056      3054      3054      3061      3054      3063      3056      3058
      3056      3059      3056      3060      3061      3066      3063      3065
      3061      3067      3061      3068      3063      3069      3063      3070
      3071      3072      3073      3074      3078      3079      3080      3081
      3073      3071      3071      3078      3071      3080      3073      3075
      3073      3076      3073      3077      3078      3083      3080      3082
      3078      3084      3078      3085      3080      3086      3080      3087
      3088      3089      3090      3091      3095      3096      3097      3098
      3090      3088      3088      3095      3088      3097      3090      3092
      3090      3093      3090      3094      3095      3100      3097      3099
      3095      3101      3095      3102      3097      3103      3097      3104
      3105      3106      3107      3108      3112      3113      3114      3115
      3107      3105      3105      3112      3105      3114      3107      3109
      3107      3110      3107      3111      3112      3117      3114      3116
      3112      3118      3112      3119      3114      3120      3114      3121
      3122      3123      3124      3125      3129      3130      3131      3132
      3124      3122      3122      3129      3122      3131      3124      3126
      3124      3127      3124      3128      3129      3134      3131      3133
      3129      3135      3129      3136      3131      3137      3131      3138
      3139      3140      3141      3142      3146      3147      3148      3149
      3141      3139      3139      3146      3139      3148      3141      3143
      3141      3144      3141      3145      3146      3151      3148      3150
      3146      3152      3146      3153      3148      3154      3148      3155
      3156      3157      3158      3159      3163      3164      3165      3166
      3158      3156      3156      3163      3156      3165      3158      3160
      3158      3161      3158      3162      3163      3168      3165      3167
      3163      3169      3163      3170      3165      3171      3165      3172
      3173      3174      3175      3176      3180      3181      3182      3183
      3175      3173      3173      3180      3173      3182      3175      3177
      3175      3178      3175      3179      3180      3185      3182      3184
      3180      3186      3180      3187      3182      3188      3182      3189
      3190      3191      3192      3193      3197      3198      3199      3200
      3192      3190      3190      3197      3190      3199      3192      3194
      3192      3195      3192      3196      3197      3202      3199      3201
      3197      3203      3197      3204      3199      3205      3199      3206
      3207      3208      3209      3210      3214      3215      3216      3217
      3209      3207      3207      3214      3207      3216      3209      3211
      3209      3212      3209      3213      3214      3219      3216      3218
      3214      3220      3214      3221      3216      3222      3216      3223
      3224      3225      3226      3227      3231      3232      3233      3234
      3226      3224      3224      3231      3224      3233      3226      3228
      3226      3229      3226      3230      3231      3236      3233      3235
      3231      3237      3231      3238      3233      3239      3233      3240
      3241      3242      3243      3244      3248      3249      3250      3251
      3243      3241      3241      3248      3241      3250      3243      3245
      3243      3246      3243      3247      3248      3253      3250      3252
      3248      3254      3248      3255      3250      3256      3250      3257
      3258      3259      3260      3261      3265      3266      3267      3268
      3260      3258      3258      3265      3258      3267      3260      3262
      3260      3263      3260      3264      3265      3270      3267      3269
      3265      3271      3265      3272      3267      3273      3267      3274
      3275      3276      3277      3278      3282      3283      3284      3285
      3277      3275      3275      3282      3275      3284      3277      3279
      3277      3280      3277      3281      3282      3287      3284      3286
      3282      3288      3282      3289      3284      3290      3284      3291
      3292      3293      3294      3295      3299      3300      3301      3302
      3294      3292      3292      3299      3292      3301      3294      3296
      3294      3297      3294      3298      3299      3304      3301      3303
      3299      3305      3299      3306      3301      3307      3301      3308
      3309      3310      3311      3312      3316      3317      3318      3319
      3311      3309      3309      3316      3309      3318      3311      3313
      3311      3314      3311      3315      3316      3321      3318      3320
      3316      3322      3316      3323      3318      3324      3318      3325
      3326      3327      3328      3329      3333      3334      3335      3336
      3328      3326      3326      3333      3326      3335      3328      3330
      3328      3331      3328      3332      3333      3338      3335      3337
      3333      3339      3333      3340      3335      3341      3335      3342
      3343      3344      3345      3346      3350      3351      3352      3353
      3345      3343      3343      3350      3343      3352      3345      3347
      3345      3348      3345      3349      3350      3355      3352      3354
      3350      3356      3350      3357      3352      3358      3352      3359
      3360      3361      3362      3363      3367      3368      3369      3370
      3362      3360      3360      3367      3360      3369      3362      3364
      3362      3365      3362      3366      3367      3372      3369      3371
      3367      3373      3367      3374      3369      3375      3369      3376
      3377      3378      3379      3380      3384      3385      3386      3387
      3379      3377      3377      3384      3377      3386      3379      3381
      3379      3382      3379      3383      3384      3389      3386      3388
      3384      3390      3384      3391      3386      3392      3386      3393
      3394      3395      3396      3397      3401      3402      3403      3404
      3396      3394      3394      3401      3394      3403      3396      3398
      3396      3399      3396      3400      3401      3406      3403      3405
      3401      3407      3401      3408      3403      3409      3403      3410
      3411      3412      3413      3414      3418      3419      3420      3421
      3413      3411      3411      3418      3411      3420      3413      3415
      3413      3416      3413      3417      3418      3423      3420      3422
      3418      3424      3418      3425      3420      3426      3420      3427
      3428      3429      3430      3431      3435      3436      3437      3438
      3430      3428      3428      3435      3428      3437      3430      3432
      3430      3433      3430      3434      3435      3440      3437      3439
      3435      3441      3435      3442      3437      3443      3437      3444
      3445      3446      3447      3448      3452      3453      3454      3455
      3447      3445      3445      3452      3445      3454      3447      3449
      3447      3450      3447      3451      3452      3457      3454      3456
      3452      3458      3452      3459      3454      3460      3454      3461
      3462      3463      3464      3465      3469      3470      3471      3472
      3464      3462      3462      3469      3462      3471      3464      3466
      3464      3467      3464      3468      3469      3474      3471      3473
      3469      3475      3469      3476      3471      3477      3471      3478
      3479      3480      3481      3482      3486      3487      3488      3489
      3481      3479      3479      3486      3479      3488      3481      3483
      3481      3484      3481      3485      3486      3491      3488      3490
      3486      3492      3486      3493      3488      3494      3488      3495
      3496      3497      3498      3499      3503      3504      3505      3506
      3498      3496      3496      3503      3496      3505      3498      3500
      3498      3501      3498      3502      3503      3508      3505      3507
      3503      3509      3503      3510      3505      3511      3505      3512
      3513      3514      3515      3516      3520      3521      3522      3523
      3515      3513      3513      3520      3513      3522      3515      3517
      3515      3518      3515      3519      3520      3525      3522      3524
      3520      3526      3520      3527      3522      3528      3522      3529
      3530      3531      3532      3533      3537      3538      3539      3540
      3532      3530      3530      3537      3530      3539      3532      3534
      3532      3535      3532      3536      3537      3542      3539      3541
      3537      3543      3537      3544      3539      3545      3539      3546
      3547      3548      3549      3550      3554      3555      3556      3557
      3549      3547      3547      3554      3547      3556      3549      3551
      3549      3552      3549      3553      3554      3559      3556      3558
      3554      3560      3554      3561      3556      3562      3556      3563
      3564      3565      3566      3567      3571      3572      3573      3574
      3566      3564      3564      3571      3564      3573      3566      3568
      3566      3569      3566      3570      3571      3576      3573      3575
      3571      3577      3571      3578      3573      3579      3573      3580
      3581      3582      3583      3584      3588      3589      3590      3591
      3583      3581      3581      3588      3581      3590      3583      3585
      3583      3586      3583      3587      3588      3593      3590      3592
      3588      3594      3588      3595      3590      3596      3590      3597
      3598      3599      3600      3601      3605      3606      3607      3608
      3600      3598      3598      3605      3598      3607      3600      3602
      3600      3603      3600      3604      3605      3610      3607      3609
      3605      3611      3605      3612      3607      3613      3607      3614
      3615      3616      3617      3618      3622      3623      3624      3625
      3617      3615      3615      3622      3615      3624      3617      3619
      3617      3620      3617      3621      3622      3627      3624      3626
      3622      3628      3622      3629      3624      3630      3624      3631
      3632      3633      3634      3635      3639      3640      3641      3642
      3634      3632      3632      3639      3632      3641      3634      3636
      3634      3637      3634      3638      3639      3644      3641      3643
      3639      3645      3639      3646      3641      3647      3641      3648
      3649      3650      3651      3652      3656      3657      3658      3659
      3651      3649      3649      3656      3649      3658      3651      3653
      3651      3654      3651      3655      3656      3661      3658      3660
      3656      3662      3656      3663      3658      3664      3658      3665
      3666      3667      3668      3669      3673      3674      3675      3676
      3668      3666      3666      3673      3666      3675      3668      3670
      3668      3671      3668      3672      3673      3678      3675      3677
      3673      3679      3673      3680      3675      3681      3675      3682
      3683      3684      3685      3686      3690      3691      3692      3693
      3685      3683      3683      3690      3683      3692      3685      3687
      3685      3688      3685      3689      3690      3695      3692      3694
      3690      3696      3690      3697      3692      3698      3692      3699
      3700      3701      3702      3703      3707      3708      3709      3710
      3702      3700      3700      3707      3700      3709      3702      3704
      3702      3705      3702      3706      3707      3712      3709      3711
      3707      3713      3707      3714      3709      3715      3709      3716
      3717      3718      3719      3720      3724      3725      3726      3727
      3719      3717      3717      3724      3717      3726      3719      3721
      3719      3722      3719      3723      3724      3729      3726      3728
      3724      3730      3724      3731      3726      3732      3726      3733
      3734      3735      3736      3737      3741      3742      3743      3744
      3736      3734      3734      3741      3734      3743      3736      3738
      3736      3739      3736      3740      3741      3746      3743      3745
      3741      3747      3741      3748      3743      3749      3743      3750
      3751      3752      3753      3754      3758      3759      3760      3761
      3753      3751      3751      3758      3751      3760      3753      3755
      3753      3756      3753      3757      3758      3763      3760      3762
      3758      3764      3758      3765      3760      3766      3760      3767
      3768      3769      3770      3771      3775      3776      3777      3778
      3770      3768      3768      3775      3768      3777      3770      3772
      3770      3773      3770      3774      3775      3780      3777      3779
      3775      3781      3775      3782      3777      3783      3777      3784
      3785      3786      3787      3788      3792      3793      3794      3795
      3787      3785      3785      3792      3785      3794      3787      3789
      3787      3790      3787      3791      3792      3797      3794      3796
      3792      3798      3792      3799      3794      3800      3794      3801
      3802      3803      3804      3805      3809      3810      3811      3812
      3804      3802      3802      3809      3802      3811      3804      3806
      3804      3807      3804      3808      3809      3814      3811      3813
      3809      3815      3809      3816      3811      3817      3811      3818
      3819      3820      3821      3822      3826      3827      3828      3829
      3821      3819      3819      3826      3819      3828      3821      3823
      3821      3824      3821      3825      3826      3831      3828      3830
      3826      3832      3826      3833      3828      3834      3828      3835
      3836      3837      3838      3839      3843      3844      3845      3846
      3838      3836      3836      3843      3836      3845      3838      3840
      3838      3841      3838      3842      3843      3848      3845      3847
      3843      3849      3843      3850      3845      3851      3845      3852
      3853      3854      3855      3856      3860      3861      3862      3863
      3855      3853      3853      3860      3853      3862      3855      3857
      3855      3858      3855      3859      3860      3865      3862      3864
      3860      3866      3860      3867      3862      3868      3862      3869
      3870      3871      3872      3873      3877      3878      3879      3880
      3872      3870      3870      3877      3870      3879      3872      3874
      3872      3875      3872      3876      3877      3882      3879      3881
      3877      3883      3877      3884      3879      3885      3879      3886
      3887      3888      3889      3890      3894      3895      3896      3897
      3889      3887      3887      3894      3887      3896      3889      3891
      3889      3892      3889      3893      3894      3899      3896      3898
      3894      3900      3894      3901      3896      3902      3896      3903
      3904      3905      3906      3907      3911      3912      3913      3914
      3906      3904      3904      3911      3904      3913      3906      3908
      3906      3909      3906      3910      3911      3916      3913      3915
      3911      3917      3911      3918      3913      3919      3913      3920
      3921      3922      3923      3924      3928      3929      3930      3931
      3923      3921      3921      3928      3921      3930      3923      3925
      3923      3926      3923      3927      3928      3933      3930      3932
      3928      3934      3928      3935      3930      3936      3930      3937
      3938      3939      3940      3941      3945      3946      3947      3948
      3940      3938      3938      3945      3938      3947      3940      3942
      3940      3943      3940      3944      3945      3950      3947      3949
      3945      3951      3945      3952      3947      3953      3947      3954
      3955      3956      3957      3958      3962      3963      3964      3965
      3957      3955      3955      3962      3955      3964      3957      3959
      3957      3960      3957      3961      3962      3967      3964      3966
      3962      3968      3962      3969      3964      3970      3964      3971
      3972      3973      3974      3975      3979      3980      3981      3982
      3974      3972      3972      3979      3972      3981      3974      3976
      3974      3977      3974      3978      3979      3984      3981      3983
      3979      3985      3979      3986      3981      3987      3981      3988
      3989      3990      3991      3992      3996      3997      3998      3999
      3991      3989      3989      3996      3989      3998      3991      3993
      3991      3994      3991      3995      3996      4001      3998      4000
      3996      4002      3996      4003      3998      4004      3998      4005
      4006      4007      4008      4009      4013      4014      4015      4016
      4008      4006      4006      4013      4006      4015      4008      4010
      4008      4011      4008      4012      4013      4018      4015      4017
      4013      4019      4013      4020      4015      4021      4015      4022
      4023      4024      4025      4026      4030      4031      4032      4033
      4025      4023      4023      4030      4023      4032      4025      4027
      4025      4028      4025      4029      4030      4035      4032      4034
      4030      4036      4030      4037      4032      4038      4032      4039
      4040      4041      4042      4043      4047      4048      4049      4050
      4042      4040      4040      4047      4040      4049      4042      4044
      4042      4045      4042      4046      4047      4052      4049      4051
      4047      4053      4047      4054      4049      4055      4049      4056
      4057      4058      4059      4060      4064      4065      4066      4067
      4059      4057      4057      4064      4057      4066      4059      4061
      4059      4062      4059      4063      4064      4069      4066      4068
      4064      4070      4064      4071      4066      4072      4066      4073
      4074      4075      4076      4077      4081      4082      4083      4084
      4076      4074      4074      4081      4074      4083      4076      4078
      4076      4079      4076      4080      4081      4086      4083      4085
      4081      4087      4081      4088      4083      4089      4083      4090
      4091      4092      4093      4094      4098      4099      4100      4101
      4093      4091      4091      4098      4091      4100      4093      4095
      4093      4096      4093      4097      4098      4103      4100      4102
      4098      4104      4098      4105      4100      4106      4100      4107
      4108      4109      4110      4111      4115      4116      4117      4118
      4110      4108      4108      4115      4108      4117      4110      4112
      4110      4113      4110      4114      4115      4120      4117      4119
      4115      4121      4115      4122      4117      4123      4117      4124
      4125      4126      4127      4128      4132      4133      4134      4135
      4127      4125      4125      4132      4125      4134      4127      4129
      4127      4130      4127      4131      4132      4137      4134      4136
      4132      4138      4132      4139      4134      4140      4134      4141
      4142      4143      4144      4145      4149      4150      4151      4152
      4144      4142      4142      4149      4142      4151      4144      4146
      4144      4147      4144      4148      4149      4154      4151      4153
      4149      4155      4149      4156      4151      4157      4151      4158
      4159      4160      4161      4162      4166      4167      4168      4169
      4161      4159      4159      4166      4159      4168      4161      4163
      4161      4164      4161      4165      4166      4171      4168      4170
      4166      4172      4166      4173      4168      4174      4168      4175
      4176      4177      4178      4179      4183      4184      4185      4186
      4178      4176      4176      4183      4176      4185      4178      4180
      4178      4181      4178      4182      4183      4188      4185      4187
      4183      4189      4183      4190      4185      4191      4185      4192
      4193      4194      4195      4196      4200      4201      4202      4203
      4195      4193      4193      4200      4193      4202      4195      4197
      4195      4198      4195      4199      4200      4205      4202      4204
      4200      4206      4200      4207      4202      4208      4202      4209
      4210      4211      4212      4213      4214      4215      4216      4217
      4218      4219      4220      4221      4222      4223      4224      4225
      4226      4227      4228      4229      4230      4231      4232      4233
      4234      4235      4236      4237      4238      4239      4240      4241
      4242      4243      4244      4245      4246      4247      4248      4249
      4250      4251      4252      4253      4254      4255      4256      4257
      4258      4259      4260      4261      4262      4263      4264      4265
      4266      4267      4210      4212      4210      4254      4210      4268
      4212      4214      4212      4269      4214      4216      4214      4224
      4216      4218      4216      4256      4218      4220      4218      4242
      4220      4222      4220      4234      4222      4224      4222      4270
      4224      4226      4226      4228      4226      4230      4226      4232
      4234      4236      4234      4238      4234      4240      4242      4244
      4242      4271      4244      4246      4244      4272      4246      4248
      4246      4256      4248      4250      4248      4260      4250      4252
      4250      4273      4252      4254      4252      4258      4254      4256
      4258      4274      4260      4262      4260      4264      4260      4266
      4275      4228      4276      4228      4277      4230      4278      4230
      4279      4232      4280      4232      4281      4236      4282      4236
      4283      4238      4284      4238      4285      4240      4286      4240
      4287      4258      4288      4258      4289      4262      4290      4262
      4291      4264      4292      4264      4293      4266      4294      4266
      4295      4296      4297      4298      4299      4300      4301      4302
      4303      4304      4305      4306      4307      4308      4309      4310
      4311      4312      4313      4314      4315      4316      4317      4318
      4319      4320      4321      4322      4323      4324      4325      4326
      4327      4328      4329      4330      4331      4332      4333      4334
      4335      4336      4337      4338      4339      4340      4341      4342
      4343      4344      4345      4346      4347      4348      4349      4350
      4351      4352      4295      4297      4295      4339      4295      4353
      4297      4299      4297      4354      4299      4301      4299      4309
      4301      4303      4301      4341      4303      4305      4303      4327
      4305      4307      4305      4319      4307      4309      4307      4355
      4309      4311      4311      4313      4311      4315      4311      4317
      4319      4321      4319      4323      4319      4325      4327      4329
      4327      4356      4329      4331      4329      4357      4331      4333
      4331      4341      4333      4335      4333      4345      4335      4337
      4335      4358      4337      4339      4337      4343      4339      4341
      4343      4359      4345      4347      4345      4349      4345      4351
      4360      4313      4361      4313      4362      4315      4363      4315
      4364      4317      4365      4317      4366      4321      4367      4321
      4368      4323      4369      4323      4370      4325      4371      4325
      4372      4343      4373      4343      4374      4347      4375      4347
      4376      4349      4377      4349      4378      4351      4379      4351
      4380      4381      4382      4383      4384      4385      4386      4387
      4388      4389      4390      4391      4392      4393      4394      4395
      4396      4397      4398      4399      4400      4401      4402      4403
      4404      4405      4406      4407      4408      4409      4410      4411
      4412      4413      4414      4415      4416      4417      4418      4419
      4420      4421      4422      4423      4424      4425      4426      4427
      4428      4429      4430      4431      4432      4433      4434      4435
      4436      4437      4380      4382      4380      4424      4380      4438
      4382      4384      4382      4439      4384      4386      4384      4394
      4386      4388      4386      4426      4388      4390      4388      4412
      4390      4392      4390      4404      4392      4394      4392      4440
      4394      4396      4396      4398      4396      4400      4396      4402
      4404      4406      4404      4408      4404      4410      4412      4414
      4412      4441      4414      4416      4414      4442      4416      4418
      4416      4426      4418      4420      4418      4430      4420      4422
      4420      4443      4422      4424      4422      4428      4424      4426
      4428      4444      4430      4432      4430      4434      4430      4436
      4445      4398      4446      4398      4447      4400      4448      4400
      4449      4402      4450      4402      4451      4406      4452      4406
      4453      4408      4454      4408      4455      4410      4456      4410
      4457      4428      4458      4428      4459      4432      4460      4432
      4461      4434      4462      4434      4463      4436      4464      4436
      4465      4466      4467      4468      4469      4470      4471      4472
      4473      4474      4475      4476      4477      4478      4479      4480
      4481      4482      4483      4484      4485      4486      4487      4488
      4489      4490      4491      4492      4493      4494      4495      4496
      4497      4498      4499      4500      4501      4502      4503      4504
      4505      4506      4507      4508      4509      4510      4511      4512
      4513      4514      4515      4516      4517      4518      4519      4520
      4521      4522      4465      4467      4465      4509      4465      4523
      4467      4469      4467      4524      4469      4471      4469      4479
      4471      4473      4471      4511      4473      4475      4473      4497
      4475      4477      4475      4489      4477      4479      4477      4525
      4479      4481      4481      4483      4481      4485      4481      4487
      4489      4491      4489      4493      4489      4495      4497      4499
      4497      4526      4499      4501      4499      4527      4501      4503
      4501      4511      4503      4505      4503      4515      4505      4507
      4505      4528      4507      4509      4507      4513      4509      4511
      4513      4529      4515      4517      4515      4519      4515      4521
      4530      4483      4531      4483      4532      4485      4533      4485
      4534      4487      4535      4487      4536      4491      4537      4491
      4538      4493      4539      4493      4540      4495      4541      4495
      4542      4513      4543      4513      4544      4517      4545      4517
      4546      4519      4547      4519      4548      4521      4549      4521
      4550      4551      4552      4553      4554      4555      4556      4557
      4558      4559      4560      4561      4562      4563      4564      4565
      4566      4567      4568      4569      4570      4571      4572      4573
      4574      4575      4576      4577      4578      4579      4580      4581
      4582      4583      4584      4585      4586      4587      4588      4589
      4590      4591      4592      4593      4594      4595      4596      4597
      4598      4599      4600      4601      4602      4603      4604      4605
      4606      4607      4550      4552      4550      4594      4550      4608
      4552      4554      4552      4609      4554      4556      4554      4564
      4556      4558      4556      4596      4558      4560      4558      4582
      4560      4562      4560      4574      4562      4564      4562      4610
      4564      4566      4566      4568      4566      4570      4566      4572
      4574      4576      4574      4578      4574      4580      4582      4584
      4582      4611      4584      4586      4584      4612      4586      4588
      4586      4596      4588      4590      4588      4600      4590      4592
      4590      4613      4592      4594      4592      4598      4594      4596
      4598      4614      4600      4602      4600      4604      4600      4606
      4615      4568      4616      4568      4617      4570      4618      4570
      4619      4572      4620      4572      4621      4576      4622      4576
      4623      4578      4624      4578      4625      4580      4626      4580
      4627      4598      4628      4598      4629      4602      4630      4602
      4631      4604      4632      4604      4633      4606      4634      4606
      4635      4636      4637      4638      4639      4640      4641      4642
      4643      4644      4645      4646      4647      4648      4649      4650
      4651      4652      4653      4654      4655      4656      4657      4658
      4659      4660      4661      4662      4663      4664      4665      4666
      4667      4668      4669      4670      4671      4672      4673      4674
      4675      4676      4677      4678      4679      4680      4681      4682
      4683      4684      4685      4686      4687      4688      4689      4690
      4691      4692      4635      4637      4635      4679      4635      4693
      4637      4639      4637      4694      4639      4641      4639      4649
      4641      4643      4641      4681      4643      4645      4643      4667
      4645      4647      4645      4659      4647      4649      4647      4695
      4649      4651      4651      4653      4651      4655      4651      4657
      4659      4661      4659      4663      4659      4665      4667      4669
      4667      4696      4669      4671      4669      4697      4671      4673
      4671      4681      4673      4675      4673      4685      4675      4677
      4675      4698      4677      4679      4677      4683      4679      4681
      4683      4699      4685      4687      4685      4689      4685      4691
      4700      4653      4701      4653      4702      4655      4703      4655
      4704      4657      4705      4657      4706      4661      4707      4661
      4708      4663      4709      4663      4710      4665      4711      4665
      4712      4683      4713      4683      4714      4687      4715      4687
      4716      4689      4717      4689      4718      4691      4719      4691
      4720      4721      4722      4723      4720      4722      4722      4724
      4722      4725      4720      4726      4720      4727      4720      4728
      4722      4729      4722      4730      4731      4732      4733      4734
      4731      4733      4733      4735      4733      4736      4731      4737
      4731      4738      4731      4739      4733      4740      4733      4741
      4742      4743      4744      4745      4742      4744      4744      4746
      4744      4747      4742      4748      4742      4749      4742      4750
      4744      4751      4744      4752      4753      4754      4755      4756
      4753      4755      4755      4757      4755      4758      4753      4759
      4753      4760      4753      4761      4755      4762      4755      4763
      4764      4765      4766      4767      4764      4766      4766      4768
      4766      4769      4764      4770      4764      4771      4764      4772
      4766      4773      4766      4774      4775      4776      4777      4778
      4775      4777      4777      4779      4777      4780      4775      4781
      4775      4782      4775      4783      4777      4784      4777      4785
      4786      4787      4788      4789      4786      4788      4788      4790
      4788      4791      4786      4792      4786      4793      4786      4794
      4788      4795      4788      4796      4797      4798      4799      4800
      4797      4799      4799      4801      4799      4802      4797      4803
      4797      4804      4797      4805      4799      4806      4799      4807
      4808      4809      4810      4811      4808      4810      4810      4812
      4810      4813      4808      4814      4808      4815      4808      4816
      4810      4817      4810      4818      4819      4820      4821      4822
      4819      4821      4821      4823      4821      4824      4819      4825
      4819      4826      4819      4827      4821      4828      4821      4829
      4830      4831      4832      4833      4830      4832      4832      4834
      4832      4835      4830      4836      4830      4837      4830      4838
      4832      4839      4832      4840      4841      4842      4843      4844
      4841      4843      4843      4845      4843      4846      4841      4847
      4841      4848      4841      4849      4843      4850      4843      4851
      4852      4853      4854      4855      4852      4854      4854      4856
      4854      4857      4852      4858      4852      4859      4852      4860
      4854      4861      4854      4862      4863      4864      4865      4866
      4863      4865      4865      4867      4865      4868      4863      4869
      4863      4870      4863      4871      4865      4872      4865      4873
      4874      4875      4876      4877      4874      4876      4876      4878
      4876      4879      4874      4880      4874      4881      4874      4882
      4876      4883      4876      4884      4885      4886      4887      4888
      4885      4887      4887      4889      4887      4890      4885      4891
      4885      4892      4885      4893      4887      4894      4887      4895
      4896      4897      4898      4899      4896      4898      4898      4900
      4898      4901      4896      4902      4896      4903      4896      4904
      4898      4905      4898      4906      4907      4908      4909      4910
      4907      4909      4909      4911      4909      4912      4907      4913
      4907      4914      4907      4915      4909      4916      4909      4917
      4918      4919      4920      4921      4918      4920      4920      4922
      4920      4923      4918      4924      4918      4925      4918      4926
      4920      4927      4920      4928      4929      4930      4931      4932
      4929      4931      4931      4933      4931      4934      4929      4935
      4929      4936      4929      4937      4931      4938      4931      4939
      4940      4941      4942      4943      4940      4942      4942      4944
      4942      4945      4940      4946      4940      4947      4940      4948
      4942      4949      4942      4950      4951      4952      4953      4954
      4951      4953      4953      4955      4953      4956      4951      4957
      4951      4958      4951      4959      4953      4960      4953      4961
      4962      4963      4964      4965      4962      4964      4964      4966
      4964      4967      4962      4968      4962      4969      4962      4970
      4964      4971      4964      4972      4973      4974      4975      4976
      4973      4975      4975      4977      4975      4978      4973      4979
      4973      4980      4973      4981      4975      4982      4975      4983
      4984      4985      4986      4987      4984      4986      4986      4988
      4986      4989      4984      4990      4984      4991      4984      4992
      4986      4993      4986      4994      4995      4996      4997      4998
      4995      4997      4997      4999      4997      5000      4995      5001
      4995      5002      4995      5003      4997      5004      4997      5005
      5006      5007      5008      5009      5006      5008      5008      5010
      5008      5011      5006      5012      5006      5013      5006      5014
      5008      5015      5008      5016      5017      5018      5019      5020
      5017      5019      5019      5021      5019      5022      5017      5023
      5017      5024      5017      5025      5019      5026      5019      5027
      5028      5029      5030      5031      5028      5030      5030      5032
      5030      5033      5028      5034      5028      5035      5028      5036
      5030      5037      5030      5038      5039      5040      5041      5042
      5039      5041      5041      5043      5041      5044      5039      5045
      5039      5046      5039      5047      5041      5048      5041      5049
      5050      5051      5052      5053      5050      5052      5052      5054
      5052      5055      5050      5056      5050      5057      5050      5058
      5052      5059      5052      5060      5061      5062      5063      5064
      5061      5063      5063      5065      5063      5066      5061      5067
      5061      5068      5061      5069      5063      5070      5063      5071
      5072      5073      5074      5075      5072      5074      5074      5076
      5074      5077      5072      5078      5072      5079      5072      5080
      5074      5081      5074      5082      5083      5084      5085      5086
      5083      5085      5085      5087      5085      5088      5083      5089
      5083      5090      5083      5091      5085      5092      5085      5093
      5094      5095      5096      5097      5094      5096      5096      5098
      5096      5099      5094      5100      5094      5101      5094      5102
      5096      5103      5096      5104      5105      5106      5107      5108
      5105      5107      5107      5109      5107      5110      5105      5111
      5105      5112      5105      5113      5107      5114      5107      5115
      5116      5117      5118      5119      5116      5118      5118      5120
      5118      5121      5116      5122      5116      5123      5116      5124
      5118      5125      5118      5126      5127      5128      5129      5130
      5127      5129      5129      5131      5129      5132      5127      5133
      5127      5134      5127      5135      5129      5136      5129      5137
      5138      5139      5140      5141      5138      5140      5140      5142
      5140      5143      5138      5144      5138      5145      5138      5146
      5140      5147      5140      5148      5149      5150      5151      5152
      5149      5151      5151      5153      5151      5154      5149      5155
      5149      5156      5149      5157      5151      5158      5151      5159
      5160      5161      5162      5163      5160      5162      5162      5164
      5162      5165      5160      5166      5160      5167      5160      5168
      5162      5169      5162      5170      5171      5172      5173      5174
      5171      5173      5173      5175      5173      5176      5171      5177
      5171      5178      5171      5179      5173      5180      5173      5181
      5182      5183      5184      5185      5182      5184      5184      5186
      5184      5187      5182      5188      5182      5189      5182      5190
      5184      5191      5184      5192      5193      5194      5195      5196
      5193      5195      5195      5197      5195      5198      5193      5199
      5193      5200      5193      5201      5195      5202      5195      5203
      5204      5205      5206      5207      5204      5206      5206      5208
      5206      5209      5204      5210      5204      5211      5204      5212
      5206      5213      5206      5214      5215      5216      5217      5218
      5215      5217      5217      5219      5217      5220      5215      5221
      5215      5222      5215      5223      5217      5224      5217      5225
      5226      5227      5228      5229      5226      5228      5228      5230
      5228      5231      5226      5232      5226      5233      5226      5234
      5228      5235      5228      5236      5237      5238      5239      5240
      5237      5239      5239      5241      5239      5242      5237      5243
      5237      5244      5237      5245      5239      5246      5239      5247
      5248      5249      5250      5251      5248      5250      5250      5252
      5250      5253      5248      5254      5248      5255      5248      5256
      5250      5257      5250      5258      5259      5260      5261      5262
      5259      5261      5261      5263      5261      5264      5259      5265
      5259      5266      5259      5267      5261      5268      5261      5269
      5270      5271      5272      5273      5270      5272      5272      5274
      5272      5275      5270      5276      5270      5277      5270      5278
      5272      5279      5272      5280      5281      5282      5283      5284
      5281      5283      5283      5285      5283      5286      5281      5287
      5281      5288      5281      5289      5283      5290      5283      5291
      5292      5293      5294      5295      5292      5294      5294      5296
      5294      5297      5292      5298      5292      5299      5292      5300
      5294      5301      5294      5302      5303      5304      5305      5306
      5303      5305      5305      5307      5305      5308      5303      5309
      5303      5310      5303      5311      5305      5312      5305      5313
      5314      5315      5316      5317      5314      5316      5316      5318
      5316      5319      5314      5320      5314      5321      5314      5322
      5316      5323      5316      5324      5325      5326      5327      5328
      5325      5327      5327      5329      5327      5330      5325      5331
      5325      5332      5325      5333      5327      5334      5327      5335
      5336      5337      5338      5339      5336      5338      5338      5340
      5338      5341      5336      5342      5336      5343      5336      5344
      5338      5345      5338      5346      5347      5348      5349      5350
      5347      5349      5349      5351      5349      5352      5347      5353
      5347      5354      5347      5355      5349      5356      5349      5357
      5358      5359      5360      5361      5358      5360      5360      5362
      5360      5363      5358      5364      5358      5365      5358      5366
      5360      5367      5360      5368      5369      5370      5371      5372
      5369      5371      5371      5373      5371      5374      5369      5375
      5369      5376      5369      5377      5371      5378      5371      5379
      5380      5381      5382      5383      5380      5382      5382      5384
      5382      5385      5380      5386      5380      5387      5380      5388
      5382      5389      5382      5390      5391      5392      5393      5394
      5391      5393      5393      5395      5393      5396      5391      5397
      5391      5398      5391      5399      5393      5400      5393      5401
      5402      5403      5404      5405      5402      5404      5404      5406
      5404      5407      5402      5408      5402      5409      5402      5410
      5404      5411      5404      5412      5413      5414      5415      5416
      5413      5415      5415      5417      5415      5418      5413      5419
      5413      5420      5413      5421      5415      5422      5415      5423
      5424      5425      5426      5427      5424      5426      5426      5428
      5426      5429      5424      5430      5424      5431      5424      5432
      5426      5433      5426      5434      5435      5436      5437      5438
      5435      5437      5437      5439      5437      5440      5435      5441
      5435      5442      5435      5443      5437      5444      5437      5445
      5446      5447      5448      5449      5446      5448      5448      5450
      5448      5451      5446      5452      5446      5453      5446      5454
      5448      5455      5448      5456      5457      5458      5459      5460
      5457      5459      5459      5461      5459      5462      5457      5463
      5457      5464      5457      5465      5459      5466      5459      5467
      5468      5469      5470      5471      5468      5470      5470      5472
      5470      5473      5468      5474      5468      5475      5468      5476
      5470      5477      5470      5478      5479      5480      5481      5482
      5479      5481      5481      5483      5481      5484      5479      5485
      5479      5486      5479      5487      5481      5488      5481      5489
      5490      5491      5492      5493      5490      5492      5492      5494
      5492      5495      5490      5496      5490      5497      5490      5498
      5492      5499      5492      5500      5501      5502      5503      5504
      5501      5503      5503      5505      5503      5506      5501      5507
      5501      5508      5501      5509      5503      5510      5503      5511
      5512      5513      5514      5515      5512      5514      5514      5516
      5514      5517      5512      5518      5512      5519      5512      5520
      5514      5521      5514      5522      5523      5524      5525      5526
      5523      5525      5525      5527      5525      5528      5523      5529
      5523      5530      5523      5531      5525      5532      5525      5533
      5534      5535      5536      5537      5534      5536      5536      5538
      5536      5539      5534      5540      5534      5541      5534      5542
      5536      5543      5536      5544      5545      5546      5547      5548
      5545      5547      5547      5549      5547      5550      5545      5551
      5545      5552      5545      5553      5547      5554      5547      5555
      5556      5557      5558      5559      5556      5558      5558      5560
      5558      5561      5556      5562      5556      5563      5556      5564
      5558      5565      5558      5566      5567      5568      5569      5570
      5567      5569      5569      5571      5569      5572      5567      5573
      5567      5574      5567      5575      5569      5576      5569      5577
      5578      5579      5580      5581      5578      5580      5580      5582
      5580      5583      5578      5584      5578      5585      5578      5586
      5580      5587      5580      5588      5589      5590      5591      5592
      5589      5591      5591      5593      5591      5594      5589      5595
      5589      5596      5589      5597      5591      5598      5591      5599
      5600      5601      5602      5603      5600      5602      5602      5604
      5602      5605      5600      5606      5600      5607      5600      5608
      5602      5609      5602      5610      5611      5612      5613      5614
      5611      5613      5613      5615      5613      5616      5611      5617
      5611      5618      5611      5619      5613      5620      5613      5621
      5622      5623      5624      5625      5622      5624      5624      5626
      5624      5627      5622      5628      5622      5629      5622      5630
      5624      5631      5624      5632      5633      5634      5635      5636
      5633      5635      5635      5637      5635      5638      5633      5639
      5633      5640      5633      5641      5635      5642      5635      5643
      5644      5645      5646      5647      5644      5646      5646      5648
      5646      5649      5644      5650      5644      5651      5644      5652
      5646      5653      5646      5654      5655      5656      5657      5658
      5655      5657      5657      5659      5657      5660      5655      5661
      5655      5662      5655      5663      5657      5664      5657      5665
      5666      5667      5668      5669      5666      5668      5668      5670
      5668      5671      5666      5672      5666      5673      5666      5674
      5668      5675      5668      5676      5677      5678      5679      5680
      5677      5679      5679      5681      5679      5682      5677      5683
      5677      5684      5677      5685      5679      5686      5679      5687
      5688      5689      5690      5691      5688      5690      5690      5692
      5690      5693      5688      5694      5688      5695      5688      5696
      5690      5697      5690      5698      5699      5700      5701      5702
      5699      5701      5701      5703      5701      5704      5699      5705
      5699      5706      5699      5707      5701      5708      5701      5709
      5710      5711      5712      5713      5710      5712      5712      5714
      5712      5715      5710      5716      5710      5717      5710      5718
      5712      5719      5712      5720      5721      5722      5723      5724
      5721      5723      5723      5725      5723      5726      5721      5727
      5721      5728      5721      5729      5723      5730      5723      5731
      5732      5733      5734      5735      5732      5734      5734      5736
      5734      5737      5732      5738      5732      5739      5732      5740
      5734      5741      5734      5742      5743      5744      5745      5746
      5743      5745      5745      5747      5745      5748      5743      5749
      5743      5750      5743      5751      5745      5752      5745      5753
      5754      5755      5756      5757      5754      5756      5756      5758
      5756      5759      5754      5760      5754      5761      5754      5762
      5756      5763      5756      5764      5765      5766      5767      5768
      5765      5767      5767      5769      5767      5770      5765      5771
      5765      5772      5765      5773      5767      5774      5767      5775
      5776      5777      5778      5779      5776      5778      5778      5780
      5778      5781      5776      5782      5776      5783      5776      5784
      5778      5785      5778      5786      5787      5788      5789      5790
      5787      5789      5789      5791      5789      5792      5787      5793
      5787      5794      5787      5795      5789      5796      5789      5797
      5798      5799      5800      5801      5798      5800      5800      5802
      5800      5803      5798      5804      5798      5805      5798      5806
      5800      5807      5800      5808      5809      5810      5811      5812
      5809      5811      5811      5813      5811      5814      5809      5815
      5809      5816      5809      5817      5811      5818      5811      5819
      5820      5821      5822      5823      5820      5822      5822      5824
      5822      5825      5820      5826      5820      5827      5820      5828
      5822      5829      5822      5830      5831      5832      5833      5834
      5831      5833      5833      5835      5833      5836      5831      5837
      5831      5838      5831      5839      5833      5840      5833      5841
      5842      5843      5844      5845      5842      5844      5844      5846
      5844      5847      5842      5848      5842      5849      5842      5850
      5844      5851      5844      5852      5853      5854      5855      5856
      5853      5855      5855      5857      5855      5858      5853      5859
      5853      5860      5853      5861      5855      5862      5855      5863
      5864      5865      5866      5867      5864      5866      5866      5868
      5866      5869      5864      5870      5864      5871      5864      5872
      5866      5873      5866      5874      5875      5876      5877      5878
      5875      5877      5877      5879      5877      5880      5875      5881
      5875      5882      5875      5883      5877      5884      5877      5885
      5886      5887      5888      5889      5886      5888      5888      5890
      5888      5891      5886      5892      5886      5893      5886      5894
      5888      5895      5888      5896      5897      5898      5899      5900
      5897      5899      5899      5901      5899      5902      5897      5903
      5897      5904      5897      5905      5899      5906      5899      5907
      5908      5909      5910      5911      5908      5910      5910      5912
      5910      5913      5908      5914      5908      5915      5908      5916
      5910      5917      5910      5918      5919      5920      5921      5922
      5919      5921      5921      5923      5921      5924      5919      5925
      5919      5926      5919      5927      5921      5928      5921      5929
      5930      5931      5932      5933      5930      5932      5932      5934
      5932      5935      5930      5936      5930      5937      5930      5938
      5932      5939      5932      5940      5941      5942      5943      5944
      5941      5943      5943      5945      5943      5946      5941      5947
      5941      5948      5941      5949      5943      5950      5943      5951
      5952      5953      5954      5955      5952      5954      5954      5956
      5954      5957      5952      5958      5952      5959      5952      5960
      5954      5961      5954      5962      5963      5964      5965      5966
      5963      5965      5965      5967      5965      5968      5963      5969
      5963      5970      5963      5971      5965      5972      5965      5973
      5974      5975      5976      5977      5974      5976      5976      5978
      5976      5979      5974      5980      5974      5981      5974      5982
      5976      5983      5976      5984      5985      5986      5987      5988
      5985      5987      5987      5989      5987      5990      5985      5991
      5985      5992      5985      5993      5987      5994      5987      5995
      5996      5997      5998      5999      5996      5998      5998      6000
      5998      6001      5996      6002      5996      6003      5996      6004
      5998      6005      5998      6006      6007      6008      6009      6010
      6007      6009      6009      6011      6009      6012      6007      6013
      6007      6014      6007      6015      6009      6016      6009      6017
      6018      6019      6020      6021      6018      6020      6020      6022
      6020      6023      6018      6024      6018      6025      6018      6026
      6020      6027      6020      6028      6029      6030      6031      6032
      6029      6031      6031      6033      6031      6034      6029      6035
      6029      6036      6029      6037      6031      6038      6031      6039
      6040      6041      6042      6043      6040      6042      6042      6044
      6042      6045      6040      6046      6040      6047      6040      6048
      6042      6049      6042      6050      6051      6052      6053      6054
      6051      6053      6053      6055      6053      6056      6051      6057
      6051      6058      6051      6059      6053      6060      6053      6061
      6062      6063      6064      6065      6062      6064      6064      6066
      6064      6067      6062      6068      6062      6069      6062      6070
      6064      6071      6064      6072      6073      6074      6075      6076
      6073      6075      6075      6077      6075      6078      6073      6079
      6073      6080      6073      6081      6075      6082      6075      6083
      6084      6085      6086      6087      6084      6086      6086      6088
      6086      6089      6084      6090      6084      6091      6084      6092
      6086      6093      6086      6094      6095      6096      6097      6098
      6095      6097      6097      6099      6097      6100      6095      6101
      6095      6102      6095      6103      6097      6104      6097      6105
      6106      6107      6108      6109      6106      6108      6108      6110
      6108      6111      6106      6112      6106      6113      6106      6114
      6108      6115      6108      6116      6117      6118      6119      6120
      6117      6119      6119      6121      6119      6122      6117      6123
      6117      6124      6117      6125      6119      6126      6119      6127
      6128      6129      6130      6131      6128      6130      6130      6132
      6130      6133      6128      6134      6128      6135      6128      6136
      6130      6137      6130      6138      6139      6140      6141      6142
      6139      6141      6141      6143      6141      6144      6139      6145
      6139      6146      6139      6147      6141      6148      6141      6149
      6150      6151      6152      6153      6150      6152      6152      6154
      6152      6155      6150      6156      6150      6157      6150      6158
      6152      6159      6152      6160      6161      6162      6163      6164
      6161      6163      6163      6165      6163      6166      6161      6167
      6161      6168      6161      6169      6163      6170      6163      6171
      6172      6173      6174      6175      6172      6174      6174      6176
      6174      6177      6172      6178      6172      6179      6172      6180
      6174      6181      6174      6182      6183      6184      6185      6186
      6183      6185      6185      6187      6185      6188      6183      6189
      6183      6190      6183      6191      6185      6192      6185      6193
      6194      6195      6196      6197      6194      6196      6196      6198
      6196      6199      6194      6200      6194      6201      6194      6202
      6196      6203      6196      6204      6205      6206      6207      6208
      6205      6207      6207      6209      6207      6210      6205      6211
      6205      6212      6205      6213      6207      6214      6207      6215
      6216      6217      6218      6219      6216      6218      6218      6220
      6218      6221      6216      6222      6216      6223      6216      6224
      6218      6225      6218      6226      6227      6228      6229      6230
      6227      6229      6229      6231      6229      6232      6227      6233
      6227      6234      6227      6235      6229      6236      6229      6237
      6238      6239      6240      6241      6238      6240      6240      6242
      6240      6243      6238      6244      6238      6245      6238      6246
      6240      6247      6240      6248      6249      6250      6251      6252
      6249      6251      6251      6253      6251      6254      6249      6255
      6249      6256      6249      6257      6251      6258      6251      6259
      6260      6261      6262      6263      6260      6262      6262      6264
      6262      6265      6260      6266      6260      6267      6260      6268
      6262      6269      6262      6270      6271      6272      6273      6274
      6271      6273      6273      6275      6273      6276      6271      6277
      6271      6278      6271      6279      6273      6280      6273      6281
      6282      6283      6284      6285      6282      6284      6284      6286
      6284      6287      6282      6288      6282      6289      6282      6290
      6284      6291      6284      6292      6293      6294      6295      6296
      6293      6295      6295      6297      6295      6298      6293      6299
      6293      6300      6293      6301      6295      6302      6295      6303
      6304      6305      6306      6307      6304      6306      6306      6308
      6306      6309      6304      6310      6304      6311      6304      6312
      6306      6313      6306      6314      6315      6316      6317      6318
      6315      6317      6317      6319      6317      6320      6315      6321
      6315      6322      6315      6323      6317      6324      6317      6325
      6326      6327      6328      6329      6326      6328      6328      6330
      6328      6331      6326      6332      6326      6333      6326      6334
      6328      6335      6328      6336      6337      6338      6339      6340
      6337      6339      6339      6341      6339      6342      6337      6343
      6337      6344      6337      6345      6339      6346      6339      6347
      6348      6349      6350      6351      6348      6350      6350      6352
      6350      6353      6348      6354      6348      6355      6348      6356
      6350      6357      6350      6358      6359      6360      6361      6362
      6359      6361      6361      6363      6361      6364      6359      6365
      6359      6366      6359      6367      6361      6368      6361      6369
      6370      6371      6372      6373      6370      6372      6372      6374
      6372      6375      6370      6376      6370      6377      6370      6378
      6372      6379      6372      6380      6381      6382      6383      6384
      6381      6383      6383      6385      6383      6386      6381      6387
      6381      6388      6381      6389      6383      6390      6383      6391
      6392      6393      6394      6395      6392      6394      6394      6396
      6394      6397      6392      6398      6392      6399      6392      6400
      6394      6401      6394      6402      6403      6404      6405      6406
      6403      6405      6405      6407      6405      6408      6403      6409
      6403      6410      6403      6411      6405      6412      6405      6413
      6414      6415      6416      6417      6414      6416      6416      6418
      6416      6419      6414      6420      6414      6421      6414      6422
      6416      6423      6416      6424      6425      6426      6427      6428
      6425      6427      6427      6429      6427      6430      6425      6431
      6425      6432      6425      6433      6427      6434      6427      6435
      6436      6437      6438      6439      6436      6438      6438      6440
      6438      6441      6436      6442      6436      6443      6436      6444
      6438      6445      6438      6446      6447      6448      6449      6450
      6447      6449      6449      6451      6449      6452      6447      6453
      6447      6454      6447      6455      6449      6456      6449      6457
      6458      6459      6460      6461      6458      6460      6460      6462
      6460      6463      6458      6464      6458      6465      6458      6466
      6460      6467      6460      6468      6469      6470      6471      6472
      6469      6471      6471      6473      6471      6474      6469      6475
      6469      6476      6469      6477      6471      6478      6471      6479
      6480      6481      6482      6483      6480      6482      6482      6484
      6482      6485      6480      6486      6480      6487      6480      6488
      6482      6489      6482      6490      6491      6492      6493      6494
      6491      6493      6493      6495      6493      6496      6491      6497
      6491      6498      6491      6499      6493      6500      6493      6501
      6502      6503      6504      6505      6502      6504      6504      6506
      6504      6507      6502      6508      6502      6509      6502      6510
      6504      6511      6504      6512      6513      6514      6515      6516
      6513      6515      6515      6517      6515      6518      6513      6519
      6513      6520      6513      6521      6515      6522      6515      6523
      6524      6525      6526      6527      6524      6526      6526      6528
      6526      6529      6524      6530      6524      6531      6524      6532
      6526      6533      6526      6534      6535      6536      6537      6538
      6535      6537      6537      6539      6537      6540      6535      6541
      6535      6542      6535      6543      6537      6544      6537      6545
      6546      6547      6548      6549      6546      6548      6548      6550
      6548      6551      6546      6552      6546      6553      6546      6554
      6548      6555      6548      6556      6557      6558      6559      6560
      6557      6559      6559      6561      6559      6562      6557      6563
      6557      6564      6557      6565      6559      6566      6559      6567
      6568      6569      6570      6571      6568      6570      6570      6572
      6570      6573      6568      6574      6568      6575      6568      6576
      6570      6577      6570      6578      6579      6580      6581      6582
      6579      6581      6581      6583      6581      6584      6579      6585
      6579      6586      6579      6587      6581      6588      6581      6589
      6590      6591      6592      6593      6590      6592      6592      6594
      6592      6595      6590      6596      6590      6597      6590      6598
      6592      6599      6592      6600      6601      6602      6603      6604
      6601      6603      6603      6605      6603      6606      6601      6607
      6601      6608      6601      6609      6603      6610      6603      6611
      6612      6613      6614      6615      6612      6614      6614      6616
      6614      6617      6612      6618      6612      6619      6612      6620
      6614      6621      6614      6622      6623      6624      6625      6626
      6623      6625      6625      6627      6625      6628      6623      6629
      6623      6630      6623      6631      6625      6632      6625      6633
      6634      6635      6636      6637      6634      6636      6636      6638
      6636      6639      6634      6640      6634      6641      6634      6642
      6636      6643      6636      6644      6645      6646      6647      6648
      6645      6647      6647      6649      6647      6650      6645      6651
      6645      6652      6645      6653      6647      6654      6647      6655
      6656      6657      6658      6659      6656      6658      6658      6660
      6658      6661      6656      6662      6656      6663      6656      6664
      6658      6665      6658      6666      6667      6668      6669      6670
      6667      6669      6669      6671      6669      6672      6667      6673
      6667      6674      6667      6675      6669      6676      6669      6677
      6678      6679      6680      6681      6678      6680      6680      6682
      6680      6683      6678      6684      6678      6685      6678      6686
      6680      6687      6680      6688      6689      6690      6691      6692
      6689      6691      6691      6693      6691      6694      6689      6695
      6689      6696      6689      6697      6691      6698      6691      6699
      6700      6701      6702      6703      6700      6702      6702      6704
      6702      6705      6700      6706      6700      6707      6700      6708
      6702      6709      6702      6710      6711      6712      6713      6714
      6711      6713      6713      6715      6713      6716      6711      6717
      6711      6718      6711      6719      6713      6720      6713      6721
      6722      6723      6724      6725      6722      6724      6724      6726
      6724      6727      6722      6728      6722      6729      6722      6730
      6724      6731      6724      6732      6733      6734      6735      6736
      6733      6735      6735      6737      6735      6738      6733      6739
      6733      6740      6733      6741      6735      6742      6735      6743
      6744      6745      6746      6747      6744      6746      6746      6748
      6746      6749      6744      6750      6744      6751      6744      6752
      6746      6753      6746      6754      6755      6756      6757      6758
      6755      6757      6757      6759      6757      6760      6755      6761
      6755      6762      6755      6763      6757      6764      6757      6765
      6766      6767      6768      6769      6766      6768      6768      6770
      6768      6771      6766      6772      6766      6773      6766      6774
      6768      6775      6768      6776      6777      6778      6779      6780
      6777      6779      6779      6781      6779      6782      6777      6783
      6777      6784      6777      6785      6779      6786      6779      6787
      6788      6789      6790      6791      6788      6790      6790      6792
      6790      6793      6788      6794      6788      6795      6788      6796
      6790      6797      6790      6798      6799      6800      6801      6802
      6799      6801      6801      6803      6801      6804      6799      6805
      6799      6806      6799      6807      6801      6808      6801      6809
      6810      6811      6812      6813      6810      6812      6812      6814
      6812      6815      6810      6816      6810      6817      6810      6818
      6812      6819      6812      6820      6821      6822      6823      6824
      6821      6823      6823      6825      6823      6826      6821      6827
      6821      6828      6821      6829      6823      6830      6823      6831
      6832      6833      6834      6835      6832      6834      6834      6836
      6834      6837      6832      6838      6832      6839      6832      6840
      6834      6841      6834      6842      6843      6844      6845      6846
      6843      6845      6845      6847      6845      6848      6843      6849
      6843      6850      6843      6851      6845      6852      6845      6853
      6854      6855      6856      6857      6854      6856      6856      6858
      6856      6859      6854      6860      6854      6861      6854      6862
      6856      6863      6856      6864      6865      6866      6867      6868
      6865      6867      6867      6869      6867      6870      6865      6871
      6865      6872      6865      6873      6867      6874      6867      6875
      6876      6877      6878      6879      6876      6878      6878      6880
      6878      6881      6876      6882      6876      6883      6876      6884
      6878      6885      6878      6886      6887      6888      6889      6890
      6887      6889      6889      6891      6889      6892      6887      6893
      6887      6894      6887      6895      6889      6896      6889      6897
      6898      6899      6900      6901      6898      6900      6900      6902
      6900      6903      6898      6904      6898      6905      6898      6906
      6900      6907      6900      6908      6909      6910      6911      6912
      6909      6911      6911      6913      6911      6914      6909      6915
      6909      6916      6909      6917      6911      6918      6911      6919
      6920      6921      6922      6923      6920      6922      6922      6924
      6922      6925      6920      6926      6920      6927      6920      6928
      6922      6929      6922      6930      6931      6932      6933      6934
      6931      6933      6933      6935      6933      6936      6931      6937
      6931      6938      6931      6939      6933      6940      6933      6941
      6942      6943      6944      6945      6942      6944      6944      6946
      6944      6947      6942      6948      6942      6949      6942      6950
      6944      6951      6944      6952      6953      6954      6955      6956
      6953      6955      6955      6957      6955      6958      6953      6959
      6953      6960      6953      6961      6955      6962      6955      6963
      6964      6965      6966      6967      6964      6966      6966      6968
      6966      6969      6964      6970      6964      6971      6964      6972
      6966      6973      6966      6974      6975      6976      6977      6978
      6975      6977      6977      6979      6977      6980      6975      6981
      6975      6982      6975      6983      6977      6984      6977      6985
      6986      6987      6988      6989      6986      6988      6988      6990
      6988      6991      6986      6992      6986      6993      6986      6994
      6988      6995      6988      6996      6997      6998      6999      7000
      6997      6999      6999      7001      6999      7002      6997      7003
      6997      7004      6997      7005      6999      7006      6999      7007
      7008      7009      7010      7011      7008      7010      7010      7012
      7010      7013      7008      7014      7008      7015      7008      7016
      7010      7017      7010      7018      7019      7020      7021      7022
      7019      7021      7021      7023      7021      7024      7019      7025
      7019      7026      7019      7027      7021      7028      7021      7029
      7030      7031      7032      7033      7030      7032      7032      7034
      7032      7035      7030      7036      7030      7037      7030      7038
      7032      7039      7032      7040      7041      7042      7043      7044
      7041      7043      7043      7045      7043      7046      7041      7047
      7041      7048      7041      7049      7043      7050      7043      7051
      7052      7053      7054      7055      7052      7054      7054      7056
      7054      7057      7052      7058      7052      7059      7052      7060
      7054      7061      7054      7062      7063      7064      7065      7066
      7063      7065      7065      7067      7065      7068      7063      7069
      7063      7070      7063      7071      7065      7072      7065      7073
      7074      7075      7076      7077      7074      7076      7076      7078
      7076      7079      7074      7080      7074      7081      7074      7082
      7076      7083      7076      7084      7085      7086      7087      7088
      7085      7087      7087      7089      7087      7090      7085      7091
      7085      7092      7085      7093      7087      7094      7087      7095
      7096      7097      7098      7099      7096      7098      7098      7100
      7098      7101      7096      7102      7096      7103      7096      7104
      7098      7105      7098      7106      7107      7108      7109      7110
      7107      7109      7109      7111      7109      7112      7107      7113
      7107      7114      7107      7115      7109      7116      7109      7117
      7118      7119      7120      7121      7118      7120      7120      7122
      7120      7123      7118      7124      7118      7125      7118      7126
      7120      7127      7120      7128      7129      7130      7131      7132
      7129      7131      7131      7133      7131      7134      7129      7135
      7129      7136      7129      7137      7131      7138      7131      7139
      7140      7141      7142      7143      7140      7142      7142      7144
      7142      7145      7140      7146      7140      7147      7140      7148
      7142      7149      7142      7150      7151      7152      7153      7154
      7151      7153      7153      7155      7153      7156      7151      7157
      7151      7158      7151      7159      7153      7160      7153      7161
      7162      7163      7164      7165      7162      7164      7164      7166
      7164      7167      7162      7168      7162      7169      7162      7170
      7164      7171      7164      7172      7173      7174      7175      7176
      7173      7175      7175      7177      7175      7178      7173      7179
      7173      7180      7173      7181      7175      7182      7175      7183
      7184      7185      7186      7187      7184      7186      7186      7188
      7186      7189      7184      7190      7184      7191      7184      7192
      7186      7193      7186      7194      7195      7196      7197      7198
      7195      7197      7197      7199      7197      7200      7195      7201
      7195      7202      7195      7203      7197      7204      7197      7205
      7206      7207      7208      7209      7206      7208      7208      7210
      7208      7211      7206      7212      7206      7213      7206      7214
      7208      7215      7208      7216      7217      7218      7219      7220
      7217      7219      7219      7221      7219      7222      7217      7223
      7217      7224      7217      7225      7219      7226      7219      7227
      7228      7229      7230      7231      7228      7230      7230      7232
      7230      7233      7228      7234      7228      7235      7228      7236
      7230      7237      7230      7238      7239      7240      7241      7242
      7239      7241      7241      7243      7241      7244      7239      7245
      7239      7246      7239      7247      7241      7248      7241      7249
      7250      7251      7252      7253      7250      7252      7252      7254
      7252      7255      7250      7256      7250      7257      7250      7258
      7252      7259      7252      7260      7261      7262      7263      7264
      7261      7263      7263      7265      7263      7266      7261      7267
      7261      7268      7261      7269      7263      7270      7263      7271
      7272      7273      7274      7275      7272      7274      7274      7276
      7274      7277      7272      7278      7272      7279      7272      7280
      7274      7281      7274      7282      7283      7284      7285      7286
      7283      7285      7285      7287      7285      7288      7283      7289
      7283      7290      7283      7291      7285      7292      7285      7293
      7294      7295      7296      7297      7294      7296      7296      7298
      7296      7299      7294      7300      7294      7301      7294      7302
      7296      7303      7296      7304      7305      7306      7307      7308
      7305      7307      7307      7309      7307      7310      7305      7311
      7305      7312      7305      7313      7307      7314      7307      7315
      7316      7317      7318      7319      7316      7318      7318      7320
      7318      7321      7316      7322      7316      7323      7316      7324
      7318      7325      7318      7326      7327      7328      7329      7330
      7327      7329      7329      7331      7329      7332      7327      7333
      7327      7334      7327      7335      7329      7336      7329      7337
      7338      7339      7340      7341      7338      7340      7340      7342
      7340      7343      7338      7344      7338      7345      7338      7346
      7340      7347      7340      7348      7349      7350      7351      7352
      7349      7351      7351      7353      7351      7354      7349      7355
      7349      7356      7349      7357      7351      7358      7351      7359
      7360      7361      7362      7363      7360      7362      7362      7364
      7362      7365      7360      7366      7360      7367      7360      7368
      7362      7369      7362      7370      7371      7372      7373      7374
      7371      7373      7373      7375      7373      7376      7371      7377
      7371      7378      7371      7379      7373      7380      7373      7381
      7382      7383      7384      7385      7382      7384      7384      7386
      7384      7387      7382      7388      7382      7389      7382      7390
      7384      7391      7384      7392      7393      7394      7395      7396
      7393      7395      7395      7397      7395      7398      7393      7399
      7393      7400      7393      7401      7395      7402      7395      7403
      7404      7405      7406      7407      7404      7406      7406      7408
      7406      7409      7404      7410      7404      7411      7404      7412
      7406      7413      7406      7414      7415      7416      7417      7418
      7415      7417      7417      7419      7417      7420      7415      7421
      7415      7422      7415      7423      7417      7424      7417      7425
      7426      7427      7428      7429      7426      7428      7428      7430
      7428      7431      7426      7432      7426      7433      7426      7434
      7428      7435      7428      7436      7437      7438      7439      7440
      7437      7439      7439      7441      7439      7442      7437      7443
      7437      7444      7437      7445      7439      7446      7439      7447
      7448      7449      7450      7451      7448      7450      7450      7452
      7450      7453      7448      7454      7448      7455      7448      7456
      7450      7457      7450      7458      7459      7460      7461      7462
      7459      7461      7461      7463      7461      7464      7459      7465
      7459      7466      7459      7467      7461      7468      7461      7469
      7470      7471      7472      7473      7470      7472      7472      7474
      7472      7475      7470      7476      7470      7477      7470      7478
      7472      7479      7472      7480      7481      7482      7483      7484
      7481      7483      7483      7485      7483      7486      7481      7487
      7481      7488      7481      7489      7483      7490      7483      7491
      7492      7493      7494      7495      7492      7494      7494      7496
      7494      7497      7492      7498      7492      7499      7492      7500
      7494      7501      7494      7502      7503      7504      7505      7506
      7503      7505      7505      7507      7505      7508      7503      7509
      7503      7510      7503      7511      7505      7512      7505      7513
      7514      7515      7516      7517      7514      7516      7516      7518
      7516      7519      7514      7520      7514      7521      7514      7522
      7516      7523      7516      7524      7525      7526      7527      7528
      7525      7527      7527      7529      7527      7530      7525      7531
      7525      7532      7525      7533      7527      7534      7527      7535
      7536      7537      7538      7539      7536      7538      7538      7540
      7538      7541      7536      7542      7536      7543      7536      7544
      7538      7545      7538      7546      7547      7548      7549      7550
      7547      7549      7549      7551      7549      7552      7547      7553
      7547      7554      7547      7555      7549      7556      7549      7557
      7558      7559      7560      7561      7558      7560      7560      7562
      7560      7563      7558      7564      7558      7565      7558      7566
      7560      7567      7560      7568      7569      7570      7571      7572
      7569      7571      7571      7573      7571      7574      7569      7575
      7569      7576      7569      7577      7571      7578      7571      7579
      7580      7581      7582      7583      7580      7582      7582      7584
      7582      7585      7580      7586      7580      7587      7580      7588
      7582      7589      7582      7590      7591      7592      7593      7594
      7591      7593      7593      7595      7593      7596      7591      7597
      7591      7598      7591      7599      7593      7600      7593      7601
      7602      7603      7604      7605      7602      7604      7604      7606
      7604      7607      7602      7608      7602      7609      7602      7610
      7604      7611      7604      7612      7613      7614      7615      7616
      7613      7615      7615      7617      7615      7618      7613      7619
      7613      7620      7613      7621      7615      7622      7615      7623
      7624      7625      7626      7627      7624      7626      7626      7628
      7626      7629      7624      7630      7624      7631      7624      7632
      7626      7633      7626      7634      7635      7636      7637      7638
      7635      7637      7637      7639      7637      7640      7635      7641
      7635      7642      7635      7643      7637      7644      7637      7645
      7646      7647      7648      7649      7646      7648      7648      7650
      7648      7651      7646      7652      7646      7653      7646      7654
      7648      7655      7648      7656      7657      7658      7659      7660
      7657      7659      7659      7661      7659      7662      7657      7663
      7657      7664      7657      7665      7659      7666      7659      7667
      7668      7669      7670      7671      7668      7670      7670      7672
      7670      7673      7668      7674      7668      7675      7668      7676
      7670      7677      7670      7678      7679      7680      7681      7682
      7679      7681      7681      7683      7681      7684      7679      7685
      7679      7686      7679      7687      7681      7688      7681      7689
      7690      7691      7692      7693      7690      7692      7692      7694
      7692      7695      7690      7696      7690      7697      7690      7698
      7692      7699      7692      7700      7701      7702      7703      7704
      7701      7703      7703      7705      7703      7706      7701      7707
      7701      7708      7701      7709      7703      7710      7703      7711
      7712      7713      7714      7715      7712      7714      7714      7716
      7714      7717      7712      7718      7712      7719      7712      7720
      7714      7721      7714      7722      7723      7724      7725      7726
      7723      7725      7725      7727      7725      7728      7723      7729
      7723      7730      7723      7731      7725      7732      7725      7733
      7734      7735      7736      7737      7734      7736      7736      7738
      7736      7739      7734      7740      7734      7741      7734      7742
      7736      7743      7736      7744      7745      7746      7747      7748
      7745      7747      7747      7749      7747      7750      7745      7751
      7745      7752      7745      7753      7747      7754      7747      7755
      7756      7757      7758      7759      7756      7758      7758      7760
      7758      7761      7756      7762      7756      7763      7756      7764
      7758      7765      7758      7766      7767      7768      7769      7770
      7767      7769      7769      7771      7769      7772      7767      7773
      7767      7774      7767      7775      7769      7776      7769      7777
      7778      7779      7780      7781      7778      7780      7780      7782
      7780      7783      7778      7784      7778      7785      7778      7786
      7780      7787      7780      7788      7789      7790      7791      7792
      7789      7791      7791      7793      7791      7794      7789      7795
      7789      7796      7789      7797      7791      7798      7791      7799
      7800      7801      7802      7803      7800      7802      7802      7804
      7802      7805      7800      7806      7800      7807      7800      7808
      7802      7809      7802      7810      7811      7812      7813      7814
      7811      7813      7813      7815      7813      7816      7811      7817
      7811      7818      7811      7819      7813      7820      7813      7821
      7822      7823      7824      7825      7822      7824      7824      7826
      7824      7827      7822      7828      7822      7829      7822      7830
      7824      7831      7824      7832      7833      7834      7835      7836
      7833      7835      7835      7837      7835      7838      7833      7839
      7833      7840      7833      7841      7835      7842      7835      7843
      7844      7845      7846      7847      7844      7846      7846      7848
      7846      7849      7844      7850      7844      7851      7844      7852
      7846      7853      7846      7854      7855      7856      7857      7858
      7855      7857      7857      7859      7857      7860      7855      7861
      7855      7862      7855      7863      7857      7864      7857      7865
      7866      7867      7868      7869      7866      7868      7868      7870
      7868      7871      7866      7872      7866      7873      7866      7874
      7868      7875      7868      7876      7877      7878      7879      7880
      7877      7879      7879      7881      7879      7882      7877      7883
      7877      7884      7877      7885      7879      7886      7879      7887
      7888      7889      7890      7891      7888      7890      7890      7892
      7890      7893      7888      7894      7888      7895      7888      7896
      7890      7897      7890      7898      7899      7900      7901      7902
      7899      7901      7901      7903      7901      7904      7899      7905
      7899      7906      7899      7907      7901      7908      7901      7909
      7910      7911      7912      7913      7910      7912      7912      7914
      7912      7915      7910      7916      7910      7917      7910      7918
      7912      7919      7912      7920      7921      7922      7923      7924
      7921      7923      7923      7925      7923      7926      7921      7927
      7921      7928      7921      7929      7923      7930      7923      7931
      7932      7933      7934      7935      7932      7934      7934      7936
      7934      7937      7932      7938      7932      7939      7932      7940
      7934      7941      7934      7942      7943      7944      7945      7946
      7943      7945      7945      7947      7945      7948      7943      7949
      7943      7950      7943      7951      7945      7952      7945      7953
      7954      7955      7956      7957      7954      7956      7956      7958
      7956      7959      7954      7960      7954      7961      7954      7962
      7956      7963      7956      7964      7965      7966      7967      7968
      7965      7967      7967      7969      7967      7970      7965      7971
      7965      7972      7965      7973      7967      7974      7967      7975
      7976      7977      7978      7979      7976      7978      7978      7980
      7978      7981      7976      7982      7976      7983      7976      7984
      7978      7985      7978      7986      7987      7988      7989      7990
      7987      7989      7989      7991      7989      7992      7987      7993
      7987      7994      7987      7995      7989      7996      7989      7997
      7998      7999      8000      8001      7998      8000      8000      8002
      8000      8003      7998      8004      7998      8005      7998      8006
      8000      8007      8000      8008      8009      8010      8011      8012
      8009      8011      8011      8013      8011      8014      8009      8015
      8009      8016      8009      8017      8011      8018      8011      8019
      8020      8021      8022      8023      8020      8022      8022      8024
      8022      8025      8020      8026      8020      8027      8020      8028
      8022      8029      8022      8030      8031      8032      8033      8034
      8031      8033      8033      8035      8033      8036      8031      8037
      8031      8038      8031      8039      8033      8040      8033      8041
      8042      8043      8044      8045      8042      8044      8044      8046
      8044      8047      8042      8048      8042      8049      8042      8050
      8044      8051      8044      8052      8053      8054      8055      8056
      8053      8055      8055      8057      8055      8058      8053      8059
      8053      8060      8053      8061      8055      8062      8055      8063
      8064      8065      8066      8067      8064      8066      8066      8068
      8066      8069      8064      8070      8064      8071      8064      8072
      8066      8073      8066      8074      8075      8076      8077      8078
      8075      8077      8077      8079      8077      8080      8075      8081
      8075      8082      8075      8083      8077      8084      8077      8085
      8086      8087      8088      8089      8086      8088      8088      8090
      8088      8091      8086      8092      8086      8093      8086      8094
      8088      8095      8088      8096      8097      8098      8099      8100
      8097      8099      8099      8101      8099      8102      8097      8103
      8097      8104      8097      8105      8099      8106      8099      8107
      8108      8109      8110      8111      8108      8110      8110      8112
      8110      8113      8108      8114      8108      8115      8108      8116
      8110      8117      8110      8118      8119      8120      8121      8122
      8119      8121      8121      8123      8121      8124      8119      8125
      8119      8126      8119      8127      8121      8128      8121      8129
      8130      8131      8132      8133      8130      8132      8132      8134
      8132      8135      8130      8136      8130      8137      8130      8138
      8132      8139      8132      8140      8141      8142      8143      8144
      8141      8143      8143      8145      8143      8146      8141      8147
      8141      8148      8141      8149      8143      8150      8143      8151
      8152      8153      8154      8155      8152      8154      8154      8156
      8154      8157      8152      8158      8152      8159      8152      8160
      8154      8161      8154      8162      8163      8164      8165      8166
      8163      8165      8165      8167      8165      8168      8163      8169
      8163      8170      8163      8171      8165      8172      8165      8173
      8174      8175      8176      8177      8174      8176      8176      8178
      8176      8179      8174      8180      8174      8181      8174      8182
      8176      8183      8176      8184      8185      8186      8187      8188
      8185      8187      8187      8189      8187      8190      8185      8191
      8185      8192      8185      8193      8187      8194      8187      8195
      8196      8197      8198      8199      8196      8198      8198      8200
      8198      8201      8196      8202      8196      8203      8196      8204
      8198      8205      8198      8206      8207      8208      8209      8210
      8207      8209      8209      8211      8209      8212      8207      8213
      8207      8214      8207      8215      8209      8216      8209      8217
      8218      8219      8220      8221      8218      8220      8220      8222
      8220      8223      8218      8224      8218      8225      8218      8226
      8220      8227      8220      8228      8229      8230      8231      8232
      8229      8231      8231      8233      8231      8234      8229      8235
      8229      8236      8229      8237      8231      8238      8231      8239
      8240      8241      8242      8243      8240      8242      8242      8244
      8242      8245      8240      8246      8240      8247      8240      8248
      8242      8249      8242      8250      8251      8252      8253      8254
      8251      8253      8253      8255      8253      8256      8251      8257
      8251      8258      8251      8259      8253      8260      8253      8261
      8262      8263      8264      8265      8262      8264      8264      8266
      8264      8267      8262      8268      8262      8269      8262      8270
      8264      8271      8264      8272      8273      8274      8275      8276
      8273      8275      8275      8277      8275      8278      8273      8279
      8273      8280      8273      8281      8275      8282      8275      8283
      8284      8285      8286      8287      8284      8286      8286      8288
      8286      8289      8284      8290      8284      8291      8284      8292
      8286      8293      8286      8294      8295      8296      8297      8298
      8295      8297      8297      8299      8297      8300      8295      8301
      8295      8302      8295      8303      8297      8304      8297      8305
      8306      8307      8308      8309      8306      8308      8308      8310
      8308      8311      8306      8312      8306      8313      8306      8314
      8308      8315      8308      8316      8317      8318      8319      8320
      8317      8319      8319      8321      8319      8322      8317      8323
      8317      8324      8317      8325      8319      8326      8319      8327
      8328      8329      8330      8331      8328      8330      8330      8332
      8330      8333      8328      8334      8328      8335      8328      8336
      8330      8337      8330      8338      8339      8340      8341      8342
      8339      8341      8341      8343      8341      8344      8339      8345
      8339      8346      8339      8347      8341      8348      8341      8349
      8350      8351      8352      8353      8350      8352      8352      8354
      8352      8355      8350      8356      8350      8357      8350      8358
      8352      8359      8352      8360      8361      8362      8363      8364
      8361      8363      8363      8365      8363      8366      8361      8367
      8361      8368      8361      8369      8363      8370      8363      8371
      8372      8373      8374      8375      8372      8374      8374      8376
      8374      8377      8372      8378      8372      8379      8372      8380
      8374      8381      8374      8382      8383      8384      8385      8386
      8383      8385      8385      8387      8385      8388      8383      8389
      8383      8390      8383      8391      8385      8392      8385      8393
      8394      8395      8396      8397      8394      8396      8396      8398
      8396      8399      8394      8400      8394      8401      8394      8402
      8396      8403      8396      8404      8405      8406      8407      8408
      8405      8407      8407      8409      8407      8410      8405      8411
      8405      8412      8405      8413      8407      8414      8407      8415
      8416      8417      8418      8419      8416      8418      8418      8420
      8418      8421      8416      8422      8416      8423      8416      8424
      8418      8425      8418      8426      8427      8428      8429      8430
      8427      8429      8429      8431      8429      8432      8427      8433
      8427      8434      8427      8435      8429      8436      8429      8437
      8438      8439      8440      8441      8438      8440      8440      8442
      8440      8443      8438      8444      8438      8445      8438      8446
      8440      8447      8440      8448      8449      8450      8451      8452
      8449      8451      8451      8453      8451      8454      8449      8455
      8449      8456      8449      8457      8451      8458      8451      8459
      8460      8461      8462      8463      8460      8462      8462      8464
      8462      8465      8460      8466      8460      8467      8460      8468
      8462      8469      8462      8470      8471      8472      8473      8474
      8471      8473      8473      8475      8473      8476      8471      8477
      8471      8478      8471      8479      8473      8480      8473      8481
      8482      8483      8484      8485      8482      8484      8484      8486
      8484      8487      8482      8488      8482      8489      8482      8490
      8484      8491      8484      8492      8493      8494      8495      8496
      8493      8495      8495      8497      8495      8498      8493      8499
      8493      8500      8493      8501      8495      8502      8495      8503
      8504      8505      8506      8507      8504      8506      8506      8508
      8506      8509      8504      8510      8504      8511      8504      8512
      8506      8513      8506      8514      8515      8516      8517      8518
      8515      8517      8517      8519      8517      8520      8515      8521
      8515      8522      8515      8523      8517      8524      8517      8525
      8526      8527      8528      8529      8526      8528      8528      8530
      8528      8531      8526      8532      8526      8533      8526      8534
      8528      8535      8528      8536      8537      8538      8539      8540
      8537      8539      8539      8541      8539      8542      8537      8543
      8537      8544      8537      8545      8539      8546      8539      8547
      8548      8549      8550      8551      8548      8550      8550      8552
      8550      8553      8548      8554      8548      8555      8548      8556
      8550      8557      8550      8558      8559      8560      8561      8562
      8559      8561      8561      8563      8561      8564      8559      8565
      8559      8566      8559      8567      8561      8568      8561      8569
      8570      8571      8572      8573      8570      8572      8572      8574
      8572      8575      8570      8576      8570      8577      8570      8578
      8572      8579      8572      8580      8581      8582      8583      8584
      8581      8583      8583      8585      8583      8586      8581      8587
      8581      8588      8581      8589      8583      8590      8583      8591
      8592      8593      8594      8595      8592      8594      8594      8596
      8594      8597      8592      8598      8592      8599      8592      8600
      8594      8601      8594      8602      8603      8604      8605      8606
      8603      8605      8605      8607      8605      8608      8603      8609
      8603      8610      8603      8611      8605      8612      8605      8613
      8614      8615      8616      8617      8614      8616      8616      8618
      8616      8619      8614      8620      8614      8621      8614      8622
      8616      8623      8616      8624      8625      8626      8627      8628
      8625      8627      8627      8629      8627      8630      8625      8631
      8625      8632      8625      8633      8627      8634      8627      8635
      8636      8637      8638      8639      8636      8638      8638      8640
      8638      8641      8636      8642      8636      8643      8636      8644
      8638      8645      8638      8646      8647      8648      8649      8650
      8647      8649      8649      8651      8649      8652      8647      8653
      8647      8654      8647      8655      8649      8656      8649      8657
      8658      8659      8660      8661      8658      8660      8660      8662
      8660      8663      8658      8664      8658      8665      8658      8666
      8660      8667      8660      8668      8669      8670      8671      8672
      8669      8671      8671      8673      8671      8674      8669      8675
      8669      8676      8669      8677      8671      8678      8671      8679
      8680      8681      8682      8683      8680      8682      8682      8684
      8682      8685      8680      8686      8680      8687      8680      8688
      8682      8689      8682      8690      8691      8692      8693      8694
      8691      8693      8693      8695      8693      8696      8691      8697
      8691      8698      8691      8699      8693      8700      8693      8701
      8702      8703      8704      8705      8702      8704      8704      8706
      8704      8707      8702      8708      8702      8709      8702      8710
      8704      8711      8704      8712      8713      8714      8715      8716
      8713      8715      8715      8717      8715      8718      8713      8719
      8713      8720      8713      8721      8715      8722      8715      8723
      8724      8725      8726      8727      8724      8726      8726      8728
      8726      8729      8724      8730      8724      8731      8724      8732
      8726      8733      8726      8734      8735      8736      8737      8738
      8735      8737      8737      8739      8737      8740      8735      8741
      8735      8742      8735      8743      8737      8744      8737      8745
      8746      8747      8748      8749      8746      8748      8748      8750
      8748      8751      8746      8752      8746      8753      8746      8754
      8748      8755      8748      8756      8757      8758      8759      8760
      8757      8759      8759      8761      8759      8762      8757      8763
      8757      8764      8757      8765      8759      8766      8759      8767
      8768      8769      8770      8771      8768      8770      8770      8772
      8770      8773      8768      8774      8768      8775      8768      8776
      8770      8777      8770      8778      8779      8780      8781      8782
      8779      8781      8781      8783      8781      8784      8779      8785
      8779      8786      8779      8787      8781      8788      8781      8789
      8790      8791      8792      8793      8790      8792      8792      8794
      8792      8795      8790      8796      8790      8797      8790      8798
      8792      8799      8792      8800      8801      8802      8803      8804
      8801      8803      8803      8805      8803      8806      8801      8807
      8801      8808      8801      8809      8803      8810      8803      8811
      8812      8813      8814      8815      8812      8814      8814      8816
      8814      8817      8812      8818      8812      8819      8812      8820
      8814      8821      8814      8822      8823      8824      8825      8826
      8823      8825      8825      8827      8825      8828      8823      8829
      8823      8830      8823      8831      8825      8832      8825      8833
      8834      8835      8836      8837      8834      8836      8836      8838
      8836      8839      8834      8840      8834      8841      8834      8842
      8836      8843      8836      8844      8845      8846      8847      8848
      8845      8847      8847      8849      8847      8850      8845      8851
      8845      8852      8845      8853      8847      8854      8847      8855
      8856      8857      8858      8859      8856      8858      8858      8860
      8858      8861      8856      8862      8856      8863      8856      8864
      8858      8865      8858      8866      8867      8868      8869      8870
      8867      8869      8869      8871      8869      8872      8867      8873
      8867      8874      8867      8875      8869      8876      8869      8877
      8878      8879      8880      8881      8878      8880      8880      8882
      8880      8883      8878      8884      8878      8885      8878      8886
      8880      8887      8880      8888      8889      8890      8891      8892
      8889      8891      8891      8893      8891      8894      8889      8895
      8889      8896      8889      8897      8891      8898      8891      8899
      8900      8901      8902      8903      8900      8902      8902      8904
      8902      8905      8900      8906      8900      8907      8900      8908
      8902      8909      8902      8910      8911      8912      8913      8914
      8911      8913      8913      8915      8913      8916      8911      8917
      8911      8918      8911      8919      8913      8920      8913      8921
      8922      8923      8924      8925      8922      8924      8924      8926
      8924      8927      8922      8928      8922      8929      8922      8930
      8924      8931      8924      8932      8933      8934      8935      8936
      8933      8935      8935      8937      8935      8938      8933      8939
      8933      8940      8933      8941      8935      8942      8935      8943
      8944      8945      8946      8947      8944      8946      8946      8948
      8946      8949      8944      8950      8944      8951      8944      8952
      8946      8953      8946      8954      8955      8956      8957      8958
      8955      8957      8957      8959      8957      8960      8955      8961
      8955      8962      8955      8963      8957      8964      8957      8965
      8966      8967      8968      8969      8966      8968      8968      8970
      8968      8971      8966      8972      8966      8973      8966      8974
      8968      8975      8968      8976      8977      8978      8979      8980
      8977      8979      8979      8981      8979      8982      8977      8983
      8977      8984      8977      8985      8979      8986      8979      8987
      8988      8989      8990      8991      8988      8990      8990      8992
      8990      8993      8988      8994      8988      8995      8988      8996
      8990      8997      8990      8998      8999      9000      9001      9002
      8999      9001      9001      9003      9001      9004      8999      9005
      8999      9006      8999      9007      9001      9008      9001      9009
      9010      9011      9012      9013      9010      9012      9012      9014
      9012      9015      9010      9016      9010      9017      9010      9018
      9012      9019      9012      9020      9021      9022      9023      9024
      9021      9023      9023      9025      9023      9026      9021      9027
      9021      9028      9021      9029      9023      9030      9023      9031
      9032      9033      9034      9035      9032      9034      9034      9036
      9034      9037      9032      9038      9032      9039      9032      9040
      9034      9041      9034      9042      9043      9044      9045      9046
      9043      9045      9045      9047      9045      9048      9043      9049
      9043      9050      9043      9051      9045      9052      9045      9053
      9054      9055      9056      9057      9054      9056      9056      9058
      9056      9059      9054      9060      9054      9061      9054      9062
      9056      9063      9056      9064      9065      9066      9067      9068
      9065      9067      9067      9069      9067      9070      9065      9071
      9065      9072      9065      9073      9067      9074      9067      9075
      9076      9077      9078      9079      9076      9078      9078      9080
      9078      9081      9076      9082      9076      9083      9076      9084
      9078      9085      9078      9086      9087      9088      9089      9090
      9087      9089      9089      9091      9089      9092      9087      9093
      9087      9094      9087      9095      9089      9096      9089      9097
      9098      9099      9100      9101      9098      9100      9100      9102
      9100      9103      9098      9104      9098      9105      9098      9106
      9100      9107      9100      9108      9109      9110      9111      9112
      9109      9111      9111      9113      9111      9114      9109      9115
      9109      9116      9109      9117      9111      9118      9111      9119
      9120      9121      9122      9123      9120      9122      9122      9124
      9122      9125      9120      9126      9120      9127      9120      9128
      9122      9129      9122      9130      9131      9132      9133      9134
      9131      9133      9133      9135      9133      9136      9131      9137
      9131      9138      9131      9139      9133      9140      9133      9141
      9142      9143      9144      9145      9142      9144      9144      9146
      9144      9147      9142      9148      9142      9149      9142      9150
      9144      9151      9144      9152      9153      9154      9155      9156
      9153      9155      9155      9157      9155      9158      9153      9159
      9153      9160      9153      9161      9155      9162      9155      9163
      9164      9165      9166      9167      9164      9166      9166      9168
      9166      9169      9164      9170      9164      9171      9164      9172
      9166      9173      9166      9174      9175      9176      9177      9178
      9175      9177      9177      9179      9177      9180      9175      9181
      9175      9182      9175      9183      9177      9184      9177      9185
      9186      9187      9188      9189      9186      9188      9188      9190
      9188      9191      9186      9192      9186      9193      9186      9194
      9188      9195      9188      9196      9197      9198      9199      9200
      9197      9199      9199      9201      9199      9202      9197      9203
      9197      9204      9197      9205      9199      9206      9199      9207
      9208      9209      9210      9211      9208      9210      9210      9212
      9210      9213      9208      9214      9208      9215      9208      9216
      9210      9217      9210      9218      9219      9220      9221      9222
      9219      9221      9221      9223      9221      9224      9219      9225
      9219      9226      9219      9227      9221      9228      9221      9229
      9230      9231      9232      9233      9230      9232      9232      9234
      9232      9235      9230      9236      9230      9237      9230      9238
      9232      9239      9232      9240      9241      9242      9243      9244
      9241      9243      9243      9245      9243      9246      9241      9247
      9241      9248      9241      9249      9243      9250      9243      9251
      9252      9253      9254      9255      9252      9254      9254      9256
      9254      9257      9252      9258      9252      9259      9252      9260
      9254      9261      9254      9262      9263      9264      9265      9266
      9263      9265      9265      9267      9265      9268      9263      9269
      9263      9270      9263      9271      9265      9272      9265      9273
      9274      9275      9276      9277      9274      9276      9276      9278
      9276      9279      9274      9280      9274      9281      9274      9282
      9276      9283      9276      9284      9285      9286      9287      9288
      9285      9287      9287      9289      9287      9290      9285      9291
      9285      9292      9285      9293      9287      9294      9287      9295
      9296      9297      9298      9299      9296      9298      9298      9300
      9298      9301      9296      9302      9296      9303      9296      9304
      9298      9305      9298      9306      9307      9308      9309      9310
      9307      9309      9309      9311      9309      9312      9307      9313
      9307      9314      9307      9315      9309      9316      9309      9317
      9318      9319      9320      9321      9318      9320      9320      9322
      9320      9323      9318      9324      9318      9325      9318      9326
      9320      9327      9320      9328      9329      9330      9331      9332
      9329      9331      9331      9333      9331      9334      9329      9335
      9329      9336      9329      9337      9331      9338      9331      9339
      9340      9341      9342      9343      9340      9342      9342      9344
      9342      9345      9340      9346      9340      9347      9340      9348
      9342      9349      9342      9350      9351      9352      9353      9354
      9351      9353      9353      9355      9353      9356      9351      9357
      9351      9358      9351      9359      9353      9360      9353      9361
      9362      9363      9364      9365      9362      9364      9364      9366
      9364      9367      9362      9368      9362      9369      9362      9370
      9364      9371      9364      9372      9373      9374      9375      9376
      9373      9375      9375      9377      9375      9378      9373      9379
      9373      9380      9373      9381      9375      9382      9375      9383
      9384      9385      9386      9387      9384      9386      9386      9388
      9386      9389      9384      9390      9384      9391      9384      9392
      9386      9393      9386      9394      9395      9396      9397      9398
      9395      9397      9397      9399      9397      9400      9395      9401
      9395      9402      9395      9403      9397      9404      9397      9405
      9406      9407      9408      9409      9406      9408      9408      9410
      9408      9411      9406      9412      9406      9413      9406      9414
      9408      9415      9408      9416      9417      9418      9419      9420
      9417      9419      9419      9421      9419      9422      9417      9423
      9417      9424      9417      9425      9419      9426      9419      9427
      9428      9429      9430      9431      9428      9430      9430      9432
      9430      9433      9428      9434      9428      9435      9428      9436
      9430      9437      9430      9438      9439      9440      9441      9442
      9439      9441      9441      9443      9441      9444      9439      9445
      9439      9446      9439      9447      9441      9448      9441      9449
      9450      9451      9452      9453      9450      9452      9452      9454
      9452      9455      9450      9456      9450      9457      9450      9458
      9452      9459      9452      9460      9461      9462      9463      9464
      9461      9463      9463      9465      9463      9466      9461      9467
      9461      9468      9461      9469      9463      9470      9463      9471
      9472      9473      9474      9475      9472      9474      9474      9476
      9474      9477      9472      9478      9472      9479      9472      9480
      9474      9481      9474      9482      9483      9484      9485      9486
      9483      9485      9485      9487      9485      9488      9483      9489
      9483      9490      9483      9491      9485      9492      9485      9493
      9494      9495      9496      9497      9494      9496      9496      9498
      9496      9499      9494      9500      9494      9501      9494      9502
      9496      9503      9496      9504      9505      9506      9507      9508
      9505      9507      9507      9509      9507      9510      9505      9511
      9505      9512      9505      9513      9507      9514      9507      9515
      9516      9517      9518      9519      9516      9518      9518      9520
      9518      9521      9516      9522      9516      9523      9516      9524
      9518      9525      9518      9526      9527      9528      9529      9530
      9527      9529      9529      9531      9529      9532      9527      9533
      9527      9534      9527      9535      9529      9536      9529      9537
      9538      9539      9540      9541      9538      9540      9540      9542
      9540      9543      9538      9544      9538      9545      9538      9546
      9540      9547      9540      9548      9549      9550      9551      9552
      9549      9551      9551      9553      9551      9554      9549      9555
      9549      9556      9549      9557      9551      9558      9551      9559
      9560      9561      9562      9563      9560      9562      9562      9564
      9562      9565      9560      9566      9560      9567      9560      9568
      9562      9569      9562      9570      9571      9572      9573      9574
      9571      9573      9573      9575      9573      9576      9571      9577
      9571      9578      9571      9579      9573      9580      9573      9581
      9582      9583      9584      9585      9582      9584      9584      9586
      9584      9587      9582      9588      9582      9589      9582      9590
      9584      9591      9584      9592      9593      9594      9595      9596
      9593      9595      9595      9597      9595      9598      9593      9599
      9593      9600      9593      9601      9595      9602      9595      9603
      9604      9605      9606      9607      9604      9606      9606      9608
      9606      9609      9604      9610      9604      9611      9604      9612
      9606      9613      9606      9614      9615      9616      9617      9618
      9615      9617      9617      9619      9617      9620      9615      9621
      9615      9622      9615      9623      9617      9624      9617      9625
      9626      9627      9628      9629      9626      9628      9628      9630
      9628      9631      9626      9632      9626      9633      9626      9634
      9628      9635      9628      9636      9637      9638      9639      9640
      9637      9639      9639      9641      9639      9642      9637      9643
      9637      9644      9637      9645      9639      9646      9639      9647
      9648      9649      9650      9651      9648      9650      9650      9652
      9650      9653      9648      9654      9648      9655      9648      9656
      9650      9657      9650      9658      9659      9660      9661      9662
      9659      9661      9661      9663      9661      9664      9659      9665
      9659      9666      9659      9667      9661      9668      9661      9669
      9670      9671      9672      9673      9670      9672      9672      9674
      9672      9675      9670      9676      9670      9677      9670      9678
      9672      9679      9672      9680      9681      9682      9683      9684
      9681      9683      9683      9685      9683      9686      9681      9687
      9681      9688      9681      9689      9683      9690      9683      9691
      9692      9693      9694      9695      9692      9694      9694      9696
      9694      9697      9692      9698      9692      9699      9692      9700
      9694      9701      9694      9702      9703      9704      9705      9706
      9703      9705      9705      9707      9705      9708      9703      9709
      9703      9710      9703      9711      9705      9712      9705      9713
      9714      9715      9716      9717      9714      9716      9716      9718
      9716      9719      9714      9720      9714      9721      9714      9722
      9716      9723      9716      9724      9725      9726      9727      9728
      9725      9727      9727      9729      9727      9730      9725      9731
      9725      9732      9725      9733      9727      9734      9727      9735
      9736      9737      9738      9739      9736      9738      9738      9740
      9738      9741      9736      9742      9736      9743      9736      9744
      9738      9745      9738      9746      9747      9748      9749      9750
      9747      9749      9749      9751      9749      9752      9747      9753
      9747      9754      9747      9755      9749      9756      9749      9757
      9758      9759      9760      9761      9758      9760      9760      9762
      9760      9763      9758      9764      9758      9765      9758      9766
      9760      9767      9760      9768      9769      9770      9771      9772
      9769      9771      9771      9773      9771      9774      9769      9775
      9769      9776      9769      9777      9771      9778      9771      9779
      9780      9781      9782      9783      9780      9782      9782      9784
      9782      9785      9780      9786      9780      9787      9780      9788
      9782      9789      9782      9790      9791      9792      9793      9794
      9791      9793      9793      9795      9793      9796      9791      9797
      9791      9798      9791      9799      9793      9800      9793      9801
      9802      9803      9804      9805      9802      9804      9804      9806
      9804      9807      9802      9808      9802      9809      9802      9810
      9804      9811      9804      9812      9813      9814      9815      9816
      9813      9815      9815      9817      9815      9818      9813      9819
      9813      9820      9813      9821      9815      9822      9815      9823
      9824      9825      9826      9827      9824      9826      9826      9828
      9826      9829      9824      9830      9824      9831      9824      9832
      9826      9833      9826      9834      9835      9836      9837      9838
      9835      9837      9837      9839      9837      9840      9835      9841
      9835      9842      9835      9843      9837      9844      9837      9845
      9846      9847      9848      9849      9846      9848      9848      9850
      9848      9851      9846      9852      9846      9853      9846      9854
      9848      9855      9848      9856      9857      9858      9859      9860
      9857      9859      9859      9861      9859      9862      9857      9863
      9857      9864      9857      9865      9859      9866      9859      9867
      9868      9869      9870      9871      9868      9870      9870      9872
      9870      9873      9868      9874      9868      9875      9868      9876
      9870      9877      9870      9878      9879      9880      9881      9882
      9879      9881      9881      9883      9881      9884      9879      9885
      9879      9886      9879      9887      9881      9888      9881      9889
      9890      9891      9892      9893      9890      9892      9892      9894
      9892      9895      9890      9896      9890      9897      9890      9898
      9892      9899      9892      9900      9901      9902      9903      9904
      9901      9903      9903      9905      9903      9906      9901      9907
      9901      9908      9901      9909      9903      9910      9903      9911
      9912      9913      9914      9915      9912      9914      9914      9916
      9914      9917      9912      9918      9912      9919      9912      9920
      9914      9921      9914      9922      9923      9924      9925      9926
      9923      9925      9925      9927      9925      9928      9923      9929
      9923      9930      9923      9931      9925      9932      9925      9933
      9934      9935      9936      9937      9934      9936      9936      9938
      9936      9939      9934      9940      9934      9941      9934      9942
      9936      9943      9936      9944      9945      9946      9947      9948
      9945      9947      9947      9949      9947      9950      9945      9951
      9945      9952      9945      9953      9947      9954      9947      9955
      9956      9957      9958      9959      9956      9958      9958      9960
      9958      9961      9956      9962      9956      9963      9956      9964
      9958      9965      9958      9966      9967      9968      9969      9970
      9967      9969      9969      9971      9969      9972      9967      9973
      9967      9974      9967      9975      9969      9976      9969      9977
      9978      9979      9980      9981      9978      9980      9980      9982
      9980      9983      9978      9984      9978      9985      9978      9986
      9980      9987      9980      9988      9989      9990      9991      9992
      9989      9991      9991      9993      9991      9994      9989      9995
      9989      9996      9989      9997      9991      9998      9991      9999
     10000     10001     10002     10003     10000     10002     10002     10004
     10002     10005     10000     10006     10000     10007     10000     10008
     10002     10009     10002     10010     10011     10012     10013     10014
     10011     10013     10013     10015     10013     10016     10011     10017
     10011     10018     10011     10019     10013     10020     10013     10021
     10022     10023     10024     10025     10022     10024     10024     10026
     10024     10027     10022     10028     10022     10029     10022     10030
     10024     10031     10024     10032     10033     10034     10035     10036
     10033     10035     10035     10037     10035     10038     10033     10039
     10033     10040     10033     10041     10035     10042     10035     10043
     10044     10045     10046     10047     10044     10046     10046     10048
     10046     10049     10044     10050     10044     10051     10044     10052
     10046     10053     10046     10054     10055     10056     10057     10058
     10055     10057     10057     10059     10057     10060     10055     10061
     10055     10062     10055     10063     10057     10064     10057     10065
     10066     10067     10068     10069     10066     10068     10068     10070
     10068     10071     10066     10072     10066     10073     10066     10074
     10068     10075     10068     10076     10077     10078     10079     10080
     10077     10079     10079     10081     10079     10082     10077     10083
     10077     10084     10077     10085     10079     10086     10079     10087
     10088     10089     10090     10091     10088     10090     10090     10092
     10090     10093     10088     10094     10088     10095     10088     10096
     10090     10097     10090     10098     10099     10100     10101     10102
     10099     10101     10101     10103     10101     10104     10099     10105
     10099     10106     10099     10107     10101     10108     10101     10109
     10110     10111     10112     10113     10110     10112     10112     10114
     10112     10115     10110     10116     10110     10117     10110     10118
     10112     10119     10112     10120     10121     10122     10123     10124
     10121     10123     10123     10125     10123     10126     10121     10127
     10121     10128     10121     10129     10123     10130     10123     10131
     10132     10133     10134     10135     10132     10134     10134     10136
     10134     10137     10132     10138     10132     10139     10132     10140
     10134     10141     10134     10142     10143     10144     10145     10146
     10143     10145     10145     10147     10145     10148     10143     10149
     10143     10150     10143     10151     10145     10152     10145     10153
     10154     10155     10156     10157     10154     10156     10156     10158
     10156     10159     10154     10160     10154     10161     10154     10162
     10156     10163     10156     10164     10165     10166     10167     10168
     10165     10167     10167     10169     10167     10170     10165     10171
     10165     10172     10165     10173     10167     10174     10167     10175
     10176     10177     10178     10179     10176     10178     10178     10180
     10178     10181     10176     10182     10176     10183     10176     10184
     10178     10185     10178     10186     10187     10188     10189     10190
     10187     10189     10189     10191     10189     10192     10187     10193
     10187     10194     10187     10195     10189     10196     10189     10197
     10198     10199     10200     10201     10198     10200     10200     10202
     10200     10203     10198     10204     10198     10205     10198     10206
     10200     10207     10200     10208     10209     10210     10211     10212
     10209     10211     10211     10213     10211     10214     10209     10215
     10209     10216     10209     10217     10211     10218     10211     10219
     10220     10221     10222     10223     10220     10222     10222     10224
     10222     10225     10220     10226     10220     10227     10220     10228
     10222     10229     10222     10230     10231     10232     10233     10234
     10231     10233     10233     10235     10233     10236     10231     10237
     10231     10238     10231     10239     10233     10240     10233     10241
     10242     10243     10244     10245     10242     10244     10244     10246
     10244     10247     10242     10248     10242     10249     10242     10250
     10244     10251     10244     10252     10253     10254     10255     10256
     10253     10255     10255     10257     10255     10258     10253     10259
     10253     10260     10253     10261     10255     10262     10255     10263
     10264     10265     10266     10267     10264     10266     10266     10268
     10266     10269     10264     10270     10264     10271     10264     10272
     10266     10273     10266     10274     10275     10276     10277     10278
     10275     10277     10277     10279     10277     10280     10275     10281
     10275     10282     10275     10283     10277     10284     10277     10285
     10286     10287     10288     10289     10286     10288     10288     10290
     10288     10291     10286     10292     10286     10293     10286     10294
     10288     10295     10288     10296     10297     10298     10299     10300
     10297     10299     10299     10301     10299     10302     10297     10303
     10297     10304     10297     10305     10299     10306     10299     10307
     10308     10309     10310     10311     10308     10310     10310     10312
     10310     10313     10308     10314     10308     10315     10308     10316
     10310     10317     10310     10318     10319     10320     10321     10322
     10319     10321     10321     10323     10321     10324     10319     10325
     10319     10326     10319     10327     10321     10328     10321     10329
     10330     10331     10332     10333     10330     10332     10332     10334
     10332     10335     10330     10336     10330     10337     10330     10338
     10332     10339     10332     10340     10341     10342     10343     10344
     10341     10343     10343     10345     10343     10346     10341     10347
     10341     10348     10341     10349     10343     10350     10343     10351
     10352     10353     10354     10355     10352     10354     10354     10356
     10354     10357     10352     10358     10352     10359     10352     10360
     10354     10361     10354     10362     10363     10364     10365     10366
     10363     10365     10365     10367     10365     10368     10363     10369
     10363     10370     10363     10371     10365     10372     10365     10373
     10374     10375     10376     10377     10374     10376     10376     10378
     10376     10379     10374     10380     10374     10381     10374     10382
     10376     10383     10376     10384     10385     10386     10387     10388
     10385     10387     10387     10389     10387     10390     10385     10391
     10385     10392     10385     10393     10387     10394     10387     10395
     10396     10397     10398     10399     10396     10398     10398     10400
     10398     10401     10396     10402     10396     10403     10396     10404
     10398     10405     10398     10406     10407     10408     10409     10410
     10407     10409     10409     10411     10409     10412     10407     10413
     10407     10414     10407     10415     10409     10416     10409     10417
     10418     10419     10420     10421     10418     10420     10420     10422
     10420     10423     10418     10424     10418     10425     10418     10426
     10420     10427     10420     10428     10429     10430     10431     10432
     10429     10431     10431     10433     10431     10434     10429     10435
     10429     10436     10429     10437     10431     10438     10431     10439
     10440     10441     10442     10443     10440     10442     10442     10444
     10442     10445     10440     10446     10440     10447     10440     10448
     10442     10449     10442     10450     10451     10452     10453     10454
     10451     10453     10453     10455     10453     10456     10451     10457
     10451     10458     10451     10459     10453     10460     10453     10461
     10462     10463     10464     10465     10462     10464     10464     10466
     10464     10467     10462     10468     10462     10469     10462     10470
     10464     10471     10464     10472     10473     10474     10475     10476
     10473     10475     10475     10477     10475     10478     10473     10479
     10473     10480     10473     10481     10475     10482     10475     10483
     10484     10485     10486     10487     10484     10486     10486     10488
     10486     10489     10484     10490     10484     10491     10484     10492
     10486     10493     10486     10494     10495     10496     10497     10498
     10495     10497     10497     10499     10497     10500     10495     10501
     10495     10502     10495     10503     10497     10504     10497     10505
     10506     10507     10508     10509     10506     10508     10508     10510
     10508     10511     10506     10512     10506     10513     10506     10514
     10508     10515     10508     10516     10517     10518     10519     10520
     10517     10519     10519     10521     10519     10522     10517     10523
     10517     10524     10517     10525     10519     10526     10519     10527
     10528     10529     10530     10531     10528     10530     10530     10532
     10530     10533     10528     10534     10528     10535     10528     10536
     10530     10537     10530     10538     10539     10540     10541     10542
     10539     10541     10541     10543     10541     10544     10539     10545
     10539     10546     10539     10547     10541     10548     10541     10549
     10550     10551     10552     10553     10550     10552     10552     10554
     10552     10555     10550     10556     10550     10557     10550     10558
     10552     10559     10552     10560     10561     10562     10563     10564
     10561     10563     10563     10565     10563     10566     10561     10567
     10561     10568     10561     10569     10563     10570     10563     10571
     10572     10573     10574     10575     10572     10574     10574     10576
     10574     10577     10572     10578     10572     10579     10572     10580
     10574     10581     10574     10582     10583     10584     10585     10586
     10583     10585     10585     10587     10585     10588     10583     10589
     10583     10590     10583     10591     10585     10592     10585     10593
     10594     10595     10596     10597     10594     10596     10596     10598
     10596     10599     10594     10600     10594     10601     10594     10602
     10596     10603     10596     10604     10605     10606     10607     10608
     10605     10607     10607     10609     10607     10610     10605     10611
     10605     10612     10605     10613     10607     10614     10607     10615
     10616     10617     10618     10619     10616     10618     10618     10620
     10618     10621     10616     10622     10616     10623     10616     10624
     10618     10625     10618     10626     10627     10628     10629     10630
     10627     10629     10629     10631     10629     10632     10627     10633
     10627     10634     10627     10635     10629     10636     10629     10637
     10638     10639     10640     10641     10638     10640     10640     10642
     10640     10643     10638     10644     10638     10645     10638     10646
     10640     10647     10640     10648     10649     10650     10651     10652
     10649     10651     10651     10653     10651     10654     10649     10655
     10649     10656     10649     10657     10651     10658     10651     10659
     10660     10661     10662     10663     10660     10662     10662     10664
     10662     10665     10660     10666     10660     10667     10660     10668
     10662     10669     10662     10670     10671     10672     10673     10674
     10671     10673     10673     10675     10673     10676     10671     10677
     10671     10678     10671     10679     10673     10680     10673     10681
     10682     10683     10684     10685     10682     10684     10684     10686
     10684     10687     10682     10688     10682     10689     10682     10690
     10684     10691     10684     10692     10693     10694     10695     10696
     10693     10695     10695     10697     10695     10698     10693     10699
     10693     10700     10693     10701     10695     10702     10695     10703
     10704     10705     10706     10707     10704     10706     10706     10708
     10706     10709     10704     10710     10704     10711     10704     10712
     10706     10713     10706     10714     10715     10716     10717     10718
     10715     10717     10717     10719     10717     10720     10715     10721
     10715     10722     10715     10723     10717     10724     10717     10725
     10726     10727     10728     10729     10726     10728     10728     10730
     10728     10731     10726     10732     10726     10733     10726     10734
     10728     10735     10728     10736     10737     10738     10739     10740
     10737     10739     10739     10741     10739     10742     10737     10743
     10737     10744     10737     10745     10739     10746     10739     10747
     10748     10749     10750     10751     10748     10750     10750     10752
     10750     10753     10748     10754     10748     10755     10748     10756
     10750     10757     10750     10758     10759     10760     10761     10762
     10759     10761     10761     10763     10761     10764     10759     10765
     10759     10766     10759     10767     10761     10768     10761     10769
     10770     10771     10772     10773     10770     10772     10772     10774
     10772     10775     10770     10776     10770     10777     10770     10778
     10772     10779     10772     10780     10781     10782     10783     10784
     10781     10783     10783     10785     10783     10786     10781     10787
     10781     10788     10781     10789     10783     10790     10783     10791
     10792     10793     10794     10795     10792     10794     10794     10796
     10794     10797     10792     10798     10792     10799     10792     10800
     10794     10801     10794     10802     10803     10804     10805     10806
     10803     10805     10805     10807     10805     10808     10803     10809
     10803     10810     10803     10811     10805     10812     10805     10813
     10814     10815     10816     10817     10814     10816     10816     10818
     10816     10819     10814     10820     10814     10821     10814     10822
     10816     10823     10816     10824     10825     10826     10827     10828
     10825     10827     10827     10829     10827     10830     10825     10831
     10825     10832     10825     10833     10827     10834     10827     10835
     10836     10837     10838     10839     10836     10838     10838     10840
     10838     10841     10836     10842     10836     10843     10836     10844
     10838     10845     10838     10846     10847     10848     10849     10850
     10847     10849     10849     10851     10849     10852     10847     10853
     10847     10854     10847     10855     10849     10856     10849     10857
     10858     10859     10860     10861     10858     10860     10860     10862
     10860     10863     10858     10864     10858     10865     10858     10866
     10860     10867     10860     10868     10869     10870     10871     10872
     10869     10871     10871     10873     10871     10874     10869     10875
     10869     10876     10869     10877     10871     10878     10871     10879
     10880     10881     10882     10883     10880     10882     10882     10884
     10882     10885     10880     10886     10880     10887     10880     10888
     10882     10889     10882     10890     10891     10892     10893     10894
     10891     10893     10893     10895     10893     10896     10891     10897
     10891     10898     10891     10899     10893     10900     10893     10901
     10902     10903     10904     10905     10902     10904     10904     10906
     10904     10907     10902     10908     10902     10909     10902     10910
     10904     10911     10904     10912     10913     10914     10915     10916
     10913     10915     10915     10917     10915     10918     10913     10919
     10913     10920     10913     10921     10915     10922     10915     10923
     10924     10925     10926     10927     10924     10926     10926     10928
     10926     10929     10924     10930     10924     10931     10924     10932
     10926     10933     10926     10934     10935     10936     10937     10938
     10935     10937     10937     10939     10937     10940     10935     10941
     10935     10942     10935     10943     10937     10944     10937     10945
     10946     10947     10948     10949     10946     10948     10948     10950
     10948     10951     10946     10952     10946     10953     10946     10954
     10948     10955     10948     10956     10957     10958     10959     10960
     10957     10959     10959     10961     10959     10962     10957     10963
     10957     10964     10957     10965     10959     10966     10959     10967
     10968     10969     10970     10971     10968     10970     10970     10972
     10970     10973     10968     10974     10968     10975     10968     10976
     10970     10977     10970     10978     10979     10980     10981     10982
     10979     10981     10981     10983     10981     10984     10979     10985
     10979     10986     10979     10987     10981     10988     10981     10989
     10990     10991     10992     10993     10990     10992     10992     10994
     10992     10995     10990     10996     10990     10997     10990     10998
     10992     10999     10992     11000     11001     11002     11003     11004
     11001     11003     11003     11005     11003     11006     11001     11007
     11001     11008     11001     11009     11003     11010     11003     11011
     11012     11013     11014     11015     11012     11014     11014     11016
     11014     11017     11012     11018     11012     11019     11012     11020
     11014     11021     11014     11022     11023     11024     11025     11026
     11023     11025     11025     11027     11025     11028     11023     11029
     11023     11030     11023     11031     11025     11032     11025     11033
     11034     11035     11036     11037     11034     11036     11036     11038
     11036     11039     11034     11040     11034     11041     11034     11042
     11036     11043     11036     11044     11045     11046     11047     11048
     11045     11047     11047     11049     11047     11050     11045     11051
     11045     11052     11045     11053     11047     11054     11047     11055
     11056     11057     11058     11059     11056     11058     11058     11060
     11058     11061     11056     11062     11056     11063     11056     11064
     11058     11065     11058     11066     11067     11068     11069     11070
     11067     11069     11069     11071     11069     11072     11067     11073
     11067     11074     11067     11075     11069     11076     11069     11077
     11078     11079     11080     11081     11078     11080     11080     11082
     11080     11083     11078     11084     11078     11085     11078     11086
     11080     11087     11080     11088     11089     11090     11091     11092
     11089     11091     11091     11093     11091     11094     11089     11095
     11089     11096     11089     11097     11091     11098     11091     11099
     11100     11101     11102     11103     11100     11102     11102     11104
     11102     11105     11100     11106     11100     11107     11100     11108
     11102     11109     11102     11110     11111     11112     11113     11114
     11111     11113     11113     11115     11113     11116     11111     11117
     11111     11118     11111     11119     11113     11120     11113     11121
     11122     11123     11124     11125     11122     11124     11124     11126
     11124     11127     11122     11128     11122     11129     11122     11130
     11124     11131     11124     11132     11133     11134     11135     11136
     11133     11135     11135     11137     11135     11138     11133     11139
     11133     11140     11133     11141     11135     11142     11135     11143
     11144     11145     11146     11147     11144     11146     11146     11148
     11146     11149     11144     11150     11144     11151     11144     11152
     11146     11153     11146     11154     11155     11156     11157     11158
     11155     11157     11157     11159     11157     11160     11155     11161
     11155     11162     11155     11163     11157     11164     11157     11165
     11166     11167     11168     11169     11166     11168     11168     11170
     11168     11171     11166     11172     11166     11173     11166     11174
     11168     11175     11168     11176     11177     11178     11179     11180
     11177     11179     11179     11181     11179     11182     11177     11183
     11177     11184     11177     11185     11179     11186     11179     11187
     11188     11189     11190     11191     11188     11190     11190     11192
     11190     11193     11188     11194     11188     11195     11188     11196
     11190     11197     11190     11198     11199     11200     11201     11202
     11199     11201     11201     11203     11201     11204     11199     11205
     11199     11206     11199     11207     11201     11208     11201     11209
     11210     11211     11212     11213     11210     11212     11212     11214
     11212     11215     11210     11216     11210     11217     11210     11218
     11212     11219     11212     11220     11221     11222     11223     11224
     11221     11223     11223     11225     11223     11226     11221     11227
     11221     11228     11221     11229     11223     11230     11223     11231
     11232     11233     11234     11235     11232     11234     11234     11236
     11234     11237     11232     11238     11232     11239     11232     11240
     11234     11241     11234     11242     11243     11244     11245     11246
     11243     11245     11245     11247     11245     11248     11243     11249
     11243     11250     11243     11251     11245     11252     11245     11253
     11254     11255     11256     11257     11254     11256     11256     11258
     11256     11259     11254     11260     11254     11261     11254     11262
     11256     11263     11256     11264     11265     11266     11267     11268
     11265     11267     11267     11269     11267     11270     11265     11271
     11265     11272     11265     11273     11267     11274     11267     11275
     11276     11277     11278     11279     11276     11278     11278     11280
     11278     11281     11276     11282     11276     11283     11276     11284
     11278     11285     11278     11286     11287     11288     11289     11290
     11287     11289     11289     11291     11289     11292     11287     11293
     11287     11294     11287     11295     11289     11296     11289     11297
     11298     11299     11300     11301     11298     11300     11300     11302
     11300     11303     11298     11304     11298     11305     11298     11306
     11300     11307     11300     11308     11309     11310     11311     11312
     11309     11311     11311     11313     11311     11314     11309     11315
     11309     11316     11309     11317     11311     11318     11311     11319
     11320     11321     11322     11323     11320     11322     11322     11324
     11322     11325     11320     11326     11320     11327     11320     11328
     11322     11329     11322     11330     11331     11332     11333     11334
     11331     11333     11333     11335     11333     11336     11331     11337
     11331     11338     11331     11339     11333     11340     11333     11341
     11342     11343     11344     11345     11342     11344     11344     11346
     11344     11347     11342     11348     11342     11349     11342     11350
     11344     11351     11344     11352     11353     11354     11355     11356
     11353     11355     11355     11357     11355     11358     11353     11359
     11353     11360     11353     11361     11355     11362     11355     11363
     11364     11365     11366     11367     11364     11366     11366     11368
     11366     11369     11364     11370     11364     11371     11364     11372
     11366     11373     11366     11374     11375     11376     11377     11378
     11375     11377     11377     11379     11377     11380     11375     11381
     11375     11382     11375     11383     11377     11384     11377     11385
     11386     11387     11388     11389     11386     11388     11388     11390
     11388     11391     11386     11392     11386     11393     11386     11394
     11388     11395     11388     11396     11397     11398     11399     11400
     11397     11399     11399     11401     11399     11402     11397     11403
     11397     11404     11397     11405     11399     11406     11399     11407
     11408     11409     11410     11411     11408     11410     11410     11412
     11410     11413     11408     11414     11408     11415     11408     11416
     11410     11417     11410     11418     11419     11420     11421     11422
     11419     11421     11421     11423     11421     11424     11419     11425
     11419     11426     11419     11427     11421     11428     11421     11429
     11430     11431     11432     11433     11430     11432     11432     11434
     11432     11435     11430     11436     11430     11437     11430     11438
     11432     11439     11432     11440     11441     11442     11443     11444
     11441     11443     11443     11445     11443     11446     11441     11447
     11441     11448     11441     11449     11443     11450     11443     11451
     11452     11453     11454     11455     11452     11454     11454     11456
     11454     11457     11452     11458     11452     11459     11452     11460
     11454     11461     11454     11462     11463     11464     11465     11466
     11463     11465     11465     11467     11465     11468     11463     11469
     11463     11470     11463     11471     11465     11472     11465     11473
     11474     11475     11476     11477     11474     11476     11476     11478
     11476     11479     11474     11480     11474     11481     11474     11482
     11476     11483     11476     11484     11485     11486     11487     11488
     11485     11487     11487     11489     11487     11490     11485     11491
     11485     11492     11485     11493     11487     11494     11487     11495
     11496     11497     11498     11499     11496     11498     11498     11500
     11498     11501     11496     11502     11496     11503     11496     11504
     11498     11505     11498     11506     11507     11508     11509     11510
     11507     11509     11509     11511     11509     11512     11507     11513
     11507     11514     11507     11515     11509     11516     11509     11517
     11518     11519     11520     11521     11518     11520     11520     11522
     11520     11523     11518     11524     11518     11525     11518     11526
     11520     11527     11520     11528     11529     11530     11531     11532
     11529     11531     11531     11533     11531     11534     11529     11535
     11529     11536     11529     11537     11531     11538     11531     11539
     11540     11541     11542     11543     11540     11542     11542     11544
     11542     11545     11540     11546     11540     11547     11540     11548
     11542     11549     11542     11550     11551     11552     11553     11554
     11551     11553     11553     11555     11553     11556     11551     11557
     11551     11558     11551     11559     11553     11560     11553     11561
     11562     11563     11564     11565     11562     11564     11564     11566
     11564     11567     11562     11568     11562     11569     11562     11570
     11564     11571     11564     11572     11573     11574     11575     11576
     11573     11575     11575     11577     11575     11578     11573     11579
     11573     11580     11573     11581     11575     11582     11575     11583
     11584     11585     11586     11587     11584     11586     11586     11588
     11586     11589     11584     11590     11584     11591     11584     11592
     11586     11593     11586     11594     11595     11596     11597     11598
     11595     11597     11597     11599     11597     11600     11595     11601
     11595     11602     11595     11603     11597     11604     11597     11605
     11606     11607     11608     11609     11606     11608     11608     11610
     11608     11611     11606     11612     11606     11613     11606     11614
     11608     11615     11608     11616     11617     11618     11619     11620
     11617     11619     11619     11621     11619     11622     11617     11623
     11617     11624     11617     11625     11619     11626     11619     11627
     11628     11629     11630     11631     11628     11630     11630     11632
     11630     11633     11628     11634     11628     11635     11628     11636
     11630     11637     11630     11638     11639     11640     11641     11642
     11639     11641     11641     11643     11641     11644     11639     11645
     11639     11646     11639     11647     11641     11648     11641     11649
     11650     11651     11652     11653     11650     11652     11652     11654
     11652     11655     11650     11656     11650     11657     11650     11658
     11652     11659     11652     11660     11661     11662     11663     11664
     11661     11663     11663     11665     11663     11666     11661     11667
     11661     11668     11661     11669     11663     11670     11663     11671
     11672     11673     11674     11675     11672     11674     11674     11676
     11674     11677     11672     11678     11672     11679     11672     11680
     11674     11681     11674     11682     11683     11684     11685     11686
     11683     11685     11685     11687     11685     11688     11683     11689
     11683     11690     11683     11691     11685     11692     11685     11693
     11694     11695     11696     11697     11694     11696     11696     11698
     11696     11699     11694     11700     11694     11701     11694     11702
     11696     11703     11696     11704     11705     11706     11707     11708
     11705     11707     11707     11709     11707     11710     11705     11711
     11705     11712     11705     11713     11707     11714     11707     11715
     11716     11717     11718     11719     11716     11718     11718     11720
     11718     11721     11716     11722     11716     11723     11716     11724
     11718     11725     11718     11726     11727     11728     11729     11730
     11727     11729     11729     11731     11729     11732     11727     11733
     11727     11734     11727     11735     11729     11736     11729     11737
     11738     11739     11740     11741     11738     11740     11740     11742
     11740     11743     11738     11744     11738     11745     11738     11746
     11740     11747     11740     11748     11749     11750     11751     11752
     11749     11751     11751     11753     11751     11754     11749     11755
     11749     11756     11749     11757     11751     11758     11751     11759
     11760     11761     11762     11763     11760     11762     11762     11764
     11762     11765     11760     11766     11760     11767     11760     11768
     11762     11769     11762     11770     11771     11772     11773     11774
     11771     11773     11773     11775     11773     11776     11771     11777
     11771     11778     11771     11779     11773     11780     11773     11781
     11782     11783     11784     11785     11782     11784     11784     11786
     11784     11787     11782     11788     11782     11789     11782     11790
     11784     11791     11784     11792     11793     11794     11795     11796
     11793     11795     11795     11797     11795     11798     11793     11799
     11793     11800     11793     11801     11795     11802     11795     11803
     11804     11805     11806     11807     11804     11806     11806     11808
     11806     11809     11804     11810     11804     11811     11804     11812
     11806     11813     11806     11814     11815     11816     11817     11818
     11815     11817     11817     11819     11817     11820     11815     11821
     11815     11822     11815     11823     11817     11824     11817     11825
     11826     11827     11828     11829     11826     11828     11828     11830
     11828     11831     11826     11832     11826     11833     11826     11834
     11828     11835     11828     11836     11837     11838     11839     11840
     11837     11839     11839     11841     11839     11842     11837     11843
     11837     11844     11837     11845     11839     11846     11839     11847
     11848     11849     11850     11851     11848     11850     11850     11852
     11850     11853     11848     11854     11848     11855     11848     11856
     11850     11857     11850     11858     11859     11860     11861     11862
     11859     11861     11861     11863     11861     11864     11859     11865
     11859     11866     11859     11867     11861     11868     11861     11869
     11870     11871     11872     11873     11870     11872     11872     11874
     11872     11875     11870     11876     11870     11877     11870     11878
     11872     11879     11872     11880     11881     11882     11883     11884
     11881     11883     11883     11885     11883     11886     11881     11887
     11881     11888     11881     11889     11883     11890     11883     11891
     11892     11893     11894     11895     11892     11894     11894     11896
     11894     11897     11892     11898     11892     11899     11892     11900
     11894     11901     11894     11902     11903     11904     11905     11906
     11903     11905     11905     11907     11905     11908     11903     11909
     11903     11910     11903     11911     11905     11912     11905     11913
     11914     11915     11916     11917     11914     11916     11916     11918
     11916     11919     11914     11920     11914     11921     11914     11922
     11916     11923     11916     11924     11925     11926     11927     11928
     11925     11927     11927     11929     11927     11930     11925     11931
     11925     11932     11925     11933     11927     11934     11927     11935
     11936     11937     11938     11939     11936     11938     11938     11940
     11938     11941     11936     11942     11936     11943     11936     11944
     11938     11945     11938     11946     11947     11948     11949     11950
     11947     11949     11949     11951     11949     11952     11947     11953
     11947     11954     11947     11955     11949     11956     11949     11957
     11958     11959     11960     11961     11958     11960     11960     11962
     11960     11963     11958     11964     11958     11965     11958     11966
     11960     11967     11960     11968     11969     11970     11971     11972
     11969     11971     11971     11973     11971     11974     11969     11975
     11969     11976     11969     11977     11971     11978     11971     11979
     11980     11981     11982     11983     11980     11982     11982     11984
     11982     11985     11980     11986     11980     11987     11980     11988
     11982     11989     11982     11990     11991     11992     11993     11994
     11991     11993     11993     11995     11993     11996     11991     11997
     11991     11998     11991     11999     11993     12000     11993     12001
     12002     12003     12004     12005     12002     12004     12004     12006
     12004     12007     12002     12008     12002     12009     12002     12010
     12004     12011     12004     12012     12013     12014     12015     12016
     12013     12015     12015     12017     12015     12018     12013     12019
     12013     12020     12013     12021     12015     12022     12015     12023
     12024     12025     12026     12027     12024     12026     12026     12028
     12026     12029     12024     12030     12024     12031     12024     12032
     12026     12033     12026     12034     12035     12036     12037     12038
     12035     12037     12037     12039     12037     12040     12035     12041
     12035     12042     12035     12043     12037     12044     12037     12045
     12046     12047     12048     12049     12046     12048     12048     12050
     12048     12051     12046     12052     12046     12053     12046     12054
     12048     12055     12048     12056     12057     12058     12059     12060
     12057     12059     12059     12061     12059     12062     12057     12063
     12057     12064     12057     12065     12059     12066     12059     12067
     12068     12069     12070     12071     12068     12070     12070     12072
     12070     12073     12068     12074     12068     12075     12068     12076
     12070     12077     12070     12078     12079     12080     12081     12082
     12079     12081     12081     12083     12081     12084     12079     12085
     12079     12086     12079     12087     12081     12088     12081     12089
     12090     12091     12092     12093     12090     12092     12092     12094
     12092     12095     12090     12096     12090     12097     12090     12098
     12092     12099     12092     12100     12101     12102     12103     12104
     12101     12103     12103     12105     12103     12106     12101     12107
     12101     12108     12101     12109     12103     12110     12103     12111
     12112     12113     12114     12115     12112     12114     12114     12116
     12114     12117     12112     12118     12112     12119     12112     12120
     12114     12121     12114     12122     12123     12124     12125     12126
     12123     12125     12125     12127     12125     12128     12123     12129
     12123     12130     12123     12131     12125     12132     12125     12133
     12134     12135     12136     12137     12134     12136     12136     12138
     12136     12139     12134     12140     12134     12141     12134     12142
     12136     12143     12136     12144     12145     12146     12147     12148
     12145     12147     12147     12149     12147     12150     12145     12151
     12145     12152     12145     12153     12147     12154     12147     12155
     12156     12157     12158     12159     12156     12158     12158     12160
     12158     12161     12156     12162     12156     12163     12156     12164
     12158     12165     12158     12166     12167     12168     12169     12170
     12167     12169     12169     12171     12169     12172     12167     12173
     12167     12174     12167     12175     12169     12176     12169     12177
     12178     12179     12180     12181     12178     12180     12180     12182
     12180     12183     12178     12184     12178     12185     12178     12186
     12180     12187     12180     12188     12189     12190     12191     12192
     12189     12191     12191     12193     12191     12194     12189     12195
     12189     12196     12189     12197     12191     12198     12191     12199
     12200     12201     12202     12203     12200     12202     12202     12204
     12202     12205     12200     12206     12200     12207     12200     12208
     12202     12209     12202     12210     12211     12212     12213     12214
     12211     12213     12213     12215     12213     12216     12211     12217
     12211     12218     12211     12219     12213     12220     12213     12221
     12222     12223     12224     12225     12222     12224     12224     12226
     12224     12227     12222     12228     12222     12229     12222     12230
     12224     12231     12224     12232     12233     12234     12235     12236
     12233     12235     12235     12237     12235     12238     12233     12239
     12233     12240     12233     12241     12235     12242     12235     12243
     12244     12245     12246     12247     12244     12246     12246     12248
     12246     12249     12244     12250     12244     12251     12244     12252
     12246     12253     12246     12254     12255     12256     12257     12258
     12255     12257     12257     12259     12257     12260     12255     12261
     12255     12262     12255     12263     12257     12264     12257     12265
     12266     12267     12268     12269     12266     12268     12268     12270
     12268     12271     12266     12272     12266     12273     12266     12274
     12268     12275     12268     12276     12277     12278     12279     12280
     12277     12279     12279     12281     12279     12282     12277     12283
     12277     12284     12277     12285     12279     12286     12279     12287
     12288     12289     12290     12291     12288     12290     12290     12292
     12290     12293     12288     12294     12288     12295     12288     12296
     12290     12297     12290     12298     12299     12300     12301     12302
     12299     12301     12301     12303     12301     12304     12299     12305
     12299     12306     12299     12307     12301     12308     12301     12309
     12310     12311     12312     12313     12310     12312     12312     12314
     12312     12315     12310     12316     12310     12317     12310     12318
     12312     12319     12312     12320     12321     12322     12323     12324
     12321     12323     12323     12325     12323     12326     12321     12327
     12321     12328     12321     12329     12323     12330     12323     12331
     12332     12333     12334     12335     12332     12334     12334     12336
     12334     12337     12332     12338     12332     12339     12332     12340
     12334     12341     12334     12342     12343     12344     12345     12346
     12343     12345     12345     12347     12345     12348     12343     12349
     12343     12350     12343     12351     12345     12352     12345     12353
     12354     12355     12356     12357     12354     12356     12356     12358
     12356     12359     12354     12360     12354     12361     12354     12362
     12356     12363     12356     12364     12365     12366     12367     12368
     12365     12367     12367     12369     12367     12370     12365     12371
     12365     12372     12365     12373     12367     12374     12367     12375
     12376     12377     12378     12379     12376     12378     12378     12380
     12378     12381     12376     12382     12376     12383     12376     12384
     12378     12385     12378     12386     12387     12388     12389     12390
     12387     12389     12389     12391     12389     12392     12387     12393
     12387     12394     12387     12395     12389     12396     12389     12397
     12398     12399     12400     12401     12398     12400     12400     12402
     12400     12403     12398     12404     12398     12405     12398     12406
     12400     12407     12400     12408     12409     12410     12411     12412
     12409     12411     12411     12413     12411     12414     12409     12415
     12409     12416     12409     12417     12411     12418     12411     12419
     12420     12421     12422     12423     12420     12422     12422     12424
     12422     12425     12420     12426     12420     12427     12420     12428
     12422     12429     12422     12430     12431     12432     12433     12434
     12431     12433     12433     12435     12433     12436     12431     12437
     12431     12438     12431     12439     12433     12440     12433     12441
     12442     12443     12444     12445     12442     12444     12444     12446
     12444     12447     12442     12448     12442     12449     12442     12450
     12444     12451     12444     12452     12453     12454     12455     12456
     12453     12455     12455     12457     12455     12458     12453     12459
     12453     12460     12453     12461     12455     12462     12455     12463
     12464     12465     12466     12467     12464     12466     12466     12468
     12466     12469     12464     12470     12464     12471     12464     12472
     12466     12473     12466     12474     12475     12476     12477     12478
     12475     12477     12477     12479     12477     12480     12475     12481
     12475     12482     12475     12483     12477     12484     12477     12485
     12486     12487     12488     12489     12486     12488     12488     12490
     12488     12491     12486     12492     12486     12493     12486     12494
     12488     12495     12488     12496     12497     12498     12499     12500
     12497     12499     12499     12501     12499     12502     12497     12503
     12497     12504     12497     12505     12499     12506     12499     12507
     12508     12509     12510     12511     12508     12510     12510     12512
     12510     12513     12508     12514     12508     12515     12508     12516
     12510     12517     12510     12518     12519     12520     12521     12522
     12519     12521     12521     12523     12521     12524     12519     12525
     12519     12526     12519     12527     12521     12528     12521     12529
     12530     12531     12532     12533     12530     12532     12532     12534
     12532     12535     12530     12536     12530     12537     12530     12538
     12532     12539     12532     12540     12541     12542     12543     12544
     12541     12543     12543     12545     12543     12546     12541     12547
     12541     12548     12541     12549     12543     12550     12543     12551
     12552     12553     12554     12555     12552     12554     12554     12556
     12554     12557     12552     12558     12552     12559     12552     12560
     12554     12561     12554     12562     12563     12564     12565     12566
     12563     12565     12565     12567     12565     12568     12563     12569
     12563     12570     12563     12571     12565     12572     12565     12573
     12574     12575     12576     12577     12574     12576     12576     12578
     12576     12579     12574     12580     12574     12581     12574     12582
     12576     12583     12576     12584     12585     12586     12587     12588
     12585     12587     12587     12589     12587     12590     12585     12591
     12585     12592     12585     12593     12587     12594     12587     12595
     12596     12597     12598     12599     12596     12598     12598     12600
     12598     12601     12596     12602     12596     12603     12596     12604
     12598     12605     12598     12606     12607     12608     12609     12610
     12607     12609     12609     12611     12609     12612     12607     12613
     12607     12614     12607     12615     12609     12616     12609     12617
     12618     12619     12620     12621     12618     12620     12620     12622
     12620     12623     12618     12624     12618     12625     12618     12626
     12620     12627     12620     12628     12629     12630     12631     12632
     12629     12631     12631     12633     12631     12634     12629     12635
     12629     12636     12629     12637     12631     12638     12631     12639
     12640     12641     12642     12643     12640     12642     12642     12644
     12642     12645     12640     12646     12640     12647     12640     12648
     12642     12649     12642     12650     12651     12652     12653     12654
     12651     12653     12653     12655     12653     12656     12651     12657
     12651     12658     12651     12659     12653     12660     12653     12661
     12662     12663     12664     12665     12662     12664     12664     12666
     12664     12667     12662     12668     12662     12669     12662     12670
     12664     12671     12664     12672     12673     12674     12675     12676
     12673     12675     12675     12677     12675     12678     12673     12679
     12673     12680     12673     12681     12675     12682     12675     12683
     12684     12685     12686     12687     12684     12686     12686     12688
     12686     12689     12684     12690     12684     12691     12684     12692
     12686     12693     12686     12694     12695     12696     12697     12698
     12695     12697     12697     12699     12697     12700     12695     12701
     12695     12702     12695     12703     12697     12704     12697     12705
     12706     12707     12708     12709     12706     12708     12708     12710
     12708     12711     12706     12712     12706     12713     12706     12714
     12708     12715     12708     12716     12717     12718     12719     12720
     12717     12719     12719     12721     12719     12722     12717     12723
     12717     12724     12717     12725     12719     12726     12719     12727
     12728     12729     12730     12731     12728     12730     12730     12732
     12730     12733     12728     12734     12728     12735     12728     12736
     12730     12737     12730     12738     12739     12740     12741     12742
     12739     12741     12741     12743     12741     12744     12739     12745
     12739     12746     12739     12747     12741     12748     12741     12749
     12750     12751     12752     12753     12750     12752     12752     12754
     12752     12755     12750     12756     12750     12757     12750     12758
     12752     12759     12752     12760     12761     12762     12763     12764
     12761     12763     12763     12765     12763     12766     12761     12767
     12761     12768     12761     12769     12763     12770     12763     12771
     12772     12773     12774     12775     12772     12774     12774     12776
     12774     12777     12772     12778     12772     12779     12772     12780
     12774     12781     12774     12782     12783     12784     12785     12786
     12783     12785     12785     12787     12785     12788     12783     12789
     12783     12790     12783     12791     12785     12792     12785     12793
     12794     12795     12796     12797     12794     12796     12796     12798
     12796     12799     12794     12800     12794     12801     12794     12802
     12796     12803     12796     12804     12805     12806     12807     12808
     12805     12807     12807     12809     12807     12810     12805     12811
     12805     12812     12805     12813     12807     12814     12807     12815
     12816     12817     12818     12819     12816     12818     12818     12820
     12818     12821     12816     12822     12816     12823     12816     12824
     12818     12825     12818     12826     12827     12828     12829     12830
     12827     12829     12829     12831     12829     12832     12827     12833
     12827     12834     12827     12835     12829     12836     12829     12837
     12838     12839     12840     12841     12838     12840     12840     12842
     12840     12843     12838     12844     12838     12845     12838     12846
     12840     12847     12840     12848     12849     12850     12851     12852
     12849     12851     12851     12853     12851     12854     12849     12855
     12849     12856     12849     12857     12851     12858     12851     12859
     12860     12861     12862     12863     12860     12862     12862     12864
     12862     12865     12860     12866     12860     12867     12860     12868
     12862     12869     12862     12870     12871     12872     12873     12874
     12871     12873     12873     12875     12873     12876     12871     12877
     12871     12878     12871     12879     12873     12880     12873     12881
     12882     12883     12884     12885     12882     12884     12884     12886
     12884     12887     12882     12888     12882     12889     12882     12890
     12884     12891     12884     12892     12893     12894     12895     12896
     12893     12895     12895     12897     12895     12898     12893     12899
     12893     12900     12893     12901     12895     12902     12895     12903
     12904     12905     12906     12907     12904     12906     12906     12908
     12906     12909     12904     12910     12904     12911     12904     12912
     12906     12913     12906     12914     12915     12916     12917     12918
     12915     12917     12917     12919     12917     12920     12915     12921
     12915     12922     12915     12923     12917     12924     12917     12925
     12926     12927     12928     12929     12926     12928     12928     12930
     12928     12931     12926     12932     12926     12933     12926     12934
     12928     12935     12928     12936     12937     12938     12939     12940
     12937     12939     12939     12941     12939     12942     12937     12943
     12937     12944     12937     12945     12939     12946     12939     12947
     12948     12949     12950     12951     12948     12950     12950     12952
     12950     12953     12948     12954     12948     12955     12948     12956
     12950     12957     12950     12958     12959     12960     12961     12962
     12959     12961     12961     12963     12961     12964     12959     12965
     12959     12966     12959     12967     12961     12968     12961     12969
     12970     12971     12972     12973     12970     12972     12972     12974
     12972     12975     12970     12976     12970     12977     12970     12978
     12972     12979     12972     12980     12981     12982     12983     12984
     12981     12983     12983     12985     12983     12986     12981     12987
     12981     12988     12981     12989     12983     12990     12983     12991
     12992     12993     12994     12995     12992     12994     12994     12996
     12994     12997     12992     12998     12992     12999     12992     13000
     12994     13001     12994     13002     13003     13004     13005     13006
     13003     13005     13005     13007     13005     13008     13003     13009
     13003     13010     13003     13011     13005     13012     13005     13013
     13014     13015     13016     13017     13014     13016     13016     13018
     13016     13019     13014     13020     13014     13021     13014     13022
     13016     13023     13016     13024     13025     13026     13027     13028
     13025     13027     13027     13029     13027     13030     13025     13031
     13025     13032     13025     13033     13027     13034     13027     13035
     13036     13037     13038     13039     13036     13038     13038     13040
     13038     13041     13036     13042     13036     13043     13036     13044
     13038     13045     13038     13046     13047     13048     13049     13050
     13047     13049     13049     13051     13049     13052     13047     13053
     13047     13054     13047     13055     13049     13056     13049     13057
     13058     13059     13060     13061     13058     13060     13060     13062
     13060     13063     13058     13064     13058     13065     13058     13066
     13060     13067     13060     13068     13069     13070     13071     13072
     13069     13071     13071     13073     13071     13074     13069     13075
     13069     13076     13069     13077     13071     13078     13071     13079
     13080     13081     13082     13083     13080     13082     13082     13084
     13082     13085     13080     13086     13080     13087     13080     13088
     13082     13089     13082     13090     13091     13092     13093     13094
     13091     13093     13093     13095     13093     13096     13091     13097
     13091     13098     13091     13099     13093     13100     13093     13101
     13102     13103     13104     13105     13102     13104     13104     13106
     13104     13107     13102     13108     13102     13109     13102     13110
     13104     13111     13104     13112     13113     13114     13115     13116
     13113     13115     13115     13117     13115     13118     13113     13119
     13113     13120     13113     13121     13115     13122     13115     13123
     13124     13125     13126     13127     13124     13126     13126     13128
     13126     13129     13124     13130     13124     13131     13124     13132
     13126     13133     13126     13134     13135     13136     13137     13138
     13135     13137     13137     13139     13137     13140     13135     13141
     13135     13142     13135     13143     13137     13144     13137     13145
     13146     13147     13148     13149     13146     13148     13148     13150
     13148     13151     13146     13152     13146     13153     13146     13154
     13148     13155     13148     13156     13157     13158     13159     13160
     13157     13159     13159     13161     13159     13162     13157     13163
     13157     13164     13157     13165     13159     13166     13159     13167
     13168     13169     13170     13171     13168     13170     13170     13172
     13170     13173     13168     13174     13168     13175     13168     13176
     13170     13177     13170     13178     13179     13180     13181     13182
     13179     13181     13181     13183     13181     13184     13179     13185
     13179     13186     13179     13187     13181     13188     13181     13189
     13190     13191     13192     13193     13190     13192     13192     13194
     13192     13195     13190     13196     13190     13197     13190     13198
     13192     13199     13192     13200     13201     13202     13203     13204
     13201     13203     13203     13205     13203     13206     13201     13207
     13201     13208     13201     13209     13203     13210     13203     13211
     13212     13213     13214     13215     13212     13214     13214     13216
     13214     13217     13212     13218     13212     13219     13212     13220
     13214     13221     13214     13222     13223     13224     13225     13226
     13223     13225     13225     13227     13225     13228     13223     13229
     13223     13230     13223     13231     13225     13232     13225     13233
     13234     13235     13236     13237     13234     13236     13236     13238
     13236     13239     13234     13240     13234     13241     13234     13242
     13236     13243     13236     13244     13245     13246     13247     13248
     13245     13247     13247     13249     13247     13250     13245     13251
     13245     13252     13245     13253     13247     13254     13247     13255
     13256     13257     13258     13259     13256     13258     13258     13260
     13258     13261     13256     13262     13256     13263     13256     13264
     13258     13265     13258     13266     13267     13268     13269     13270
     13267     13269     13269     13271     13269     13272     13267     13273
     13267     13274     13267     13275     13269     13276     13269     13277
     13278     13279     13280     13281     13278     13280     13280     13282
     13280     13283     13278     13284     13278     13285     13278     13286
     13280     13287     13280     13288     13289     13290     13291     13292
     13289     13291     13291     13293     13291     13294     13289     13295
     13289     13296     13289     13297     13291     13298     13291     13299
     13300     13301     13302     13303     13300     13302     13302     13304
     13302     13305     13300     13306     13300     13307     13300     13308
     13302     13309     13302     13310     13311     13312     13313     13314
     13311     13313     13313     13315     13313     13316     13311     13317
     13311     13318     13311     13319     13313     13320     13313     13321
     13322     13323     13324     13325     13322     13324     13324     13326
     13324     13327     13322     13328     13322     13329     13322     13330
     13324     13331     13324     13332     13333     13334     13335     13336
     13333     13335     13335     13337     13335     13338     13333     13339
     13333     13340     13333     13341     13335     13342     13335     13343
     13344     13345     13346     13347     13344     13346     13346     13348
     13346     13349     13344     13350     13344     13351     13344     13352
     13346     13353     13346     13354     13355     13356     13357     13358
     13355     13357     13357     13359     13357     13360     13355     13361
     13355     13362     13355     13363     13357     13364     13357     13365
     13366     13367     13368     13369     13366     13368     13368     13370
     13368     13371     13366     13372     13366     13373     13366     13374
     13368     13375     13368     13376     13377     13378     13379     13380
     13377     13379     13379     13381     13379     13382     13377     13383
     13377     13384     13377     13385     13379     13386     13379     13387
     13388     13389     13390     13391     13388     13390     13390     13392
     13390     13393     13388     13394     13388     13395     13388     13396
     13390     13397     13390     13398     13399     13400     13401     13402
     13399     13401     13401     13403     13401     13404     13399     13405
     13399     13406     13399     13407     13401     13408     13401     13409
     13410     13411     13412     13413     13410     13412     13412     13414
     13412     13415     13410     13416     13410     13417     13410     13418
     13412     13419     13412     13420     13421     13422     13423     13424
     13421     13423     13423     13425     13423     13426     13421     13427
     13421     13428     13421     13429     13423     13430     13423     13431
     13432     13433     13434     13435     13432     13434     13434     13436
     13434     13437     13432     13438     13432     13439     13432     13440
     13434     13441     13434     13442     13443     13444     13445     13446
     13443     13445     13445     13447     13445     13448     13443     13449
     13443     13450     13443     13451     13445     13452     13445     13453
     13454     13455     13456     13457     13454     13456     13456     13458
     13456     13459     13454     13460     13454     13461     13454     13462
     13456     13463     13456     13464     13465     13466     13467     13468
     13465     13467     13467     13469     13467     13470     13465     13471
     13465     13472     13465     13473     13467     13474     13467     13475
     13476     13477     13478     13479     13476     13478     13478     13480
     13478     13481     13476     13482     13476     13483     13476     13484
     13478     13485     13478     13486     13487     13488     13489     13490
     13487     13489     13489     13491     13489     13492     13487     13493
     13487     13494     13487     13495     13489     13496     13489     13497
     13498     13499     13500     13501     13498     13500     13500     13502
     13500     13503     13498     13504     13498     13505     13498     13506
     13500     13507     13500     13508     13509     13510     13511     13512
     13509     13511     13511     13513     13511     13514     13509     13515
     13509     13516     13509     13517     13511     13518     13511     13519
     13520     13521     13522     13523     13520     13522     13522     13524
     13522     13525     13520     13526     13520     13527     13520     13528
     13522     13529     13522     13530     13531     13532     13533     13534
     13531     13533     13533     13535     13533     13536     13531     13537
     13531     13538     13531     13539     13533     13540     13533     13541
     13542     13543     13544     13545     13542     13544     13544     13546
     13544     13547     13542     13548     13542     13549     13542     13550
     13544     13551     13544     13552     13553     13554     13555     13556
     13553     13555     13555     13557     13555     13558     13553     13559
     13553     13560     13553     13561     13555     13562     13555     13563
     13564     13565     13566     13567     13564     13566     13566     13568
     13566     13569     13564     13570     13564     13571     13564     13572
     13566     13573     13566     13574     13575     13576     13577     13578
     13575     13577     13577     13579     13577     13580     13575     13581
     13575     13582     13575     13583     13577     13584     13577     13585
     13586     13587     13588     13589     13586     13588     13588     13590
     13588     13591     13586     13592     13586     13593     13586     13594
     13588     13595     13588     13596     13597     13598     13599     13600
     13597     13599     13599     13601     13599     13602     13597     13603
     13597     13604     13597     13605     13599     13606     13599     13607
     13608     13609     13610     13611     13608     13610     13610     13612
     13610     13613     13608     13614     13608     13615     13608     13616
     13610     13617     13610     13618     13619     13620     13621     13622
     13619     13621     13621     13623     13621     13624     13619     13625
     13619     13626     13619     13627     13621     13628     13621     13629
     13630     13631     13632     13633     13630     13632     13632     13634
     13632     13635     13630     13636     13630     13637     13630     13638
     13632     13639     13632     13640     13641     13642     13643     13644
     13641     13643     13643     13645     13643     13646     13641     13647
     13641     13648     13641     13649     13643     13650     13643     13651
     13652     13653     13654     13655     13652     13654     13654     13656
     13654     13657     13652     13658     13652     13659     13652     13660
     13654     13661     13654     13662     13663     13664     13665     13666
     13663     13665     13665     13667     13665     13668     13663     13669
     13663     13670     13663     13671     13665     13672     13665     13673
     13674     13675     13676     13677     13674     13676     13676     13678
     13676     13679     13674     13680     13674     13681     13674     13682
     13676     13683     13676     13684     13685     13686     13687     13688
     13685     13687     13687     13689     13687     13690     13685     13691
     13685     13692     13685     13693     13687     13694     13687     13695
     13696     13697     13698     13699     13696     13698     13698     13700
     13698     13701     13696     13702     13696     13703     13696     13704
     13698     13705     13698     13706     13707     13708     13709     13710
     13707     13709     13709     13711     13709     13712     13707     13713
     13707     13714     13707     13715     13709     13716     13709     13717
     13718     13719     13720     13721     13718     13720     13720     13722
     13720     13723     13718     13724     13718     13725     13718     13726
     13720     13727     13720     13728     13729     13730     13731     13732
     13729     13731     13731     13733     13731     13734     13729     13735
     13729     13736     13729     13737     13731     13738     13731     13739
     13740     13741     13742     13743     13740     13742     13742     13744
     13742     13745     13740     13746     13740     13747     13740     13748
     13742     13749     13742     13750     13751     13752     13753     13754
     13751     13753     13753     13755     13753     13756     13751     13757
     13751     13758     13751     13759     13753     13760     13753     13761
     13762     13763     13764     13765     13762     13764     13764     13766
     13764     13767     13762     13768     13762     13769     13762     13770
     13764     13771     13764     13772     13773     13774     13775     13776
     13773     13775     13775     13777     13775     13778     13773     13779
     13773     13780     13773     13781     13775     13782     13775     13783
     13784     13785     13786     13787     13784     13786     13786     13788
     13786     13789     13784     13790     13784     13791     13784     13792
     13786     13793     13786     13794     13795     13796     13797     13798
     13795     13797     13797     13799     13797     13800     13795     13801
     13795     13802     13795     13803     13797     13804     13797     13805
     13806     13807     13808     13809     13806     13808     13808     13810
     13808     13811     13806     13812     13806     13813     13806     13814
     13808     13815     13808     13816     13817     13818     13819     13820
     13817     13819     13819     13821     13819     13822     13817     13823
     13817     13824     13817     13825     13819     13826     13819     13827
     13828     13829     13830     13831     13828     13830     13830     13832
     13830     13833     13828     13834     13828     13835     13828     13836
     13830     13837     13830     13838     13839     13840     13841     13842
     13839     13841     13841     13843     13841     13844     13839     13845
     13839     13846     13839     13847     13841     13848     13841     13849
     13850     13851     13852     13853     13850     13852     13852     13854
     13852     13855     13850     13856     13850     13857     13850     13858
     13852     13859     13852     13860     13861     13862     13863     13864
     13861     13863     13863     13865     13863     13866     13861     13867
     13861     13868     13861     13869     13863     13870     13863     13871
     13872     13873     13874     13875     13872     13874     13874     13876
     13874     13877     13872     13878     13872     13879     13872     13880
     13874     13881     13874     13882     13883     13884     13885     13886
     13883     13885     13885     13887     13885     13888     13883     13889
     13883     13890     13883     13891     13885     13892     13885     13893
     13894     13895     13896     13897     13894     13896     13896     13898
     13896     13899     13894     13900     13894     13901     13894     13902
     13896     13903     13896     13904     13905     13906     13907     13908
     13905     13907     13907     13909     13907     13910     13905     13911
     13905     13912     13905     13913     13907     13914     13907     13915
     13916     13917     13918     13919     13916     13918     13918     13920
     13918     13921     13916     13922     13916     13923     13916     13924
     13918     13925     13918     13926     13927     13928     13929     13930
     13927     13929     13929     13931     13929     13932     13927     13933
     13927     13934     13927     13935     13929     13936     13929     13937
     13938     13939     13940     13941     13938     13940     13940     13942
     13940     13943     13938     13944     13938     13945     13938     13946
     13940     13947     13940     13948     13949     13950     13951     13952
     13949     13951     13951     13953     13951     13954     13949     13955
     13949     13956     13949     13957     13951     13958     13951     13959
     13960     13961     13962     13963     13960     13962     13962     13964
     13962     13965     13960     13966     13960     13967     13960     13968
     13962     13969     13962     13970     13971     13972     13973     13974
     13971     13973     13973     13975     13973     13976     13971     13977
     13971     13978     13971     13979     13973     13980     13973     13981
     13982     13983     13984     13985     13982     13984     13984     13986
     13984     13987     13982     13988     13982     13989     13982     13990
     13984     13991     13984     13992     13993     13994     13995     13996
     13993     13995     13995     13997     13995     13998     13993     13999
     13993     14000     13993     14001     13995     14002     13995     14003
     14004     14005     14006     14007     14004     14006     14006     14008
     14006     14009     14004     14010     14004     14011     14004     14012
     14006     14013     14006     14014     14015     14016     14017     14018
     14015     14017     14017     14019     14017     14020     14015     14021
     14015     14022     14015     14023     14017     14024     14017     14025
     14026     14027     14028     14029     14026     14028     14028     14030
     14028     14031     14026     14032     14026     14033     14026     14034
     14028     14035     14028     14036     14037     14038     14039     14040
     14037     14039     14039     14041     14039     14042     14037     14043
     14037     14044     14037     14045     14039     14046     14039     14047
     14048     14049     14050     14051     14048     14050     14050     14052
     14050     14053     14048     14054     14048     14055     14048     14056
     14050     14057     14050     14058     14059     14060     14061     14062
     14059     14061     14061     14063     14061     14064     14059     14065
     14059     14066     14059     14067     14061     14068     14061     14069
     14070     14071     14072     14073     14070     14072     14072     14074
     14072     14075     14070     14076     14070     14077     14070     14078
     14072     14079     14072     14080     14081     14082     14083     14084
     14081     14083     14083     14085     14083     14086     14081     14087
     14081     14088     14081     14089     14083     14090     14083     14091
     14092     14093     14094     14095     14092     14094     14094     14096
     14094     14097     14092     14098     14092     14099     14092     14100
     14094     14101     14094     14102     14103     14104     14105     14106
     14103     14105     14105     14107     14105     14108     14103     14109
     14103     14110     14103     14111     14105     14112     14105     14113
     14114     14115     14116     14117     14114     14116     14116     14118
     14116     14119     14114     14120     14114     14121     14114     14122
     14116     14123     14116     14124     14125     14126     14127     14128
     14125     14127     14127     14129     14127     14130     14125     14131
     14125     14132     14125     14133     14127     14134     14127     14135
     14136     14137     14138     14139     14136     14138     14138     14140
     14138     14141     14136     14142     14136     14143     14136     14144
     14138     14145     14138     14146     14147     14148     14149     14150
     14147     14149     14149     14151     14149     14152     14147     14153
     14147     14154     14147     14155     14149     14156     14149     14157
     14158     14159     14160     14161     14158     14160     14160     14162
     14160     14163     14158     14164     14158     14165     14158     14166
     14160     14167     14160     14168     14169     14170     14171     14172
     14169     14171     14171     14173     14171     14174     14169     14175
     14169     14176     14169     14177     14171     14178     14171     14179
     14180     14181     14182     14183     14180     14182     14182     14184
     14182     14185     14180     14186     14180     14187     14180     14188
     14182     14189     14182     14190     14191     14192     14193     14194
     14191     14193     14193     14195     14193     14196     14191     14197
     14191     14198     14191     14199     14193     14200     14193     14201
     14202     14203     14204     14205     14202     14204     14204     14206
     14204     14207     14202     14208     14202     14209     14202     14210
     14204     14211     14204     14212     14213     14214     14215     14216
     14213     14215     14215     14217     14215     14218     14213     14219
     14213     14220     14213     14221     14215     14222     14215     14223
     14224     14225     14226     14227     14224     14226     14226     14228
     14226     14229     14224     14230     14224     14231     14224     14232
     14226     14233     14226     14234     14235     14236     14237     14238
     14235     14237     14237     14239     14237     14240     14235     14241
     14235     14242     14235     14243     14237     14244     14237     14245
     14246     14247     14248     14249     14246     14248     14248     14250
     14248     14251     14246     14252     14246     14253     14246     14254
     14248     14255     14248     14256     14257     14258     14259     14260
     14257     14259     14259     14261     14259     14262     14257     14263
     14257     14264     14257     14265     14259     14266     14259     14267
     14268     14269     14270     14271     14268     14270     14270     14272
     14270     14273     14268     14274     14268     14275     14268     14276
     14270     14277     14270     14278     14279     14280     14281     14282
     14279     14281     14281     14283     14281     14284     14279     14285
     14279     14286     14279     14287     14281     14288     14281     14289
     14290     14291     14292     14293     14290     14292     14292     14294
     14292     14295     14290     14296     14290     14297     14290     14298
     14292     14299     14292     14300     14301     14302     14303     14304
     14301     14303     14303     14305     14303     14306     14301     14307
     14301     14308     14301     14309     14303     14310     14303     14311
     14312     14313     14314     14315     14312     14314     14314     14316
     14314     14317     14312     14318     14312     14319     14312     14320
     14314     14321     14314     14322     14323     14324     14325     14326
     14323     14325     14325     14327     14325     14328     14323     14329
     14323     14330     14323     14331     14325     14332     14325     14333
     14334     14335     14336     14337     14334     14336     14336     14338
     14336     14339     14334     14340     14334     14341     14334     14342
     14336     14343     14336     14344     14345     14346     14347     14348
     14345     14347     14347     14349     14347     14350     14345     14351
     14345     14352     14345     14353     14347     14354     14347     14355
     14356     14357     14358     14359     14356     14358     14358     14360
     14358     14361     14356     14362     14356     14363     14356     14364
     14358     14365     14358     14366     14367     14368     14369     14370
     14367     14369     14369     14371     14369     14372     14367     14373
     14367     14374     14367     14375     14369     14376     14369     14377
     14378     14379     14380     14381     14378     14380     14380     14382
     14380     14383     14378     14384     14378     14385     14378     14386
     14380     14387     14380     14388     14389     14390     14391     14392
     14389     14391     14391     14393     14391     14394     14389     14395
     14389     14396     14389     14397     14391     14398     14391     14399
     14400     14401     14402     14403     14400     14402     14402     14404
     14402     14405     14400     14406     14400     14407     14400     14408
     14402     14409     14402     14410     14411     14412     14413     14414
     14411     14413     14413     14415     14413     14416     14411     14417
     14411     14418     14411     14419     14413     14420     14413     14421
     14422     14423     14424     14425     14422     14424     14424     14426
     14424     14427     14422     14428     14422     14429     14422     14430
     14424     14431     14424     14432     14433     14434     14435     14436
     14433     14435     14435     14437     14435     14438     14433     14439
     14433     14440     14433     14441     14435     14442     14435     14443
     14444     14445     14446     14447     14444     14446     14446     14448
     14446     14449     14444     14450     14444     14451     14444     14452
     14446     14453     14446     14454     14455     14456     14457     14458
     14455     14457     14457     14459     14457     14460     14455     14461
     14455     14462     14455     14463     14457     14464     14457     14465
     14466     14467     14468     14469     14466     14468     14468     14470
     14468     14471     14466     14472     14466     14473     14466     14474
     14468     14475     14468     14476     14477     14478     14479     14480
     14477     14479     14479     14481     14479     14482     14477     14483
     14477     14484     14477     14485     14479     14486     14479     14487
     14488     14489     14490     14491     14488     14490     14490     14492
     14490     14493     14488     14494     14488     14495     14488     14496
     14490     14497     14490     14498     14499     14500     14501     14502
     14499     14501     14501     14503     14501     14504     14499     14505
     14499     14506     14499     14507     14501     14508     14501     14509
     14510     14511     14512     14513     14510     14512     14512     14514
     14512     14515     14510     14516     14510     14517     14510     14518
     14512     14519     14512     14520     14521     14522     14523     14524
     14521     14523     14523     14525     14523     14526     14521     14527
     14521     14528     14521     14529     14523     14530     14523     14531
     14532     14533     14534     14535     14532     14534     14534     14536
     14534     14537     14532     14538     14532     14539     14532     14540
     14534     14541     14534     14542     14543     14544     14545     14546
     14543     14545     14545     14547     14545     14548     14543     14549
     14543     14550     14543     14551     14545     14552     14545     14553
     14554     14555     14556     14557     14554     14556     14556     14558
     14556     14559     14554     14560     14554     14561     14554     14562
     14556     14563     14556     14564     14565     14566     14567     14568
     14565     14567     14567     14569     14567     14570     14565     14571
     14565     14572     14565     14573     14567     14574     14567     14575
     14576     14577     14578     14579     14576     14578     14578     14580
     14578     14581     14576     14582     14576     14583     14576     14584
     14578     14585     14578     14586     14587     14588     14589     14590
     14587     14589     14589     14591     14589     14592     14587     14593
     14587     14594     14587     14595     14589     14596     14589     14597
     14598     14599     14600     14601     14598     14600     14600     14602
     14600     14603     14598     14604     14598     14605     14598     14606
     14600     14607     14600     14608     14609     14610     14611     14612
     14609     14611     14611     14613     14611     14614     14609     14615
     14609     14616     14609     14617     14611     14618     14611     14619
     14620     14621     14622     14623     14620     14622     14622     14624
     14622     14625     14620     14626     14620     14627     14620     14628
     14622     14629     14622     14630     14631     14632     14633     14634
     14631     14633     14633     14635     14633     14636     14631     14637
     14631     14638     14631     14639     14633     14640     14633     14641
     14642     14643     14644     14645     14642     14644     14644     14646
     14644     14647     14642     14648     14642     14649     14642     14650
     14644     14651     14644     14652     14653     14654     14655     14656
     14653     14655     14655     14657     14655     14658     14653     14659
     14653     14660     14653     14661     14655     14662     14655     14663
     14664     14665     14666     14667     14664     14666     14666     14668
     14666     14669     14664     14670     14664     14671     14664     14672
     14666     14673     14666     14674     14675     14676     14677     14678
     14675     14677     14677     14679     14677     14680     14675     14681
     14675     14682     14675     14683     14677     14684     14677     14685
     14686     14687     14688     14689     14686     14688     14688     14690
     14688     14691     14686     14692     14686     14693     14686     14694
     14688     14695     14688     14696     14697     14698     14699     14700
     14697     14699     14699     14701     14699     14702     14697     14703
     14697     14704     14697     14705     14699     14706     14699     14707
     14708     14709     14710     14711     14708     14710     14710     14712
     14710     14713     14708     14714     14708     14715     14708     14716
     14710     14717     14710     14718     14719     14720     14721     14722
     14719     14721     14721     14723     14721     14724     14719     14725
     14719     14726     14719     14727     14721     14728     14721     14729
     14730     14731     14732     14733     14730     14732     14732     14734
     14732     14735     14730     14736     14730     14737     14730     14738
     14732     14739     14732     14740     14741     14742     14743     14744
     14741     14743     14743     14745     14743     14746     14741     14747
     14741     14748     14741     14749     14743     14750     14743     14751
     14752     14753     14754     14755     14752     14754     14754     14756
     14754     14757     14752     14758     14752     14759     14752     14760
     14754     14761     14754     14762     14763     14764     14765     14766
     14763     14765     14765     14767     14765     14768     14763     14769
     14763     14770     14763     14771     14765     14772     14765     14773
     14774     14775     14776     14777     14774     14776     14776     14778
     14776     14779     14774     14780     14774     14781     14774     14782
     14776     14783     14776     14784     14785     14786     14787     14788
     14785     14787     14787     14789     14787     14790     14785     14791
     14785     14792     14785     14793     14787     14794     14787     14795
     14796     14797     14798     14799     14796     14798     14798     14800
     14798     14801     14796     14802     14796     14803     14796     14804
     14798     14805     14798     14806     14807     14808     14809     14810
     14807     14809     14809     14811     14809     14812     14807     14813
     14807     14814     14807     14815     14809     14816     14809     14817
     14818     14819     14820     14821     14818     14820     14820     14822
     14820     14823     14818     14824     14818     14825     14818     14826
     14820     14827     14820     14828     14829     14830     14831     14832
     14829     14831     14831     14833     14831     14834     14829     14835
     14829     14836     14829     14837     14831     14838     14831     14839
     14840     14841     14842     14843     14840     14842     14842     14844
     14842     14845     14840     14846     14840     14847     14840     14848
     14842     14849     14842     14850     14851     14852     14853     14854
     14851     14853     14853     14855     14853     14856     14851     14857
     14851     14858     14851     14859     14853     14860     14853     14861
     14862     14863     14864     14865     14862     14864     14864     14866
     14864     14867     14862     14868     14862     14869     14862     14870
     14864     14871     14864     14872     14873     14874     14875     14876
     14873     14875     14875     14877     14875     14878     14873     14879
     14873     14880     14873     14881     14875     14882     14875     14883
     14884     14885     14886     14887     14884     14886     14886     14888
     14886     14889     14884     14890     14884     14891     14884     14892
     14886     14893     14886     14894     14895     14896     14897     14898
     14895     14897     14897     14899     14897     14900     14895     14901
     14895     14902     14895     14903     14897     14904     14897     14905
     14906     14907     14908     14909     14906     14908     14908     14910
     14908     14911     14906     14912     14906     14913     14906     14914
     14908     14915     14908     14916     14917     14918     14919     14920
     14917     14919     14919     14921     14919     14922     14917     14923
     14917     14924     14917     14925     14919     14926     14919     14927
     14928     14929     14930     14931     14928     14930     14930     14932
     14930     14933     14928     14934     14928     14935     14928     14936
     14930     14937     14930     14938     14939     14940     14941     14942
     14939     14941     14941     14943     14941     14944     14939     14945
     14939     14946     14939     14947     14941     14948     14941     14949
     14950     14951     14952     14953     14950     14952     14952     14954
     14952     14955     14950     14956     14950     14957     14950     14958
     14952     14959     14952     14960     14961     14962     14963     14964
     14961     14963     14963     14965     14963     14966     14961     14967
     14961     14968     14961     14969     14963     14970     14963     14971
     14972     14973     14974     14975     14972     14974     14974     14976
     14974     14977     14972     14978     14972     14979     14972     14980
     14974     14981     14974     14982     14983     14984     14985     14986
     14983     14985     14985     14987     14985     14988     14983     14989
     14983     14990     14983     14991     14985     14992     14985     14993
     14994     14995     14996     14997     14994     14996     14996     14998
     14996     14999     14994     15000     14994     15001     14994     15002
     14996     15003     14996     15004     15005     15006     15007     15008
     15005     15007     15007     15009     15007     15010     15005     15011
     15005     15012     15005     15013     15007     15014     15007     15015
     15016     15017     15018     15019     15016     15018     15018     15020
     15018     15021     15016     15022     15016     15023     15016     15024
     15018     15025     15018     15026     15027     15028     15029     15030
     15027     15029     15029     15031     15029     15032     15027     15033
     15027     15034     15027     15035     15029     15036     15029     15037
     15038     15039     15040     15041     15038     15040     15040     15042
     15040     15043     15038     15044     15038     15045     15038     15046
     15040     15047     15040     15048     15049     15050     15051     15052
     15049     15051     15051     15053     15051     15054     15049     15055
     15049     15056     15049     15057     15051     15058     15051     15059
     15060     15061     15062     15063     15060     15062     15062     15064
     15062     15065     15060     15066     15060     15067     15060     15068
     15062     15069     15062     15070     15071     15072     15073     15074
     15071     15073     15073     15075     15073     15076     15071     15077
     15071     15078     15071     15079     15073     15080     15073     15081
     15082     15083     15084     15085     15082     15084     15084     15086
     15084     15087     15082     15088     15082     15089     15082     15090
     15084     15091     15084     15092     15093     15094     15095     15096
     15093     15095     15095     15097     15095     15098     15093     15099
     15093     15100     15093     15101     15095     15102     15095     15103
     15104     15105     15106     15107     15104     15106     15106     15108
     15106     15109     15104     15110     15104     15111     15104     15112
     15106     15113     15106     15114     15115     15116     15117     15118
     15115     15117     15117     15119     15117     15120     15115     15121
     15115     15122     15115     15123     15117     15124     15117     15125
     15126     15127     15128     15129     15126     15128     15128     15130
     15128     15131     15126     15132     15126     15133     15126     15134
     15128     15135     15128     15136     15137     15138     15139     15140
     15137     15139     15139     15141     15139     15142     15137     15143
     15137     15144     15137     15145     15139     15146     15139     15147
     15148     15149     15150     15151     15148     15150     15150     15152
     15150     15153     15148     15154     15148     15155     15148     15156
     15150     15157     15150     15158     15159     15160     15161     15162
     15159     15161     15161     15163     15161     15164     15159     15165
     15159     15166     15159     15167     15161     15168     15161     15169
     15170     15171     15172     15173     15170     15172     15172     15174
     15172     15175     15170     15176     15170     15177     15170     15178
     15172     15179     15172     15180     15181     15182     15183     15184
     15181     15183     15183     15185     15183     15186     15181     15187
     15181     15188     15181     15189     15183     15190     15183     15191
     15192     15193     15194     15195     15192     15194     15194     15196
     15194     15197     15192     15198     15192     15199     15192     15200
     15194     15201     15194     15202     15203     15204     15205     15206
     15203     15205     15205     15207     15205     15208     15203     15209
     15203     15210     15203     15211     15205     15212     15205     15213
     15214     15215     15216     15217     15214     15216     15216     15218
     15216     15219     15214     15220     15214     15221     15214     15222
     15216     15223     15216     15224     15225     15226     15227     15228
     15225     15227     15227     15229     15227     15230     15225     15231
     15225     15232     15225     15233     15227     15234     15227     15235
     15236     15237     15238     15239     15236     15238     15238     15240
     15238     15241     15236     15242     15236     15243     15236     15244
     15238     15245     15238     15246     15247     15248     15249     15250
     15247     15249     15249     15251     15249     15252     15247     15253
     15247     15254     15247     15255     15249     15256     15249     15257
     15258     15259     15260     15261     15258     15260     15260     15262
     15260     15263     15258     15264     15258     15265     15258     15266
     15260     15267     15260     15268     15269     15270     15271     15272
     15269     15271     15271     15273     15271     15274     15269     15275
     15269     15276     15269     15277     15271     15278     15271     15279
     15280     15281     15282     15283     15280     15282     15282     15284
     15282     15285     15280     15286     15280     15287     15280     15288
     15282     15289     15282     15290     15291     15292     15293     15294
     15291     15293     15293     15295     15293     15296     15291     15297
     15291     15298     15291     15299     15293     15300     15293     15301
     15302     15303     15304     15305     15302     15304     15304     15306
     15304     15307     15302     15308     15302     15309     15302     15310
     15304     15311     15304     15312     15313     15314     15315     15316
     15313     15315     15315     15317     15315     15318     15313     15319
     15313     15320     15313     15321     15315     15322     15315     15323
     15324     15325     15326     15327     15324     15326     15326     15328
     15326     15329     15324     15330     15324     15331     15324     15332
     15326     15333     15326     15334     15335     15336     15337     15338
     15335     15337     15337     15339     15337     15340     15335     15341
     15335     15342     15335     15343     15337     15344     15337     15345
     15346     15347     15348     15349     15346     15348     15348     15350
     15348     15351     15346     15352     15346     15353     15346     15354
     15348     15355     15348     15356     15357     15358     15359     15360
     15357     15359     15359     15361     15359     15362     15357     15363
     15357     15364     15357     15365     15359     15366     15359     15367
     15368     15369     15370     15371     15368     15370     15370     15372
     15370     15373     15368     15374     15368     15375     15368     15376
     15370     15377     15370     15378     15379     15380     15381     15382
     15379     15381     15381     15383     15381     15384     15379     15385
     15379     15386     15379     15387     15381     15388     15381     15389
     15390     15391     15392     15393     15390     15392     15392     15394
     15392     15395     15390     15396     15390     15397     15390     15398
     15392     15399     15392     15400     15401     15402     15403     15404
     15401     15403     15403     15405     15403     15406     15401     15407
     15401     15408     15401     15409     15403     15410     15403     15411
     15412     15413     15414     15415     15412     15414     15414     15416
     15414     15417     15412     15418     15412     15419     15412     15420
     15414     15421     15414     15422     15423     15424     15425     15426
     15423     15425     15425     15427     15425     15428     15423     15429
     15423     15430     15423     15431     15425     15432     15425     15433
     15434     15435     15436     15437     15434     15436     15436     15438
     15436     15439     15434     15440     15434     15441     15434     15442
     15436     15443     15436     15444     15445     15446     15447     15448
     15445     15447     15447     15449     15447     15450     15445     15451
     15445     15452     15445     15453     15447     15454     15447     15455
     15456     15457     15458     15459     15456     15458     15458     15460
     15458     15461     15456     15462     15456     15463     15456     15464
     15458     15465     15458     15466     15467     15468     15469     15470
     15467     15469     15469     15471     15469     15472     15467     15473
     15467     15474     15467     15475     15469     15476     15469     15477
     15478     15479     15480     15481     15478     15480     15480     15482
     15480     15483     15478     15484     15478     15485     15478     15486
     15480     15487     15480     15488     15489     15490     15491     15492
     15489     15491     15491     15493     15491     15494     15489     15495
     15489     15496     15489     15497     15491     15498     15491     15499
     15500     15501     15502     15503     15500     15502     15502     15504
     15502     15505     15500     15506     15500     15507     15500     15508
     15502     15509     15502     15510     15511     15512     15513     15514
     15511     15513     15513     15515     15513     15516     15511     15517
     15511     15518     15511     15519     15513     15520     15513     15521
     15522     15523     15524     15525     15522     15524     15524     15526
     15524     15527     15522     15528     15522     15529     15522     15530
     15524     15531     15524     15532     15533     15534     15535     15536
     15533     15535     15535     15537     15535     15538     15533     15539
     15533     15540     15533     15541     15535     15542     15535     15543
     15544     15545     15546     15547     15544     15546     15546     15548
     15546     15549     15544     15550     15544     15551     15544     15552
     15546     15553     15546     15554     15555     15556     15557     15558
     15555     15557     15557     15559     15557     15560     15555     15561
     15555     15562     15555     15563     15557     15564     15557     15565
     15566     15567     15568     15569     15566     15568     15568     15570
     15568     15571     15566     15572     15566     15573     15566     15574
     15568     15575     15568     15576     15577     15578     15579     15580
     15577     15579     15579     15581     15579     15582     15577     15583
     15577     15584     15577     15585     15579     15586     15579     15587
     15588     15589     15590     15591     15588     15590     15590     15592
     15590     15593     15588     15594     15588     15595     15588     15596
     15590     15597     15590     15598     15599     15600     15601     15602
     15599     15601     15601     15603     15601     15604     15599     15605
     15599     15606     15599     15607     15601     15608     15601     15609
     15610     15611     15612     15613     15610     15612     15612     15614
     15612     15615     15610     15616     15610     15617     15610     15618
     15612     15619     15612     15620     15621     15622     15623     15624
     15621     15623     15623     15625     15623     15626     15621     15627
     15621     15628     15621     15629     15623     15630     15623     15631
     15632     15633     15634     15635     15632     15634     15634     15636
     15634     15637     15632     15638     15632     15639     15632     15640
     15634     15641     15634     15642     15643     15644     15645     15646
     15643     15645     15645     15647     15645     15648     15643     15649
     15643     15650     15643     15651     15645     15652     15645     15653
     15654     15655     15656     15657     15654     15656     15656     15658
     15656     15659     15654     15660     15654     15661     15654     15662
     15656     15663     15656     15664     15665     15666     15667     15668
     15665     15667     15667     15669     15667     15670     15665     15671
     15665     15672     15665     15673     15667     15674     15667     15675
     15676     15677     15678     15679     15676     15678     15678     15680
     15678     15681     15676     15682     15676     15683     15676     15684
     15678     15685     15678     15686     15687     15688     15689     15690
     15687     15689     15689     15691     15689     15692     15687     15693
     15687     15694     15687     15695     15689     15696     15689     15697
     15698     15699     15700     15701     15698     15700     15700     15702
     15700     15703     15698     15704     15698     15705     15698     15706
     15700     15707     15700     15708     15709     15710     15711     15712
     15709     15711     15711     15713     15711     15714     15709     15715
     15709     15716     15709     15717     15711     15718     15711     15719
     15720     15721     15722     15723     15720     15722     15722     15724
     15722     15725     15720     15726     15720     15727     15720     15728
     15722     15729     15722     15730     15731     15732     15733     15734
     15731     15733     15733     15735     15733     15736     15731     15737
     15731     15738     15731     15739     15733     15740     15733     15741
     15742     15743     15744     15745     15742     15744     15744     15746
     15744     15747     15742     15748     15742     15749     15742     15750
     15744     15751     15744     15752     15753     15754     15755     15756
     15753     15755     15755     15757     15755     15758     15753     15759
     15753     15760     15753     15761     15755     15762     15755     15763
     15764     15765     15766     15767     15764     15766     15766     15768
     15766     15769     15764     15770     15764     15771     15764     15772
     15766     15773     15766     15774     15775     15776     15777     15778
     15775     15777     15777     15779     15777     15780     15775     15781
     15775     15782     15775     15783     15777     15784     15777     15785
     15786     15787     15788     15789     15786     15788     15788     15790
     15788     15791     15786     15792     15786     15793     15786     15794
     15788     15795     15788     15796     15797     15798     15799     15800
     15797     15799     15799     15801     15799     15802     15797     15803
     15797     15804     15797     15805     15799     15806     15799     15807
     15808     15809     15810     15811     15808     15810     15810     15812
     15810     15813     15808     15814     15808     15815     15808     15816
     15810     15817     15810     15818     15819     15820     15821     15822
     15819     15821     15821     15823     15821     15824     15819     15825
     15819     15826     15819     15827     15821     15828     15821     15829
     15830     15831     15832     15833     15830     15832     15832     15834
     15832     15835     15830     15836     15830     15837     15830     15838
     15832     15839     15832     15840     15841     15842     15843     15844
     15841     15843     15843     15845     15843     15846     15841     15847
     15841     15848     15841     15849     15843     15850     15843     15851
     15852     15853     15854     15855     15852     15854     15854     15856
     15854     15857     15852     15858     15852     15859     15852     15860
     15854     15861     15854     15862     15863     15864     15865     15866
     15863     15865     15865     15867     15865     15868     15863     15869
     15863     15870     15863     15871     15865     15872     15865     15873
     15874     15875     15876     15877     15874     15876     15876     15878
     15876     15879     15874     15880     15874     15881     15874     15882
     15876     15883     15876     15884     15885     15886     15887     15888
     15885     15887     15887     15889     15887     15890     15885     15891
     15885     15892     15885     15893     15887     15894     15887     15895
     15896     15897     15898     15899     15896     15898     15898     15900
     15898     15901     15896     15902     15896     15903     15896     15904
     15898     15905     15898     15906     15907     15908     15909     15910
     15907     15909     15909     15911     15909     15912     15907     15913
     15907     15914     15907     15915     15909     15916     15909     15917
     15918     15919     15920     15921     15918     15920     15920     15922
     15920     15923     15918     15924     15918     15925     15918     15926
     15920     15927     15920     15928     15929     15930     15931     15932
     15929     15931     15931     15933     15931     15934     15929     15935
     15929     15936     15929     15937     15931     15938     15931     15939
     15940     15941     15942     15943     15940     15942     15942     15944
     15942     15945     15940     15946     15940     15947     15940     15948
     15942     15949     15942     15950     15951     15952     15953     15954
     15951     15953     15953     15955     15953     15956     15951     15957
     15951     15958     15951     15959     15953     15960     15953     15961
     15962     15963     15964     15965     15962     15964     15964     15966
     15964     15967     15962     15968     15962     15969     15962     15970
     15964     15971     15964     15972     15973     15974     15975     15976
     15973     15975     15975     15977     15975     15978     15973     15979
     15973     15980     15973     15981     15975     15982     15975     15983
     15984     15985     15986     15987     15984     15986     15986     15988
     15986     15989     15984     15990     15984     15991     15984     15992
     15986     15993     15986     15994     15995     15996     15997     15998
     15995     15997     15997     15999     15997     16000     15995     16001
     15995     16002     15995     16003     15997     16004     15997     16005
     16006     16007     16008     16009     16006     16008     16008     16010
     16008     16011     16006     16012     16006     16013     16006     16014
     16008     16015     16008     16016     16017     16018     16019     16020
     16017     16019     16019     16021     16019     16022     16017     16023
     16017     16024     16017     16025     16019     16026     16019     16027
     16028     16029     16030     16031     16028     16030     16030     16032
     16030     16033     16028     16034     16028     16035     16028     16036
     16030     16037     16030     16038     16039     16040     16041     16042
     16039     16041     16041     16043     16041     16044     16039     16045
     16039     16046     16039     16047     16041     16048     16041     16049
     16050     16051     16052     16053     16050     16052     16052     16054
     16052     16055     16050     16056     16050     16057     16050     16058
     16052     16059     16052     16060     16061     16062     16063     16064
     16061     16063     16063     16065     16063     16066     16061     16067
     16061     16068     16061     16069     16063     16070     16063     16071
     16072     16073     16074     16075     16072     16074     16074     16076
     16074     16077     16072     16078     16072     16079     16072     16080
     16074     16081     16074     16082     16083     16084     16085     16086
     16083     16085     16085     16087     16085     16088     16083     16089
     16083     16090     16083     16091     16085     16092     16085     16093
     16094     16095     16096     16097     16094     16096     16096     16098
     16096     16099     16094     16100     16094     16101     16094     16102
     16096     16103     16096     16104     16105     16106     16107     16108
     16105     16107     16107     16109     16107     16110     16105     16111
     16105     16112     16105     16113     16107     16114     16107     16115
     16116     16117     16118     16119     16116     16118     16118     16120
     16118     16121     16116     16122     16116     16123     16116     16124
     16118     16125     16118     16126     16127     16128     16129     16130
     16127     16129     16129     16131     16129     16132     16127     16133
     16127     16134     16127     16135     16129     16136     16129     16137
     16138     16139     16140     16141     16138     16140     16140     16142
     16140     16143     16138     16144     16138     16145     16138     16146
     16140     16147     16140     16148     16149     16150     16151     16152
     16149     16151     16151     16153     16151     16154     16149     16155
     16149     16156     16149     16157     16151     16158     16151     16159
     16160     16161     16162     16163     16160     16162     16162     16164
     16162     16165     16160     16166     16160     16167     16160     16168
     16162     16169     16162     16170     16171     16172     16173     16174
     16171     16173     16173     16175     16173     16176     16171     16177
     16171     16178     16171     16179     16173     16180     16173     16181
     16182     16183     16184     16185     16182     16184     16184     16186
     16184     16187     16182     16188     16182     16189     16182     16190
     16184     16191     16184     16192     16193     16194     16195     16196
     16193     16195     16195     16197     16195     16198     16193     16199
     16193     16200     16193     16201     16195     16202     16195     16203
     16204     16205     16206     16207     16204     16206     16206     16208
     16206     16209     16204     16210     16204     16211     16204     16212
     16206     16213     16206     16214     16215     16216     16217     16218
     16215     16217     16217     16219     16217     16220     16215     16221
     16215     16222     16215     16223     16217     16224     16217     16225
     16226     16227     16228     16229     16226     16228     16228     16230
     16228     16231     16226     16232     16226     16233     16226     16234
     16228     16235     16228     16236     16237     16238     16239     16240
     16237     16239     16239     16241     16239     16242     16237     16243
     16237     16244     16237     16245     16239     16246     16239     16247
     16248     16249     16250     16251     16248     16250     16250     16252
     16250     16253     16248     16254     16248     16255     16248     16256
     16250     16257     16250     16258     16259     16260     16261     16262
     16259     16261     16261     16263     16261     16264     16259     16265
     16259     16266     16259     16267     16261     16268     16261     16269
     16270     16271     16272     16273     16270     16272     16272     16274
     16272     16275     16270     16276     16270     16277     16270     16278
     16272     16279     16272     16280     16281     16282     16283     16284
     16281     16283     16283     16285     16283     16286     16281     16287
     16281     16288     16281     16289     16283     16290     16283     16291
     16292     16293     16294     16295     16292     16294     16294     16296
     16294     16297     16292     16298     16292     16299     16292     16300
     16294     16301     16294     16302     16303     16304     16305     16306
     16303     16305     16305     16307     16305     16308     16303     16309
     16303     16310     16303     16311     16305     16312     16305     16313
     16314     16315     16316     16317     16314     16316     16316     16318
     16316     16319     16314     16320     16314     16321     16314     16322
     16316     16323     16316     16324     16325     16326     16327     16328
     16325     16327     16327     16329     16327     16330     16325     16331
     16325     16332     16325     16333     16327     16334     16327     16335
     16336     16337     16338     16339     16336     16338     16338     16340
     16338     16341     16336     16342     16336     16343     16336     16344
     16338     16345     16338     16346     16347     16348     16349     16350
     16347     16349     16349     16351     16349     16352     16347     16353
     16347     16354     16347     16355     16349     16356     16349     16357
     16358     16359     16360     16361     16358     16360     16360     16362
     16360     16363     16358     16364     16358     16365     16358     16366
     16360     16367     16360     16368     16369     16370     16371     16372
     16369     16371     16371     16373     16371     16374     16369     16375
     16369     16376     16369     16377     16371     16378     16371     16379
     16380     16381     16382     16383     16380     16382     16382     16384
     16382     16385     16380     16386     16380     16387     16380     16388
     16382     16389     16382     16390     16391     16392     16393     16394
     16391     16393     16393     16395     16393     16396     16391     16397
     16391     16398     16391     16399     16393     16400     16393     16401
     16402     16403     16404     16405     16402     16404     16404     16406
     16404     16407     16402     16408     16402     16409     16402     16410
     16404     16411     16404     16412     16413     16414     16415     16416
     16413     16415     16415     16417     16415     16418     16413     16419
     16413     16420     16413     16421     16415     16422     16415     16423
     16424     16425     16426     16427     16424     16426     16426     16428
     16426     16429     16424     16430     16424     16431     16424     16432
     16426     16433     16426     16434     16435     16436     16437     16438
     16435     16437     16437     16439     16437     16440     16435     16441
     16435     16442     16435     16443     16437     16444     16437     16445
     16446     16447     16448     16449     16446     16448     16448     16450
     16448     16451     16446     16452     16446     16453     16446     16454
     16448     16455     16448     16456     16457     16458     16459     16460
     16457     16459     16459     16461     16459     16462     16457     16463
     16457     16464     16457     16465     16459     16466     16459     16467
     16468     16469     16470     16471     16468     16470     16470     16472
     16470     16473     16468     16474     16468     16475     16468     16476
     16470     16477     16470     16478     16479     16480     16481     16482
     16479     16481     16481     16483     16481     16484     16479     16485
     16479     16486     16479     16487     16481     16488     16481     16489
     16490     16491     16492     16493     16490     16492     16492     16494
     16492     16495     16490     16496     16490     16497     16490     16498
     16492     16499     16492     16500     16501     16502     16503     16504
     16501     16503     16503     16505     16503     16506     16501     16507
     16501     16508     16501     16509     16503     16510     16503     16511
     16512     16513     16514     16515     16512     16514     16514     16516
     16514     16517     16512     16518     16512     16519     16512     16520
     16514     16521     16514     16522     16523     16524     16525     16526
     16523     16525     16525     16527     16525     16528     16523     16529
     16523     16530     16523     16531     16525     16532     16525     16533
     16534     16535     16536     16537     16534     16536     16536     16538
     16536     16539     16534     16540     16534     16541     16534     16542
     16536     16543     16536     16544     16545     16546     16547     16548
     16545     16547     16547     16549     16547     16550     16545     16551
     16545     16552     16545     16553     16547     16554     16547     16555
     16556     16557     16558     16559     16556     16558     16558     16560
     16558     16561     16556     16562     16556     16563     16556     16564
     16558     16565     16558     16566     16567     16568     16569     16570
     16567     16569     16569     16571     16569     16572     16567     16573
     16567     16574     16567     16575     16569     16576     16569     16577
     16578     16579     16580     16581     16578     16580     16580     16582
     16580     16583     16578     16584     16578     16585     16578     16586
     16580     16587     16580     16588     16589     16590     16591     16592
     16589     16591     16591     16593     16591     16594     16589     16595
     16589     16596     16589     16597     16591     16598     16591     16599
     16600     16601     16602     16603     16600     16602     16602     16604
     16602     16605     16600     16606     16600     16607     16600     16608
     16602     16609     16602     16610     16611     16612     16613     16614
     16611     16613     16613     16615     16613     16616     16611     16617
     16611     16618     16611     16619     16613     16620     16613     16621
     16622     16623     16624     16625     16622     16624     16624     16626
     16624     16627     16622     16628     16622     16629     16622     16630
     16624     16631     16624     16632     16633     16634     16635     16636
     16633     16635     16635     16637     16635     16638     16633     16639
     16633     16640     16633     16641     16635     16642     16635     16643
     16644     16645     16646     16647     16644     16646     16646     16648
     16646     16649     16644     16650     16644     16651     16644     16652
     16646     16653     16646     16654     16655     16656     16657     16658
     16655     16657     16657     16659     16657     16660     16655     16661
     16655     16662     16655     16663     16657     16664     16657     16665
     16666     16667     16668     16669     16666     16668     16668     16670
     16668     16671     16666     16672     16666     16673     16666     16674
     16668     16675     16668     16676     16677     16678     16679     16680
     16677     16679     16679     16681     16679     16682     16677     16683
     16677     16684     16677     16685     16679     16686     16679     16687
     16688     16689     16690     16691     16688     16690     16690     16692
     16690     16693     16688     16694     16688     16695     16688     16696
     16690     16697     16690     16698     16699     16700     16701     16702
     16699     16701     16701     16703     16701     16704     16699     16705
     16699     16706     16699     16707     16701     16708     16701     16709
     16710     16711     16712     16713     16710     16712     16712     16714
     16712     16715     16710     16716     16710     16717     16710     16718
     16712     16719     16712     16720     16721     16722     16723     16724
     16721     16723     16723     16725     16723     16726     16721     16727
     16721     16728     16721     16729     16723     16730     16723     16731
     16732     16733     16734     16735     16732     16734     16734     16736
     16734     16737     16732     16738     16732     16739     16732     16740
     16734     16741     16734     16742     16743     16744     16745     16746
     16743     16745     16745     16747     16745     16748     16743     16749
     16743     16750     16743     16751     16745     16752     16745     16753
     16754     16755     16756     16757     16754     16756     16756     16758
     16756     16759     16754     16760     16754     16761     16754     16762
     16756     16763     16756     16764     16765     16766     16767     16768
     16765     16767     16767     16769     16767     16770     16765     16771
     16765     16772     16765     16773     16767     16774     16767     16775
     16776     16777     16778     16779     16776     16778     16778     16780
     16778     16781     16776     16782     16776     16783     16776     16784
     16778     16785     16778     16786     16787     16788     16789     16790
     16787     16789     16789     16791     16789     16792     16787     16793
     16787     16794     16787     16795     16789     16796     16789     16797
     16798     16799     16800     16801     16798     16800     16800     16802
     16800     16803     16798     16804     16798     16805     16798     16806
     16800     16807     16800     16808     16809     16810     16811     16812
     16809     16811     16811     16813     16811     16814     16809     16815
     16809     16816     16809     16817     16811     16818     16811     16819
     16820     16821     16822     16823     16820     16822     16822     16824
     16822     16825     16820     16826     16820     16827     16820     16828
     16822     16829     16822     16830     16831     16832     16833     16834
     16831     16833     16833     16835     16833     16836     16831     16837
     16831     16838     16831     16839     16833     16840     16833     16841
     16842     16843     16844     16845     16842     16844     16844     16846
     16844     16847     16842     16848     16842     16849     16842     16850
     16844     16851     16844     16852     16853     16854     16855     16856
     16853     16855     16855     16857     16855     16858     16853     16859
     16853     16860     16853     16861     16855     16862     16855     16863
     16864     16865     16866     16867     16864     16866     16866     16868
     16866     16869     16864     16870     16864     16871     16864     16872
     16866     16873     16866     16874     16875     16876     16877     16878
     16875     16877     16877     16879     16877     16880     16875     16881
     16875     16882     16875     16883     16877     16884     16877     16885
     16886     16887     16888     16889     16886     16888     16888     16890
     16888     16891     16886     16892     16886     16893     16886     16894
     16888     16895     16888     16896     16897     16898     16899     16900
     16897     16899     16899     16901     16899     16902     16897     16903
     16897     16904     16897     16905     16899     16906     16899     16907
     16908     16909     16910     16911     16908     16910     16910     16912
     16910     16913     16908     16914     16908     16915     16908     16916
     16910     16917     16910     16918     16919     16920     16921     16922
     16919     16921     16921     16923     16921     16924     16919     16925
     16919     16926     16919     16927     16921     16928     16921     16929
     16930     16931     16932     16933     16930     16932     16932     16934
     16932     16935     16930     16936     16930     16937     16930     16938
     16932     16939     16932     16940     16941     16942     16943     16944
     16941     16943     16943     16945     16943     16946     16941     16947
     16941     16948     16941     16949     16943     16950     16943     16951
     16952     16953     16954     16955     16952     16954     16954     16956
     16954     16957     16952     16958     16952     16959     16952     16960
     16954     16961     16954     16962     16963     16964     16965     16966
     16963     16965     16965     16967     16965     16968     16963     16969
     16963     16970     16963     16971     16965     16972     16965     16973
     16974     16975     16976     16977     16974     16976     16976     16978
     16976     16979     16974     16980     16974     16981     16974     16982
     16976     16983     16976     16984     16985     16986     16987     16988
     16985     16987     16987     16989     16987     16990     16985     16991
     16985     16992     16985     16993     16987     16994     16987     16995
     16996     16997     16998     16999     16996     16998     16998     17000
     16998     17001     16996     17002     16996     17003     16996     17004
     16998     17005     16998     17006     17007     17008     17009     17010
     17007     17009     17009     17011     17009     17012     17007     17013
     17007     17014     17007     17015     17009     17016     17009     17017
     17018     17019     17020     17021     17018     17020     17020     17022
     17020     17023     17018     17024     17018     17025     17018     17026
     17020     17027     17020     17028     17029     17030     17031     17032
     17029     17031     17031     17033     17031     17034     17029     17035
     17029     17036     17029     17037     17031     17038     17031     17039
     17040     17041     17042     17043     17040     17042     17042     17044
     17042     17045     17040     17046     17040     17047     17040     17048
     17042     17049     17042     17050     17051     17052     17053     17054
     17051     17053     17053     17055     17053     17056     17051     17057
     17051     17058     17051     17059     17053     17060     17053     17061
     17062     17063     17064     17065     17062     17064     17064     17066
     17064     17067     17062     17068     17062     17069     17062     17070
     17064     17071     17064     17072     17073     17074     17075     17076
     17073     17075     17075     17077     17075     17078     17073     17079
     17073     17080     17073     17081     17075     17082     17075     17083
     17084     17085     17086     17087     17084     17086     17086     17088
     17086     17089     17084     17090     17084     17091     17084     17092
     17086     17093     17086     17094     17095     17096     17097     17098
     17095     17097     17097     17099     17097     17100     17095     17101
     17095     17102     17095     17103     17097     17104     17097     17105
     17106     17107     17108     17109     17106     17108     17108     17110
     17108     17111     17106     17112     17106     17113     17106     17114
     17108     17115     17108     17116     17117     17118     17119     17120
     17117     17119     17119     17121     17119     17122     17117     17123
     17117     17124     17117     17125     17119     17126     17119     17127
     17128     17129     17130     17131     17128     17130     17130     17132
     17130     17133     17128     17134     17128     17135     17128     17136
     17130     17137     17130     17138     17139     17140     17141     17142
     17139     17141     17141     17143     17141     17144     17139     17145
     17139     17146     17139     17147     17141     17148     17141     17149
     17150     17151     17152     17153     17150     17152     17152     17154
     17152     17155     17150     17156     17150     17157     17150     17158
     17152     17159     17152     17160     17161     17162     17163     17164
     17161     17163     17163     17165     17163     17166     17161     17167
     17161     17168     17161     17169     17163     17170     17163     17171
     17172     17173     17174     17175     17172     17174     17174     17176
     17174     17177     17172     17178     17172     17179     17172     17180
     17174     17181     17174     17182     17183     17184     17185     17186
     17183     17185     17185     17187     17185     17188     17183     17189
     17183     17190     17183     17191     17185     17192     17185     17193
     17194     17195     17196     17197     17194     17196     17196     17198
     17196     17199     17194     17200     17194     17201     17194     17202
     17196     17203     17196     17204     17205     17206     17207     17208
     17205     17207     17207     17209     17207     17210     17205     17211
     17205     17212     17205     17213     17207     17214     17207     17215
     17216     17217     17218     17219     17216     17218     17218     17220
     17218     17221     17216     17222     17216     17223     17216     17224
     17218     17225     17218     17226     17227     17228     17229     17230
     17227     17229     17229     17231     17229     17232     17227     17233
     17227     17234     17227     17235     17229     17236     17229     17237
     17238     17239     17240     17241     17238     17240     17240     17242
     17240     17243     17238     17244     17238     17245     17238     17246
     17240     17247     17240     17248     17249     17250     17251     17252
     17249     17251     17251     17253     17251     17254     17249     17255
     17249     17256     17249     17257     17251     17258     17251     17259
     17260     17261     17262     17263     17260     17262     17262     17264
     17262     17265     17260     17266     17260     17267     17260     17268
     17262     17269     17262     17270     17271     17272     17273     17274
     17271     17273     17273     17275     17273     17276     17271     17277
     17271     17278     17271     17279     17273     17280     17273     17281
     17282     17283     17284     17285     17282     17284     17284     17286
     17284     17287     17282     17288     17282     17289     17282     17290
     17284     17291     17284     17292     17293     17294     17295     17296
     17293     17295     17295     17297     17295     17298     17293     17299
     17293     17300     17293     17301     17295     17302     17295     17303
     17304     17305     17306     17307     17304     17306     17306     17308
     17306     17309     17304     17310     17304     17311     17304     17312
     17306     17313     17306     17314     17315     17316     17317     17318
     17315     17317     17317     17319     17317     17320     17315     17321
     17315     17322     17315     17323     17317     17324     17317     17325
     17326     17327     17328     17329     17326     17328     17328     17330
     17328     17331     17326     17332     17326     17333     17326     17334
     17328     17335     17328     17336     17337     17338     17339     17340
     17337     17339     17339     17341     17339     17342     17337     17343
     17337     17344     17337     17345     17339     17346     17339     17347
     17348     17349     17350     17351     17348     17350     17350     17352
     17350     17353     17348     17354     17348     17355     17348     17356
     17350     17357     17350     17358     17359     17360     17361     17362
     17359     17361     17361     17363     17361     17364     17359     17365
     17359     17366     17359     17367     17361     17368     17361     17369
     17370     17371     17372     17373     17370     17372     17372     17374
     17372     17375     17370     17376     17370     17377     17370     17378
     17372     17379     17372     17380     17381     17382     17383     17384
     17381     17383     17383     17385     17383     17386     17381     17387
     17381     17388     17381     17389     17383     17390     17383     17391
     17392     17393     17394     17395     17392     17394     17394     17396
     17394     17397     17392     17398     17392     17399     17392     17400
     17394     17401     17394     17402     17403     17404     17405     17406
     17403     17405     17405     17407     17405     17408     17403     17409
     17403     17410     17403     17411     17405     17412     17405     17413
     17414     17415     17416     17417     17414     17416     17416     17418
     17416     17419     17414     17420     17414     17421     17414     17422
     17416     17423     17416     17424     17425     17426     17427     17428
     17425     17427     17427     17429     17427     17430     17425     17431
     17425     17432     17425     17433     17427     17434     17427     17435
     17436     17437     17438     17439     17436     17438     17438     17440
     17438     17441     17436     17442     17436     17443     17436     17444
     17438     17445     17438     17446     17447     17448     17449     17450
     17447     17449     17449     17451     17449     17452     17447     17453
     17447     17454     17447     17455     17449     17456     17449     17457
     17458     17459     17460     17461     17458     17460     17460     17462
     17460     17463     17458     17464     17458     17465     17458     17466
     17460     17467     17460     17468     17469     17470     17471     17472
     17469     17471     17471     17473     17471     17474     17469     17475
     17469     17476     17469     17477     17471     17478     17471     17479
     17480     17481     17482     17483     17480     17482     17482     17484
     17482     17485     17480     17486     17480     17487     17480     17488
     17482     17489     17482     17490     17491     17492     17493     17494
     17491     17493     17493     17495     17493     17496     17491     17497
     17491     17498     17491     17499     17493     17500     17493     17501
     17502     17503     17504     17505     17502     17504     17504     17506
     17504     17507     17502     17508     17502     17509     17502     17510
     17504     17511     17504     17512     17513     17514     17515     17516
     17513     17515     17515     17517     17515     17518     17513     17519
     17513     17520     17513     17521     17515     17522     17515     17523
     17524     17525     17526     17527     17524     17526     17526     17528
     17526     17529     17524     17530     17524     17531     17524     17532
     17526     17533     17526     17534     17535     17536     17537     17538
     17535     17537     17537     17539     17537     17540     17535     17541
     17535     17542     17535     17543     17537     17544     17537     17545
     17546     17547     17548     17549     17546     17548     17548     17550
     17548     17551     17546     17552     17546     17553     17546     17554
     17548     17555     17548     17556     17557     17558     17559     17560
     17557     17559     17559     17561     17559     17562     17557     17563
     17557     17564     17557     17565     17559     17566     17559     17567
     17568     17569     17570     17571     17568     17570     17570     17572
     17570     17573     17568     17574     17568     17575     17568     17576
     17570     17577     17570     17578     17579     17580     17581     17582
     17579     17581     17581     17583     17581     17584     17579     17585
     17579     17586     17579     17587     17581     17588     17581     17589
     17590     17591     17592     17593     17590     17592     17592     17594
     17592     17595     17590     17596     17590     17597     17590     17598
     17592     17599     17592     17600     17601     17602     17603     17604
     17601     17603     17603     17605     17603     17606     17601     17607
     17601     17608     17601     17609     17603     17610     17603     17611
     17612     17613     17614     17615     17612     17614     17614     17616
     17614     17617     17612     17618     17612     17619     17612     17620
     17614     17621     17614     17622     17623     17624     17625     17626
     17623     17625     17625     17627     17625     17628     17623     17629
     17623     17630     17623     17631     17625     17632     17625     17633
     17634     17635     17636     17637     17634     17636     17636     17638
     17636     17639     17634     17640     17634     17641     17634     17642
     17636     17643     17636     17644     17645     17646     17647     17648
     17645     17647     17647     17649     17647     17650     17645     17651
     17645     17652     17645     17653     17647     17654     17647     17655
     17656     17657     17658     17659     17656     17658     17658     17660
     17658     17661     17656     17662     17656     17663     17656     17664
     17658     17665     17658     17666     17667     17668     17669     17670
     17667     17669     17669     17671     17669     17672     17667     17673
     17667     17674     17667     17675     17669     17676     17669     17677
     17678     17679     17680     17681     17678     17680     17680     17682
     17680     17683     17678     17684     17678     17685     17678     17686
     17680     17687     17680     17688     17689     17690     17691     17692
     17689     17691     17691     17693     17691     17694     17689     17695
     17689     17696     17689     17697     17691     17698     17691     17699
     17700     17701     17702     17703     17700     17702     17702     17704
     17702     17705     17700     17706     17700     17707     17700     17708
     17702     17709     17702     17710     17711     17712     17713     17714
     17711     17713     17713     17715     17713     17716     17711     17717
     17711     17718     17711     17719     17713     17720     17713     17721
     17722     17723     17724     17725     17722     17724     17724     17726
     17724     17727     17722     17728     17722     17729     17722     17730
     17724     17731     17724     17732     17733     17734     17735     17736
     17733     17735     17735     17737     17735     17738     17733     17739
     17733     17740     17733     17741     17735     17742     17735     17743
     17744     17745     17746     17747     17744     17746     17746     17748
     17746     17749     17744     17750     17744     17751     17744     17752
     17746     17753     17746     17754     17755     17756     17757     17758
     17755     17757     17757     17759     17757     17760     17755     17761
     17755     17762     17755     17763     17757     17764     17757     17765
     17766     17767     17768     17769     17766     17768     17768     17770
     17768     17771     17766     17772     17766     17773     17766     17774
     17768     17775     17768     17776     17777     17778     17779     17780
     17777     17779     17779     17781     17779     17782     17777     17783
     17777     17784     17777     17785     17779     17786     17779     17787
     17788     17789     17790     17791     17788     17790     17790     17792
     17790     17793     17788     17794     17788     17795     17788     17796
     17790     17797     17790     17798     17799     17800     17801     17802
     17799     17801     17801     17803     17801     17804     17799     17805
     17799     17806     17799     17807     17801     17808     17801     17809
     17810     17811     17812     17813     17810     17812     17812     17814
     17812     17815     17810     17816     17810     17817     17810     17818
     17812     17819     17812     17820     17821     17822     17823     17824
     17821     17823     17823     17825     17823     17826     17821     17827
     17821     17828     17821     17829     17823     17830     17823     17831
     17832     17833     17834     17835     17832     17834     17834     17836
     17834     17837     17832     17838     17832     17839     17832     17840
     17834     17841     17834     17842     17843     17844     17845     17846
     17843     17845     17845     17847     17845     17848     17843     17849
     17843     17850     17843     17851     17845     17852     17845     17853
     17854     17855     17856     17857     17854     17856     17856     17858
     17856     17859     17854     17860     17854     17861     17854     17862
     17856     17863     17856     17864     17865     17866     17867     17868
     17865     17867     17867     17869     17867     17870     17865     17871
     17865     17872     17865     17873     17867     17874     17867     17875
     17876     17877     17878     17879     17876     17878     17878     17880
     17878     17881     17876     17882     17876     17883     17876     17884
     17878     17885     17878     17886     17887     17888     17889     17890
     17887     17889     17889     17891     17889     17892     17887     17893
     17887     17894     17887     17895     17889     17896     17889     17897
     17898     17899     17900     17901     17898     17900     17900     17902
     17900     17903     17898     17904     17898     17905     17898     17906
     17900     17907     17900     17908     17909     17910     17911     17912
     17909     17911     17911     17913     17911     17914     17909     17915
     17909     17916     17909     17917     17911     17918     17911     17919
     17920     17921     17922     17923     17920     17922     17922     17924
     17922     17925     17920     17926     17920     17927     17920     17928
     17922     17929     17922     17930     17931     17932     17933     17934
     17931     17933     17933     17935     17933     17936     17931     17937
     17931     17938     17931     17939     17933     17940     17933     17941
     17942     17943     17944     17945     17942     17944     17944     17946
     17944     17947     17942     17948     17942     17949     17942     17950
     17944     17951     17944     17952     17953     17954     17955     17956
     17953     17955     17955     17957     17955     17958     17953     17959
     17953     17960     17953     17961     17955     17962     17955     17963
     17964     17965     17966     17967     17964     17966     17966     17968
     17966     17969     17964     17970     17964     17971     17964     17972
     17966     17973     17966     17974     17975     17976     17977     17978
     17975     17977     17977     17979     17977     17980     17975     17981
     17975     17982     17975     17983     17977     17984     17977     17985
     17986     17987     17988     17989     17986     17988     17988     17990
     17988     17991     17986     17992     17986     17993     17986     17994
     17988     17995     17988     17996     17997     17998     17999     18000
     17997     17999     17999     18001     17999     18002     17997     18003
     17997     18004     17997     18005     17999     18006     17999     18007
     18008     18009     18010     18011     18008     18010     18010     18012
     18010     18013     18008     18014     18008     18015     18008     18016
     18010     18017     18010     18018     18019     18020     18021     18022
     18019     18021     18021     18023     18021     18024     18019     18025
     18019     18026     18019     18027     18021     18028     18021     18029
     18030     18031     18032     18033     18030     18032     18032     18034
     18032     18035     18030     18036     18030     18037     18030     18038
     18032     18039     18032     18040     18041     18042     18043     18044
     18041     18043     18043     18045     18043     18046     18041     18047
     18041     18048     18041     18049     18043     18050     18043     18051
     18052     18053     18054     18055     18052     18054     18054     18056
     18054     18057     18052     18058     18052     18059     18052     18060
     18054     18061     18054     18062     18063     18064     18065     18066
     18063     18065     18065     18067     18065     18068     18063     18069
     18063     18070     18063     18071     18065     18072     18065     18073
     18074     18075     18076     18077     18074     18076     18076     18078
     18076     18079     18074     18080     18074     18081     18074     18082
     18076     18083     18076     18084     18085     18086     18087     18088
     18085     18087     18087     18089     18087     18090     18085     18091
     18085     18092     18085     18093     18087     18094     18087     18095
     18096     18097     18098     18099     18096     18098     18098     18100
     18098     18101     18096     18102     18096     18103     18096     18104
     18098     18105     18098     18106     18107     18108     18109     18110
     18107     18109     18109     18111     18109     18112     18107     18113
     18107     18114     18107     18115     18109     18116     18109     18117
     18118     18119     18120     18121     18118     18120     18120     18122
     18120     18123     18118     18124     18118     18125     18118     18126
     18120     18127     18120     18128     18129     18130     18131     18132
     18129     18131     18131     18133     18131     18134     18129     18135
     18129     18136     18129     18137     18131     18138     18131     18139
     18140     18141     18142     18143     18140     18142     18142     18144
     18142     18145     18140     18146     18140     18147     18140     18148
     18142     18149     18142     18150     18151     18152     18153     18154
     18151     18153     18153     18155     18153     18156     18151     18157
     18151     18158     18151     18159     18153     18160     18153     18161
     18162     18163     18164     18165     18162     18164     18164     18166
     18164     18167     18162     18168     18162     18169     18162     18170
     18164     18171     18164     18172     18173     18174     18175     18176
     18173     18175     18175     18177     18175     18178     18173     18179
     18173     18180     18173     18181     18175     18182     18175     18183
     18184     18185     18186     18187     18184     18186     18186     18188
     18186     18189     18184     18190     18184     18191     18184     18192
     18186     18193     18186     18194     18195     18196     18197     18198
     18195     18197     18197     18199     18197     18200     18195     18201
     18195     18202     18195     18203     18197     18204     18197     18205
     18206     18207     18208     18209     18206     18208     18208     18210
     18208     18211     18206     18212     18206     18213     18206     18214
     18208     18215     18208     18216     18217     18218     18219     18220
     18217     18219     18219     18221     18219     18222     18217     18223
     18217     18224     18217     18225     18219     18226     18219     18227
     18228     18229     18230     18231     18228     18230     18230     18232
     18230     18233     18228     18234     18228     18235     18228     18236
     18230     18237     18230     18238     18239     18240     18241     18242
     18239     18241     18241     18243     18241     18244     18239     18245
     18239     18246     18239     18247     18241     18248     18241     18249
     18250     18251     18252     18253     18250     18252     18252     18254
     18252     18255     18250     18256     18250     18257     18250     18258
     18252     18259     18252     18260     18261     18262     18263     18264
     18261     18263     18263     18265     18263     18266     18261     18267
     18261     18268     18261     18269     18263     18270     18263     18271
     18272     18273     18274     18275     18272     18274     18274     18276
     18274     18277     18272     18278     18272     18279     18272     18280
     18274     18281     18274     18282     18283     18284     18285     18286
     18283     18285     18285     18287     18285     18288     18283     18289
     18283     18290     18283     18291     18285     18292     18285     18293
     18294     18295     18296     18297     18294     18296     18296     18298
     18296     18299     18294     18300     18294     18301     18294     18302
     18296     18303     18296     18304     18305     18306     18307     18308
     18305     18307     18307     18309     18307     18310     18305     18311
     18305     18312     18305     18313     18307     18314     18307     18315
     18316     18317     18318     18319     18316     18318     18318     18320
     18318     18321     18316     18322     18316     18323     18316     18324
     18318     18325     18318     18326     18327     18328     18329     18330
     18327     18329     18329     18331     18329     18332     18327     18333
     18327     18334     18327     18335     18329     18336     18329     18337
     18338     18339     18340     18341     18338     18340     18340     18342
     18340     18343     18338     18344     18338     18345     18338     18346
     18340     18347     18340     18348     18349     18350     18351     18352
     18349     18351     18351     18353     18351     18354     18349     18355
     18349     18356     18349     18357     18351     18358     18351     18359
     18360     18361     18362     18363     18360     18362     18362     18364
     18362     18365     18360     18366     18360     18367     18360     18368
     18362     18369     18362     18370     18371     18372     18373     18374
     18371     18373     18373     18375     18373     18376     18371     18377
     18371     18378     18371     18379     18373     18380     18373     18381
     18382     18383     18384     18385     18382     18384     18384     18386
     18384     18387     18382     18388     18382     18389     18382     18390
     18384     18391     18384     18392     18393     18394     18395     18396
     18393     18395     18395     18397     18395     18398     18393     18399
     18393     18400     18393     18401     18395     18402     18395     18403
     18404     18405     18406     18407     18404     18406     18406     18408
     18406     18409     18404     18410     18404     18411     18404     18412
     18406     18413     18406     18414     18415     18416     18417     18418
     18415     18417     18417     18419     18417     18420     18415     18421
     18415     18422     18415     18423     18417     18424     18417     18425
     18426     18427     18428     18429     18426     18428     18428     18430
     18428     18431     18426     18432     18426     18433     18426     18434
     18428     18435     18428     18436     18437     18438     18439     18440
     18437     18439     18439     18441     18439     18442     18437     18443
     18437     18444     18437     18445     18439     18446     18439     18447
     18448     18449     18450     18451     18448     18450     18450     18452
     18450     18453     18448     18454     18448     18455     18448     18456
     18450     18457     18450     18458     18459     18460     18461     18462
     18459     18461     18461     18463     18461     18464     18459     18465
     18459     18466     18459     18467     18461     18468     18461     18469
     18470     18471     18472     18473     18470     18472     18472     18474
     18472     18475     18470     18476     18470     18477     18470     18478
     18472     18479     18472     18480     18481     18482     18483     18484
     18481     18483     18483     18485     18483     18486     18481     18487
     18481     18488     18481     18489     18483     18490     18483     18491
     18492     18493     18494     18495     18492     18494     18494     18496
     18494     18497     18492     18498     18492     18499     18492     18500
     18494     18501     18494     18502     18503     18504     18505     18506
     18503     18505     18505     18507     18505     18508     18503     18509
     18503     18510     18503     18511     18505     18512     18505     18513
     18514     18515     18516     18517     18514     18516     18516     18518
     18516     18519     18514     18520     18514     18521     18514     18522
     18516     18523     18516     18524     18525     18526     18527     18528
     18525     18527     18527     18529     18527     18530     18525     18531
     18525     18532     18525     18533     18527     18534     18527     18535
     18536     18537     18538     18539     18536     18538     18538     18540
     18538     18541     18536     18542     18536     18543     18536     18544
     18538     18545     18538     18546     18547     18548     18549     18550
     18547     18549     18549     18551     18549     18552     18547     18553
     18547     18554     18547     18555     18549     18556     18549     18557
     18558     18559     18560     18561     18558     18560     18560     18562
     18560     18563     18558     18564     18558     18565     18558     18566
     18560     18567     18560     18568     18569     18570     18571     18572
     18569     18571     18571     18573     18571     18574     18569     18575
     18569     18576     18569     18577     18571     18578     18571     18579
     18580     18581     18582     18583     18580     18582     18582     18584
     18582     18585     18580     18586     18580     18587     18580     18588
     18582     18589     18582     18590     18591     18592     18593     18594
     18591     18593     18593     18595     18593     18596     18591     18597
     18591     18598     18591     18599     18593     18600     18593     18601
     18602     18603     18604     18605     18602     18604     18604     18606
     18604     18607     18602     18608     18602     18609     18602     18610
     18604     18611     18604     18612     18613     18614     18615     18616
     18613     18615     18615     18617     18615     18618     18613     18619
     18613     18620     18613     18621     18615     18622     18615     18623
     18624     18625     18626     18627     18624     18626     18626     18628
     18626     18629     18624     18630     18624     18631     18624     18632
     18626     18633     18626     18634     18635     18636     18637     18638
     18635     18637     18637     18639     18637     18640     18635     18641
     18635     18642     18635     18643     18637     18644     18637     18645
     18646     18647     18648     18649     18646     18648     18648     18650
     18648     18651     18646     18652     18646     18653     18646     18654
     18648     18655     18648     18656     18657     18658     18659     18660
     18657     18659     18659     18661     18659     18662     18657     18663
     18657     18664     18657     18665     18659     18666     18659     18667
     18668     18669     18670     18671     18668     18670     18670     18672
     18670     18673     18668     18674     18668     18675     18668     18676
     18670     18677     18670     18678     18679     18680     18681     18682
     18679     18681     18681     18683     18681     18684     18679     18685
     18679     18686     18679     18687     18681     18688     18681     18689
     18690     18691     18692     18693     18690     18692     18692     18694
     18692     18695     18690     18696     18690     18697     18690     18698
     18692     18699     18692     18700     18701     18702     18703     18704
     18701     18703     18703     18705     18703     18706     18701     18707
     18701     18708     18701     18709     18703     18710     18703     18711
     18712     18713     18714     18715     18712     18714     18714     18716
     18714     18717     18712     18718     18712     18719     18712     18720
     18714     18721     18714     18722     18723     18724     18725     18726
     18723     18725     18725     18727     18725     18728     18723     18729
     18723     18730     18723     18731     18725     18732     18725     18733
     18734     18735     18736     18737     18734     18736     18736     18738
     18736     18739     18734     18740     18734     18741     18734     18742
     18736     18743     18736     18744     18745     18746     18747     18748
     18745     18747     18747     18749     18747     18750     18745     18751
     18745     18752     18745     18753     18747     18754     18747     18755
     18756     18757     18758     18759     18756     18758     18758     18760
     18758     18761     18756     18762     18756     18763     18756     18764
     18758     18765     18758     18766     18767     18768     18769     18770
     18767     18769     18769     18771     18769     18772     18767     18773
     18767     18774     18767     18775     18769     18776     18769     18777
     18778     18779     18780     18781     18778     18780     18780     18782
     18780     18783     18778     18784     18778     18785     18778     18786
     18780     18787     18780     18788     18789     18790     18791     18792
     18789     18791     18791     18793     18791     18794     18789     18795
     18789     18796     18789     18797     18791     18798     18791     18799
     18800     18801     18802     18803     18800     18802     18802     18804
     18802     18805     18800     18806     18800     18807     18800     18808
     18802     18809     18802     18810     18811     18812     18813     18814
     18811     18813     18813     18815     18813     18816     18811     18817
     18811     18818     18811     18819     18813     18820     18813     18821
     18822     18823     18824     18825     18822     18824     18824     18826
     18824     18827     18822     18828     18822     18829     18822     18830
     18824     18831     18824     18832     18833     18834     18835     18836
     18833     18835     18835     18837     18835     18838     18833     18839
     18833     18840     18833     18841     18835     18842     18835     18843
     18844     18845     18846     18847     18844     18846     18846     18848
     18846     18849     18844     18850     18844     18851     18844     18852
     18846     18853     18846     18854     18855     18856     18857     18858
     18855     18857     18857     18859     18857     18860     18855     18861
     18855     18862     18855     18863     18857     18864     18857     18865
     18866     18867     18868     18869     18866     18868     18868     18870
     18868     18871     18866     18872     18866     18873     18866     18874
     18868     18875     18868     18876     18877     18878     18879     18880
     18877     18879     18879     18881     18879     18882     18877     18883
     18877     18884     18877     18885     18879     18886     18879     18887
     18888     18889     18890     18891     18888     18890     18890     18892
     18890     18893     18888     18894     18888     18895     18888     18896
     18890     18897     18890     18898     18899     18900     18901     18902
     18899     18901     18901     18903     18901     18904     18899     18905
     18899     18906     18899     18907     18901     18908     18901     18909
     18910     18911     18912     18913     18910     18912     18912     18914
     18912     18915     18910     18916     18910     18917     18910     18918
     18912     18919     18912     18920     18921     18922     18923     18924
     18921     18923     18923     18925     18923     18926     18921     18927
     18921     18928     18921     18929     18923     18930     18923     18931
     18932     18933     18934     18935     18932     18934     18934     18936
     18934     18937     18932     18938     18932     18939     18932     18940
     18934     18941     18934     18942     18943     18944     18945     18946
     18943     18945     18945     18947     18945     18948     18943     18949
     18943     18950     18943     18951     18945     18952     18945     18953
     18954     18955     18956     18957     18954     18956     18956     18958
     18956     18959     18954     18960     18954     18961     18954     18962
     18956     18963     18956     18964     18965     18966     18967     18968
     18965     18967     18967     18969     18967     18970     18965     18971
     18965     18972     18965     18973     18967     18974     18967     18975
     18976     18977     18978     18979     18976     18978     18978     18980
     18978     18981     18976     18982     18976     18983     18976     18984
     18978     18985     18978     18986     18987     18988     18989     18990
     18987     18989     18989     18991     18989     18992     18987     18993
     18987     18994     18987     18995     18989     18996     18989     18997
     18998     18999     19000     19001     18998     19000     19000     19002
     19000     19003     18998     19004     18998     19005     18998     19006
     19000     19007     19000     19008     19009     19010     19011     19012
     19009     19011     19011     19013     19011     19014     19009     19015
     19009     19016     19009     19017     19011     19018     19011     19019
     19020     19021     19022     19023     19020     19022     19022     19024
     19022     19025     19020     19026     19020     19027     19020     19028
     19022     19029     19022     19030     19031     19032     19033     19034
     19031     19033     19033     19035     19033     19036     19031     19037
     19031     19038     19031     19039     19033     19040     19033     19041
     19042     19043     19044     19045     19042     19044     19044     19046
     19044     19047     19042     19048     19042     19049     19042     19050
     19044     19051     19044     19052     19053     19054     19055     19056
     19053     19055     19055     19057     19055     19058     19053     19059
     19053     19060     19053     19061     19055     19062     19055     19063
     19064     19065     19066     19067     19064     19066     19066     19068
     19066     19069     19064     19070     19064     19071     19064     19072
     19066     19073     19066     19074     19075     19076     19077     19078
     19075     19077     19077     19079     19077     19080     19075     19081
     19075     19082     19075     19083     19077     19084     19077     19085
     19086     19087     19088     19089     19086     19088     19088     19090
     19088     19091     19086     19092     19086     19093     19086     19094
     19088     19095     19088     19096     19097     19098     19099     19100
     19097     19099     19099     19101     19099     19102     19097     19103
     19097     19104     19097     19105     19099     19106     19099     19107
     19108     19109     19110     19111     19108     19110     19110     19112
     19110     19113     19108     19114     19108     19115     19108     19116
     19110     19117     19110     19118     19119     19120     19121     19122
     19119     19121     19121     19123     19121     19124     19119     19125
     19119     19126     19119     19127     19121     19128     19121     19129
     19130     19131     19132     19133     19130     19132     19132     19134
     19132     19135     19130     19136     19130     19137     19130     19138
     19132     19139     19132     19140     19141     19142     19143     19144
     19141     19143     19143     19145     19143     19146     19141     19147
     19141     19148     19141     19149     19143     19150     19143     19151
     19152     19153     19154     19155     19152     19154     19154     19156
     19154     19157     19152     19158     19152     19159     19152     19160
     19154     19161     19154     19162     19163     19164     19165     19166
     19163     19165     19165     19167     19165     19168     19163     19169
     19163     19170     19163     19171     19165     19172     19165     19173
     19174     19175     19176     19177     19174     19176     19176     19178
     19176     19179     19174     19180     19174     19181     19174     19182
     19176     19183     19176     19184     19185     19186     19187     19188
     19185     19187     19187     19189     19187     19190     19185     19191
     19185     19192     19185     19193     19187     19194     19187     19195
     19196     19197     19198     19199     19196     19198     19198     19200
     19198     19201     19196     19202     19196     19203     19196     19204
     19198     19205     19198     19206     19207     19208     19209     19210
     19207     19209     19209     19211     19209     19212     19207     19213
     19207     19214     19207     19215     19209     19216     19209     19217
     19218     19219     19220     19221     19218     19220     19220     19222
     19220     19223     19218     19224     19218     19225     19218     19226
     19220     19227     19220     19228     19229     19230     19231     19232
     19229     19231     19231     19233     19231     19234     19229     19235
     19229     19236     19229     19237     19231     19238     19231     19239
     19240     19241     19242     19243     19240     19242     19242     19244
     19242     19245     19240     19246     19240     19247     19240     19248
     19242     19249     19242     19250     19251     19252     19253     19254
     19251     19253     19253     19255     19253     19256     19251     19257
     19251     19258     19251     19259     19253     19260     19253     19261
     19262     19263     19264     19265     19262     19264     19264     19266
     19264     19267     19262     19268     19262     19269     19262     19270
     19264     19271     19264     19272     19273     19274     19275     19276
     19273     19275     19275     19277     19275     19278     19273     19279
     19273     19280     19273     19281     19275     19282     19275     19283
     19284     19285     19286     19287     19284     19286     19286     19288
     19286     19289     19284     19290     19284     19291     19284     19292
     19286     19293     19286     19294     19295     19296     19297     19298
     19295     19297     19297     19299     19297     19300     19295     19301
     19295     19302     19295     19303     19297     19304     19297     19305
     19306     19307     19308     19309     19306     19308     19308     19310
     19308     19311     19306     19312     19306     19313     19306     19314
     19308     19315     19308     19316     19317     19318     19319     19320
     19317     19319     19319     19321     19319     19322     19317     19323
     19317     19324     19317     19325     19319     19326     19319     19327
     19328     19329     19330     19331     19328     19330     19330     19332
     19330     19333     19328     19334     19328     19335     19328     19336
     19330     19337     19330     19338     19339     19340     19341     19342
     19339     19341     19341     19343     19341     19344     19339     19345
     19339     19346     19339     19347     19341     19348     19341     19349
     19350     19351     19352     19353     19350     19352     19352     19354
     19352     19355     19350     19356     19350     19357     19350     19358
     19352     19359     19352     19360     19361     19362     19363     19364
     19361     19363     19363     19365     19363     19366     19361     19367
     19361     19368     19361     19369     19363     19370     19363     19371
     19372     19373     19374     19375     19372     19374     19374     19376
     19374     19377     19372     19378     19372     19379     19372     19380
     19374     19381     19374     19382     19383     19384     19385     19386
     19383     19385     19385     19387     19385     19388     19383     19389
     19383     19390     19383     19391     19385     19392     19385     19393
     19394     19395     19396     19397     19394     19396     19396     19398
     19396     19399     19394     19400     19394     19401     19394     19402
     19396     19403     19396     19404     19405     19406     19407     19408
     19405     19407     19407     19409     19407     19410     19405     19411
     19405     19412     19405     19413     19407     19414     19407     19415
     19416     19417     19418     19419     19416     19418     19418     19420
     19418     19421     19416     19422     19416     19423     19416     19424
     19418     19425     19418     19426     19427     19428     19429     19430
     19427     19429     19429     19431     19429     19432     19427     19433
     19427     19434     19427     19435     19429     19436     19429     19437
     19438     19439     19440     19441     19438     19440     19440     19442
     19440     19443     19438     19444     19438     19445     19438     19446
     19440     19447     19440     19448     19449     19450     19451     19452
     19449     19451     19451     19453     19451     19454     19449     19455
     19449     19456     19449     19457     19451     19458     19451     19459
     19460     19461     19462     19463     19460     19462     19462     19464
     19462     19465     19460     19466     19460     19467     19460     19468
     19462     19469     19462     19470     19471     19472     19473     19474
     19471     19473     19473     19475     19473     19476     19471     19477
     19471     19478     19471     19479     19473     19480     19473     19481
     19482     19483     19484     19485     19482     19484     19484     19486
     19484     19487     19482     19488     19482     19489     19482     19490
     19484     19491     19484     19492     19493     19494     19495     19496
     19493     19495     19495     19497     19495     19498     19493     19499
     19493     19500     19493     19501     19495     19502     19495     19503
     19504     19505     19506     19507     19504     19506     19506     19508
     19506     19509     19504     19510     19504     19511     19504     19512
     19506     19513     19506     19514     19515     19516     19517     19518
     19515     19517     19517     19519     19517     19520     19515     19521
     19515     19522     19515     19523     19517     19524     19517     19525
     19526     19527     19528     19529     19526     19528     19528     19530
     19528     19531     19526     19532     19526     19533     19526     19534
     19528     19535     19528     19536     19537     19538     19539     19540
     19537     19539     19539     19541     19539     19542     19537     19543
     19537     19544     19537     19545     19539     19546     19539     19547
     19548     19549     19550     19551     19548     19550     19550     19552
     19550     19553     19548     19554     19548     19555     19548     19556
     19550     19557     19550     19558     19559     19560     19561     19562
     19559     19561     19561     19563     19561     19564     19559     19565
     19559     19566     19559     19567     19561     19568     19561     19569
     19570     19571     19572     19573     19570     19572     19572     19574
     19572     19575     19570     19576     19570     19577     19570     19578
     19572     19579     19572     19580     19581     19582     19583     19584
     19581     19583     19583     19585     19583     19586     19581     19587
     19581     19588     19581     19589     19583     19590     19583     19591
     19592     19593     19594     19595     19592     19594     19594     19596
     19594     19597     19592     19598     19592     19599     19592     19600
     19594     19601     19594     19602     19603     19604     19605     19606
     19603     19605     19605     19607     19605     19608     19603     19609
     19603     19610     19603     19611     19605     19612     19605     19613
     19614     19615     19616     19617     19614     19616     19616     19618
     19616     19619     19614     19620     19614     19621     19614     19622
     19616     19623     19616     19624     19625     19626     19627     19628
     19625     19627     19627     19629     19627     19630     19625     19631
     19625     19632     19625     19633     19627     19634     19627     19635
     19636     19637     19638     19639     19636     19638     19638     19640
     19638     19641     19636     19642     19636     19643     19636     19644
     19638     19645     19638     19646     19647     19648     19649     19650
     19647     19649     19649     19651     19649     19652     19647     19653
     19647     19654     19647     19655     19649     19656     19649     19657
     19658     19659     19660     19661     19658     19660     19660     19662
     19660     19663     19658     19664     19658     19665     19658     19666
     19660     19667     19660     19668     19669     19670     19671     19672
     19669     19671     19671     19673     19671     19674     19669     19675
     19669     19676     19669     19677     19671     19678     19671     19679
     19680     19681     19682     19683     19680     19682     19682     19684
     19682     19685     19680     19686     19680     19687     19680     19688
     19682     19689     19682     19690     19691     19692     19693     19694
     19691     19693     19693     19695     19693     19696     19691     19697
     19691     19698     19691     19699     19693     19700     19693     19701
     19702     19703     19704     19705     19702     19704     19704     19706
     19704     19707     19702     19708     19702     19709     19702     19710
     19704     19711     19704     19712     19713     19714     19715     19716
     19713     19715     19715     19717     19715     19718     19713     19719
     19713     19720     19713     19721     19715     19722     19715     19723
     19724     19725     19726     19727     19724     19726     19726     19728
     19726     19729     19724     19730     19724     19731     19724     19732
     19726     19733     19726     19734     19735     19736     19737     19738
     19735     19737     19737     19739     19737     19740     19735     19741
     19735     19742     19735     19743     19737     19744     19737     19745
     19746     19747     19748     19749     19746     19748     19748     19750
     19748     19751     19746     19752     19746     19753     19746     19754
     19748     19755     19748     19756     19757     19758     19759     19760
     19757     19759     19759     19761     19759     19762     19757     19763
     19757     19764     19757     19765     19759     19766     19759     19767
     19768     19769     19770     19771     19768     19770     19770     19772
     19770     19773     19768     19774     19768     19775     19768     19776
     19770     19777     19770     19778     19779     19780     19781     19782
     19779     19781     19781     19783     19781     19784     19779     19785
     19779     19786     19779     19787     19781     19788     19781     19789
     19790     19791     19792     19793     19790     19792     19792     19794
     19792     19795     19790     19796     19790     19797     19790     19798
     19792     19799     19792     19800     19801     19802     19803     19804
     19801     19803     19803     19805     19803     19806     19801     19807
     19801     19808     19801     19809     19803     19810     19803     19811
     19812     19813     19814     19815     19812     19814     19814     19816
     19814     19817     19812     19818     19812     19819     19812     19820
     19814     19821     19814     19822     19823     19824     19825     19826
     19823     19825     19825     19827     19825     19828     19823     19829
     19823     19830     19823     19831     19825     19832     19825     19833
     19834     19835     19836     19837     19834     19836     19836     19838
     19836     19839     19834     19840     19834     19841     19834     19842
     19836     19843     19836     19844     19845     19846     19847     19848
     19845     19847     19847     19849     19847     19850     19845     19851
     19845     19852     19845     19853     19847     19854     19847     19855
     19856     19857     19858     19859     19856     19858     19858     19860
     19858     19861     19856     19862     19856     19863     19856     19864
     19858     19865     19858     19866     19867     19868     19869     19870
     19871     19872     19873     19874     19875     19876     19877     19878

     16413 !NTHETA: angles
         3         1         4         3         1         5         3         1         6
         4         1         5         4         1         6         5         1         6
         1         6         8         1         6        14         8         6        14
         6         8        10         6         8        11        10         8        11
         8        11        13         8        11        17        13        11        17
         6        14        16         6        14        17        16        14        17
        11        17        14        11        17        19        14        17        19
        23        21        24        23        21        25        23        21        26
        24        21        25        24        21        26        25        21        26
        21        26        28        21        26        34        28        26        34
        26        28        30        26        28        31        30        28        31
        28        31        33        28        31        37        33        31        37
        26        34        36        26        34        37        36        34        37
        31        37        34        31        37        39        34        37        39
        43        41        44        43        41        45        43        41        46
        44        41        45        44        41        46        45        41        46
        41        46        48        41        46        54        48        46        54
        46        48        50        46        48        51        50        48        51
        48        51        53        48        51        57        53        51        57
        46        54        56        46        54        57        56        54        57
        51        57        54        51        57        59        54        57        59
        63        61        64        63        61        65        63        61        66
        64        61        65        64        61        66        65        61        66
        61        66        68        61        66        74        68        66        74
        66        68        70        66        68        71        70        68        71
        68        71        73        68        71        77        73        71        77
        66        74        76        66        74        77        76        74        77
        71        77        74        71        77        79        74        77        79
        83        81        84        83        81        85        83        81        86
        84        81        85        84        81        86        85        81        86
        81        86        88        81        86        94        88        86        94
        86        88        90        86        88        91        90        88        91
        88        91        93        88        91        97        93        91        97
        86        94        96        86        94        97        96        94        97
        91        97        94        91        97        99        94        97        99
       103       101       104       103       101       105       103       101       106
       104       101       105       104       101       106       105       101       106
       101       106       108       101       106       114       108       106       114
       106       108       110       106       108       111       110       108       111
       108       111       113       108       111       117       113       111       117
       106       114       116       106       114       117       116       114       117
       111       117       114       111       117       119       114       117       119
       123       121       124       123       121       125       123       121       126
       124       121       125       124       121       126       125       121       126
       121       126       128       121       126       134       128       126       134
       126       128       130       126       128       131       130       128       131
       128       131       133       128       131       137       133       131       137
       126       134       136       126       134       137       136       134       137
       131       137       134       131       137       139       134       137       139
       143       141       144       143       141       145       143       141       146
       144       141       145       144       141       146       145       141       146
       141       146       148       141       146       154       148       146       154
       146       148       150       146       148       151       150       148       151
       148       151       153       148       151       157       153       151       157
       146       154       156       146       154       157       156       154       157
       151       157       154       151       157       159       154       157       159
       163       161       164       163       161       165       163       161       166
       164       161       165       164       161       166       165       161       166
       161       166       168       161       166       174       168       166       174
       166       168       170       166       168       171       170       168       171
       168       171       173       168       171       177       173       171       177
       166       174       176       166       174       177       176       174       177
       171       177       174       171       177       179       174       177       179
       183       181       184       183       181       185       183       181       186
       184       181       185       184       181       186       185       181       186
       181       186       188       181       186       194       188       186       194
       186       188       190       186       188       191       190       188       191
       188       191       193       188       191       197       193       191       197
       186       194       196       186       194       197       196       194       197
       191       197       194       191       197       199       194       197       199
       203       201       204       203       201       205       203       201       206
       204       201       205       204       201       206       205       201       206
       201       206       208       201       206       214       208       206       214
       206       208       210       206       208       211       210       208       211
       208       211       213       208       211       217       213       211       217
       206       214       216       206       214       217       216       214       217
       211       217       214       211       217       219       214       217       219
       223       221       224       223       221       225       223       221       226
       224       221       225       224       221       226       225       221       226
       221       226       228       221       226       234       228       226       234
       226       228       230       226       228       231       230       228       231
       228       231       233       228       231       237       233       231       237
       226       234       236       226       234       237       236       234       237
       231       237       234       231       237       239       234       237       239
       243       241       244       243       241       245       243       241       246
       244       241       245       244       241       246       245       241       246
       241       246       248       241       246       254       248       246       254
       246       248       250       246       248       251       250       248       251
       248       251       253       248       251       257       253       251       257
       246       254       256       246       254       257       256       254       257
       251       257       254       251       257       259       254       257       259
       263       261       264       263       261       265       263       261       266
       264       261       265       264       261       266       265       261       266
       261       266       268       261       266       274       268       266       274
       266       268       270       266       268       271       270       268       271
       268       271       273       268       271       277       273       271       277
       266       274       276       266       274       277       276       274       277
       271       277       274       271       277       279       274       277       279
       283       281       284       283       281       285       283       281       286
       284       281       285       284       281       286       285       281       286
       281       286       288       281       286       294       288       286       294
       286       288       290       286       288       291       290       288       291
       288       291       293       288       291       297       293       291       297
       286       294       296       286       294       297       296       294       297
       291       297       294       291       297       299       294       297       299
       303       301       304       303       301       305       303       301       306
       304       301       305       304       301       306       305       301       306
       301       306       308       301       306       314       308       306       314
       306       308       310       306       308       311       310       308       311
       308       311       313       308       311       317       313       311       317
       306       314       316       306       314       317       316       314       317
       311       317       314       311       317       319       314       317       319
       323       321       324       323       321       325       323       321       326
       324       321       325       324       321       326       325       321       326
       321       326       328       321       326       334       328       326       334
       326       328       330       326       328       331       330       328       331
       328       331       333       328       331       337       333       331       337
       326       334       336       326       334       337       336       334       337
       331       337       334       331       337       339       334       337       339
       343       341       344       343       341       345       343       341       346
       344       341       345       344       341       346       345       341       346
       341       346       348       341       346       354       348       346       354
       346       348       350       346       348       351       350       348       351
       348       351       353       348       351       357       353       351       357
       346       354       356       346       354       357       356       354       357
       351       357       354       351       357       359       354       357       359
       363       361       364       363       361       365       363       361       366
       364       361       365       364       361       366       365       361       366
       361       366       368       361       366       374       368       366       374
       366       368       370       366       368       371       370       368       371
       368       371       373       368       371       377       373       371       377
       366       374       376       366       374       377       376       374       377
       371       377       374       371       377       379       374       377       379
       383       381       384       383       381       385       383       381       386
       384       381       385       384       381       386       385       381       386
       381       386       388       381       386       394       388       386       394
       386       388       390       386       388       391       390       388       391
       388       391       393       388       391       397       393       391       397
       386       394       396       386       394       397       396       394       397
       391       397       394       391       397       399       394       397       399
       403       401       404       403       401       405       403       401       406
       404       401       405       404       401       406       405       401       406
       401       406       408       401       406       414       408       406       414
       406       408       410       406       408       411       410       408       411
       408       411       413       408       411       417       413       411       417
       406       414       416       406       414       417       416       414       417
       411       417       414       411       417       419       414       417       419
       423       421       424       423       421       425       423       421       426
       424       421       425       424       421       426       425       421       426
       421       426       428       421       426       434       428       426       434
       426       428       430       426       428       431       430       428       431
       428       431       433       428       431       437       433       431       437
       426       434       436       426       434       437       436       434       437
       431       437       434       431       437       439       434       437       439
       443       441       444       443       441       445       443       441       446
       444       441       445       444       441       446       445       441       446
       441       446       448       441       446       454       448       446       454
       446       448       450       446       448       451       450       448       451
       448       451       453       448       451       457       453       451       457
       446       454       456       446       454       457       456       454       457
       451       457       454       451       457       459       454       457       459
       463       461       464       463       461       465       463       461       466
       464       461       465       464       461       466       465       461       466
       461       466       468       461       466       474       468       466       474
       466       468       470       466       468       471       470       468       471
       468       471       473       468       471       477       473       471       477
       466       474       476       466       474       477       476       474       477
       471       477       474       471       477       479       474       477       479
       483       481       484       483       481       485       483       481       486
       484       481       485       484       481       486       485       481       486
       481       486       488       481       486       494       488       486       494
       486       488       490       486       488       491       490       488       491
       488       491       493       488       491       497       493       491       497
       486       494       496       486       494       497       496       494       497
       491       497       494       491       497       499       494       497       499
       503       501       504       503       501       505       503       501       506
       504       501       505       504       501       506       505       501       506
       501       506       508       501       506       514       508       506       514
       506       508       510       506       508       511       510       508       511
       508       511       513       508       511       517       513       511       517
       506       514       516       506       514       517       516       514       517
       511       517       514       511       517       519       514       517       519
       523       521       524       523       521       525       523       521       526
       524       521       525       524       521       526       525       521       526
       521       526       528       521       526       534       528       526       534
       526       528       530       526       528       531       530       528       531
       528       531       533       528       531       537       533       531       537
       526       534       536       526       534       537       536       534       537
       531       537       534       531       537       539       534       537       539
       543       541       544       543       541       545       543       541       546
       544       541       545       544       541       546       545       541       546
       541       546       548       541       546       554       548       546       554
       546       548       550       546       548       551       550       548       551
       548       551       553       548       551       557       553       551       557
       546       554       556       546       554       557       556       554       557
       551       557       554       551       557       559       554       557       559
       563       561       564       563       561       565       563       561       566
       564       561       565       564       561       566       565       561       566
       561       566       568       561       566       574       568       566       574
       566       568       570       566       568       571       570       568       571
       568       571       573       568       571       577       573       571       577
       566       574       576       566       574       577       576       574       577
       571       577       574       571       577       579       574       577       579
       583       581       584       583       581       585       583       581       586
       584       581       585       584       581       586       585       581       586
       581       586       588       581       586       594       588       586       594
       586       588       590       586       588       591       590       588       591
       588       591       593       588       591       597       593       591       597
       586       594       596       586       594       597       596       594       597
       591       597       594       591       597       599       594       597       599
       603       601       604       603       601       605       603       601       606
       604       601       605       604       601       606       605       601       606
       601       606       608       601       606       614       608       606       614
       606       608       610       606       608       611       610       608       611
       608       611       613       608       611       617       613       611       617
       606       614       616       606       614       617       616       614       617
       611       617       614       611       617       619       614       617       619
       623       621       624       623       621       625       623       621       626
       624       621       625       624       621       626       625       621       626
       621       626       628       621       626       634       628       626       634
       626       628       630       626       628       631       630       628       631
       628       631       633       628       631       637       633       631       637
       626       634       636       626       634       637       636       634       637
       631       637       634       631       637       639       634       637       639
       643       641       644       643       641       645       643       641       646
       644       641       645       644       641       646       645       641       646
       641       646       648       641       646       654       648       646       654
       646       648       650       646       648       651       650       648       651
       648       651       653       648       651       657       653       651       657
       646       654       656       646       654       657       656       654       657
       651       657       654       651       657       659       654       657       659
       663       661       668       663       661       670       668       661       670
       661       663       665       661       663       666       661       663       667
       665       663       666       665       663       667       666       663       667
       661       668       673       661       670       672       680       678       685
       680       678       687       685       678       687       678       680       682
       678       680       683       678       680       684       682       680       683
       682       680       684       683       680       684       678       685       690
       678       687       689       697       695       702       697       695       704
       702       695       704       695       697       699       695       697       700
       695       697       701       699       697       700       699       697       701
       700       697       701       695       702       707       695       704       706
       714       712       719       714       712       721       719       712       721
       712       714       716       712       714       717       712       714       718
       716       714       717       716       714       718       717       714       718
       712       719       724       712       721       723       731       729       736
       731       729       738       736       729       738       729       731       733
       729       731       734       729       731       735       733       731       734
       733       731       735       734       731       735       729       736       741
       729       738       740       748       746       753       748       746       755
       753       746       755       746       748       750       746       748       751
       746       748       752       750       748       751       750       748       752
       751       748       752       746       753       758       746       755       757
       765       763       770       765       763       772       770       763       772
       763       765       767       763       765       768       763       765       769
       767       765       768       767       765       769       768       765       769
       763       770       775       763       772       774       782       780       787
       782       780       789       787       780       789       780       782       784
       780       782       785       780       782       786       784       782       785
       784       782       786       785       782       786       780       787       792
       780       789       791       799       797       804       799       797       806
       804       797       806       797       799       801       797       799       802
       797       799       803       801       799       802       801       799       803
       802       799       803       797       804       809       797       806       808
       816       814       821       816       814       823       821       814       823
       814       816       818       814       816       819       814       816       820
       818       816       819       818       816       820       819       816       820
       814       821       826       814       823       825       833       831       838
       833       831       840       838       831       840       831       833       835
       831       833       836       831       833       837       835       833       836
       835       833       837       836       833       837       831       838       843
       831       840       842       850       848       855       850       848       857
       855       848       857       848       850       852       848       850       853
       848       850       854       852       850       853       852       850       854
       853       850       854       848       855       860       848       857       859
       867       865       872       867       865       874       872       865       874
       865       867       869       865       867       870       865       867       871
       869       867       870       869       867       871       870       867       871
       865       872       877       865       874       876       884       882       889
       884       882       891       889       882       891       882       884       886
       882       884       887       882       884       888       886       884       887
       886       884       888       887       884       888       882       889       894
       882       891       893       901       899       906       901       899       908
       906       899       908       899       901       903       899       901       904
       899       901       905       903       901       904       903       901       905
       904       901       905       899       906       911       899       908       910
       918       916       923       918       916       925       923       916       925
       916       918       920       916       918       921       916       918       922
       920       918       921       920       918       922       921       918       922
       916       923       928       916       925       927       935       933       940
       935       933       942       940       933       942       933       935       937
       933       935       938       933       935       939       937       935       938
       937       935       939       938       935       939       933       940       945
       933       942       944       952       950       957       952       950       959
       957       950       959       950       952       954       950       952       955
       950       952       956       954       952       955       954       952       956
       955       952       956       950       957       962       950       959       961
       969       967       974       969       967       976       974       967       976
       967       969       971       967       969       972       967       969       973
       971       969       972       971       969       973       972       969       973
       967       974       979       967       976       978       986       984       991
       986       984       993       991       984       993       984       986       988
       984       986       989       984       986       990       988       986       989
       988       986       990       989       986       990       984       991       996
       984       993       995      1003      1001      1008      1003      1001      1010
      1008      1001      1010      1001      1003      1005      1001      1003      1006
      1001      1003      1007      1005      1003      1006      1005      1003      1007
      1006      1003      1007      1001      1008      1013      1001      1010      1012
      1020      1018      1025      1020      1018      1027      1025      1018      1027
      1018      1020      1022      1018      1020      1023      1018      1020      1024
      1022      1020      1023      1022      1020      1024      1023      1020      1024
      1018      1025      1030      1018      1027      1029      1037      1035      1042
      1037      1035      1044      1042      1035      1044      1035      1037      1039
      1035      1037      1040      1035      1037      1041      1039      1037      1040
      1039      1037      1041      1040      1037      1041      1035      1042      1047
      1035      1044      1046      1054      1052      1059      1054      1052      1061
      1059      1052      1061      1052      1054      1056      1052      1054      1057
      1052      1054      1058      1056      1054      1057      1056      1054      1058
      1057      1054      1058      1052      1059      1064      1052      1061      1063
      1071      1069      1076      1071      1069      1078      1076      1069      1078
      1069      1071      1073      1069      1071      1074      1069      1071      1075
      1073      1071      1074      1073      1071      1075      1074      1071      1075
      1069      1076      1081      1069      1078      1080      1088      1086      1093
      1088      1086      1095      1093      1086      1095      1086      1088      1090
      1086      1088      1091      1086      1088      1092      1090      1088      1091
      1090      1088      1092      1091      1088      1092      1086      1093      1098
      1086      1095      1097      1105      1103      1110      1105      1103      1112
      1110      1103      1112      1103      1105      1107      1103      1105      1108
      1103      1105      1109      1107      1105      1108      1107      1105      1109
      1108      1105      1109      1103      1110      1115      1103      1112      1114
      1122      1120      1127      1122      1120      1129      1127      1120      1129
      1120      1122      1124      1120      1122      1125      1120      1122      1126
      1124      1122      1125      1124      1122      1126      1125      1122      1126
      1120      1127      1132      1120      1129      1131      1139      1137      1144
      1139      1137      1146      1144      1137      1146      1137      1139      1141
      1137      1139      1142      1137      1139      1143      1141      1139      1142
      1141      1139      1143      1142      1139      1143      1137      1144      1149
      1137      1146      1148      1156      1154      1161      1156      1154      1163
      1161      1154      1163      1154      1156      1158      1154      1156      1159
      1154      1156      1160      1158      1156      1159      1158      1156      1160
      1159      1156      1160      1154      1161      1166      1154      1163      1165
      1173      1171      1178      1173      1171      1180      1178      1171      1180
      1171      1173      1175      1171      1173      1176      1171      1173      1177
      1175      1173      1176      1175      1173      1177      1176      1173      1177
      1171      1178      1183      1171      1180      1182      1190      1188      1195
      1190      1188      1197      1195      1188      1197      1188      1190      1192
      1188      1190      1193      1188      1190      1194      1192      1190      1193
      1192      1190      1194      1193      1190      1194      1188      1195      1200
      1188      1197      1199      1207      1205      1212      1207      1205      1214
      1212      1205      1214      1205      1207      1209      1205      1207      1210
      1205      1207      1211      1209      1207      1210      1209      1207      1211
      1210      1207      1211      1205      1212      1217      1205      1214      1216
      1224      1222      1225      1224      1222      1226      1224      1222      1227
      1225      1222      1226      1225      1222      1227      1226      1222      1227
      1222      1227      1229      1222      1227      1235      1229      1227      1235
      1227      1229      1231      1227      1229      1232      1231      1229      1232
      1229      1232      1234      1229      1232      1238      1234      1232      1238
      1227      1235      1237      1227      1235      1238      1237      1235      1238
      1232      1238      1235      1232      1238      1240      1235      1238      1240
      1244      1242      1245      1244      1242      1246      1244      1242      1247
      1245      1242      1246      1245      1242      1247      1246      1242      1247
      1242      1247      1249      1242      1247      1255      1249      1247      1255
      1247      1249      1251      1247      1249      1252      1251      1249      1252
      1249      1252      1254      1249      1252      1258      1254      1252      1258
      1247      1255      1257      1247      1255      1258      1257      1255      1258
      1252      1258      1255      1252      1258      1260      1255      1258      1260
      1264      1262      1265      1264      1262      1266      1264      1262      1267
      1265      1262      1266      1265      1262      1267      1266      1262      1267
      1262      1267      1269      1262      1267      1275      1269      1267      1275
      1267      1269      1271      1267      1269      1272      1271      1269      1272
      1269      1272      1274      1269      1272      1278      1274      1272      1278
      1267      1275      1277      1267      1275      1278      1277      1275      1278
      1272      1278      1275      1272      1278      1280      1275      1278      1280
      1284      1282      1285      1284      1282      1286      1284      1282      1287
      1285      1282      1286      1285      1282      1287      1286      1282      1287
      1282      1287      1289      1282      1287      1295      1289      1287      1295
      1287      1289      1291      1287      1289      1292      1291      1289      1292
      1289      1292      1294      1289      1292      1298      1294      1292      1298
      1287      1295      1297      1287      1295      1298      1297      1295      1298
      1292      1298      1295      1292      1298      1300      1295      1298      1300
      1304      1302      1305      1304      1302      1306      1304      1302      1307
      1305      1302      1306      1305      1302      1307      1306      1302      1307
      1302      1307      1309      1302      1307      1315      1309      1307      1315
      1307      1309      1311      1307      1309      1312      1311      1309      1312
      1309      1312      1314      1309      1312      1318      1314      1312      1318
      1307      1315      1317      1307      1315      1318      1317      1315      1318
      1312      1318      1315      1312      1318      1320      1315      1318      1320
      1324      1322      1325      1324      1322      1326      1324      1322      1327
      1325      1322      1326      1325      1322      1327      1326      1322      1327
      1322      1327      1329      1322      1327      1335      1329      1327      1335
      1327      1329      1331      1327      1329      1332      1331      1329      1332
      1329      1332      1334      1329      1332      1338      1334      1332      1338
      1327      1335      1337      1327      1335      1338      1337      1335      1338
      1332      1338      1335      1332      1338      1340      1335      1338      1340
      1344      1342      1345      1344      1342      1346      1344      1342      1347
      1345      1342      1346      1345      1342      1347      1346      1342      1347
      1342      1347      1349      1342      1347      1355      1349      1347      1355
      1347      1349      1351      1347      1349      1352      1351      1349      1352
      1349      1352      1354      1349      1352      1358      1354      1352      1358
      1347      1355      1357      1347      1355      1358      1357      1355      1358
      1352      1358      1355      1352      1358      1360      1355      1358      1360
      1364      1362      1365      1364      1362      1366      1364      1362      1367
      1365      1362      1366      1365      1362      1367      1366      1362      1367
      1362      1367      1369      1362      1367      1375      1369      1367      1375
      1367      1369      1371      1367      1369      1372      1371      1369      1372
      1369      1372      1374      1369      1372      1378      1374      1372      1378
      1367      1375      1377      1367      1375      1378      1377      1375      1378
      1372      1378      1375      1372      1378      1380      1375      1378      1380
      1384      1382      1385      1384      1382      1386      1384      1382      1387
      1385      1382      1386      1385      1382      1387      1386      1382      1387
      1382      1387      1389      1382      1387      1395      1389      1387      1395
      1387      1389      1391      1387      1389      1392      1391      1389      1392
      1389      1392      1394      1389      1392      1398      1394      1392      1398
      1387      1395      1397      1387      1395      1398      1397      1395      1398
      1392      1398      1395      1392      1398      1400      1395      1398      1400
      1404      1402      1405      1404      1402      1406      1404      1402      1407
      1405      1402      1406      1405      1402      1407      1406      1402      1407
      1402      1407      1409      1402      1407      1415      1409      1407      1415
      1407      1409      1411      1407      1409      1412      1411      1409      1412
      1409      1412      1414      1409      1412      1418      1414      1412      1418
      1407      1415      1417      1407      1415      1418      1417      1415      1418
      1412      1418      1415      1412      1418      1420      1415      1418      1420
      1424      1422      1425      1424      1422      1426      1424      1422      1427
      1425      1422      1426      1425      1422      1427      1426      1422      1427
      1422      1427      1429      1422      1427      1435      1429      1427      1435
      1427      1429      1431      1427      1429      1432      1431      1429      1432
      1429      1432      1434      1429      1432      1438      1434      1432      1438
      1427      1435      1437      1427      1435      1438      1437      1435      1438
      1432      1438      1435      1432      1438      1440      1435      1438      1440
      1444      1442      1445      1444      1442      1446      1444      1442      1447
      1445      1442      1446      1445      1442      1447      1446      1442      1447
      1442      1447      1449      1442      1447      1455      1449      1447      1455
      1447      1449      1451      1447      1449      1452      1451      1449      1452
      1449      1452      1454      1449      1452      1458      1454      1452      1458
      1447      1455      1457      1447      1455      1458      1457      1455      1458
      1452      1458      1455      1452      1458      1460      1455      1458      1460
      1464      1462      1465      1464      1462      1466      1464      1462      1467
      1465      1462      1466      1465      1462      1467      1466      1462      1467
      1462      1467      1469      1462      1467      1475      1469      1467      1475
      1467      1469      1471      1467      1469      1472      1471      1469      1472
      1469      1472      1474      1469      1472      1478      1474      1472      1478
      1467      1475      1477      1467      1475      1478      1477      1475      1478
      1472      1478      1475      1472      1478      1480      1475      1478      1480
      1484      1482      1485      1484      1482      1486      1484      1482      1487
      1485      1482      1486      1485      1482      1487      1486      1482      1487
      1482      1487      1489      1482      1487      1495      1489      1487      1495
      1487      1489      1491      1487      1489      1492      1491      1489      1492
      1489      1492      1494      1489      1492      1498      1494      1492      1498
      1487      1495      1497      1487      1495      1498      1497      1495      1498
      1492      1498      1495      1492      1498      1500      1495      1498      1500
      1504      1502      1505      1504      1502      1506      1504      1502      1507
      1505      1502      1506      1505      1502      1507      1506      1502      1507
      1502      1507      1509      1502      1507      1515      1509      1507      1515
      1507      1509      1511      1507      1509      1512      1511      1509      1512
      1509      1512      1514      1509      1512      1518      1514      1512      1518
      1507      1515      1517      1507      1515      1518      1517      1515      1518
      1512      1518      1515      1512      1518      1520      1515      1518      1520
      1524      1522      1525      1524      1522      1526      1524      1522      1527
      1525      1522      1526      1525      1522      1527      1526      1522      1527
      1522      1527      1529      1522      1527      1535      1529      1527      1535
      1527      1529      1531      1527      1529      1532      1531      1529      1532
      1529      1532      1534      1529      1532      1538      1534      1532      1538
      1527      1535      1537      1527      1535      1538      1537      1535      1538
      1532      1538      1535      1532      1538      1540      1535      1538      1540
      1544      1542      1545      1544      1542      1546      1544      1542      1547
      1545      1542      1546      1545      1542      1547      1546      1542      1547
      1542      1547      1549      1542      1547      1555      1549      1547      1555
      1547      1549      1551      1547      1549      1552      1551      1549      1552
      1549      1552      1554      1549      1552      1558      1554      1552      1558
      1547      1555      1557      1547      1555      1558      1557      1555      1558
      1552      1558      1555      1552      1558      1560      1555      1558      1560
      1564      1562      1565      1564      1562      1566      1564      1562      1567
      1565      1562      1566      1565      1562      1567      1566      1562      1567
      1562      1567      1569      1562      1567      1575      1569      1567      1575
      1567      1569      1571      1567      1569      1572      1571      1569      1572
      1569      1572      1574      1569      1572      1578      1574      1572      1578
      1567      1575      1577      1567      1575      1578      1577      1575      1578
      1572      1578      1575      1572      1578      1580      1575      1578      1580
      1584      1582      1585      1584      1582      1586      1584      1582      1587
      1585      1582      1586      1585      1582      1587      1586      1582      1587
      1582      1587      1589      1582      1587      1595      1589      1587      1595
      1587      1589      1591      1587      1589      1592      1591      1589      1592
      1589      1592      1594      1589      1592      1598      1594      1592      1598
      1587      1595      1597      1587      1595      1598      1597      1595      1598
      1592      1598      1595      1592      1598      1600      1595      1598      1600
      1604      1602      1605      1604      1602      1606      1604      1602      1607
      1605      1602      1606      1605      1602      1607      1606      1602      1607
      1602      1607      1609      1602      1607      1615      1609      1607      1615
      1607      1609      1611      1607      1609      1612      1611      1609      1612
      1609      1612      1614      1609      1612      1618      1614      1612      1618
      1607      1615      1617      1607      1615      1618      1617      1615      1618
      1612      1618      1615      1612      1618      1620      1615      1618      1620
      1624      1622      1625      1624      1622      1626      1624      1622      1627
      1625      1622      1626      1625      1622      1627      1626      1622      1627
      1622      1627      1629      1622      1627      1635      1629      1627      1635
      1627      1629      1631      1627      1629      1632      1631      1629      1632
      1629      1632      1634      1629      1632      1638      1634      1632      1638
      1627      1635      1637      1627      1635      1638      1637      1635      1638
      1632      1638      1635      1632      1638      1640      1635      1638      1640
      1644      1642      1645      1644      1642      1646      1644      1642      1647
      1645      1642      1646      1645      1642      1647      1646      1642      1647
      1642      1647      1649      1642      1647      1655      1649      1647      1655
      1647      1649      1651      1647      1649      1652      1651      1649      1652
      1649      1652      1654      1649      1652      1658      1654      1652      1658
      1647      1655      1657      1647      1655      1658      1657      1655      1658
      1652      1658      1655      1652      1658      1660      1655      1658      1660
      1664      1662      1665      1664      1662      1666      1664      1662      1667
      1665      1662      1666      1665      1662      1667      1666      1662      1667
      1662      1667      1669      1662      1667      1675      1669      1667      1675
      1667      1669      1671      1667      1669      1672      1671      1669      1672
      1669      1672      1674      1669      1672      1678      1674      1672      1678
      1667      1675      1677      1667      1675      1678      1677      1675      1678
      1672      1678      1675      1672      1678      1680      1675      1678      1680
      1684      1682      1685      1684      1682      1686      1684      1682      1687
      1685      1682      1686      1685      1682      1687      1686      1682      1687
      1682      1687      1689      1682      1687      1695      1689      1687      1695
      1687      1689      1691      1687      1689      1692      1691      1689      1692
      1689      1692      1694      1689      1692      1698      1694      1692      1698
      1687      1695      1697      1687      1695      1698      1697      1695      1698
      1692      1698      1695      1692      1698      1700      1695      1698      1700
      1704      1702      1705      1704      1702      1706      1704      1702      1707
      1705      1702      1706      1705      1702      1707      1706      1702      1707
      1702      1707      1709      1702      1707      1715      1709      1707      1715
      1707      1709      1711      1707      1709      1712      1711      1709      1712
      1709      1712      1714      1709      1712      1718      1714      1712      1718
      1707      1715      1717      1707      1715      1718      1717      1715      1718
      1712      1718      1715      1712      1718      1720      1715      1718      1720
      1724      1722      1725      1724      1722      1726      1724      1722      1727
      1725      1722      1726      1725      1722      1727      1726      1722      1727
      1722      1727      1729      1722      1727      1735      1729      1727      1735
      1727      1729      1731      1727      1729      1732      1731      1729      1732
      1729      1732      1734      1729      1732      1738      1734      1732      1738
      1727      1735      1737      1727      1735      1738      1737      1735      1738
      1732      1738      1735      1732      1738      1740      1735      1738      1740
      1744      1742      1745      1744      1742      1746      1744      1742      1747
      1745      1742      1746      1745      1742      1747      1746      1742      1747
      1742      1747      1749      1742      1747      1755      1749      1747      1755
      1747      1749      1751      1747      1749      1752      1751      1749      1752
      1749      1752      1754      1749      1752      1758      1754      1752      1758
      1747      1755      1757      1747      1755      1758      1757      1755      1758
      1752      1758      1755      1752      1758      1760      1755      1758      1760
      1764      1762      1765      1764      1762      1766      1764      1762      1767
      1765      1762      1766      1765      1762      1767      1766      1762      1767
      1762      1767      1769      1762      1767      1775      1769      1767      1775
      1767      1769      1771      1767      1769      1772      1771      1769      1772
      1769      1772      1774      1769      1772      1778      1774      1772      1778
      1767      1775      1777      1767      1775      1778      1777      1775      1778
      1772      1778      1775      1772      1778      1780      1775      1778      1780
      1784      1782      1785      1784      1782      1786      1784      1782      1787
      1785      1782      1786      1785      1782      1787      1786      1782      1787
      1782      1787      1789      1782      1787      1795      1789      1787      1795
      1787      1789      1791      1787      1789      1792      1791      1789      1792
      1789      1792      1794      1789      1792      1798      1794      1792      1798
      1787      1795      1797      1787      1795      1798      1797      1795      1798
      1792      1798      1795      1792      1798      1800      1795      1798      1800
      1804      1802      1805      1804      1802      1806      1804      1802      1807
      1805      1802      1806      1805      1802      1807      1806      1802      1807
      1802      1807      1809      1802      1807      1815      1809      1807      1815
      1807      1809      1811      1807      1809      1812      1811      1809      1812
      1809      1812      1814      1809      1812      1818      1814      1812      1818
      1807      1815      1817      1807      1815      1818      1817      1815      1818
      1812      1818      1815      1812      1818      1820      1815      1818      1820
      1824      1822      1825      1824      1822      1826      1824      1822      1827
      1825      1822      1826      1825      1822      1827      1826      1822      1827
      1822      1827      1829      1822      1827      1835      1829      1827      1835
      1827      1829      1831      1827      1829      1832      1831      1829      1832
      1829      1832      1834      1829      1832      1838      1834      1832      1838
      1827      1835      1837      1827      1835      1838      1837      1835      1838
      1832      1838      1835      1832      1838      1840      1835      1838      1840
      1844      1842      1845      1844      1842      1846      1844      1842      1847
      1845      1842      1846      1845      1842      1847      1846      1842      1847
      1842      1847      1849      1842      1847      1855      1849      1847      1855
      1847      1849      1851      1847      1849      1852      1851      1849      1852
      1849      1852      1854      1849      1852      1858      1854      1852      1858
      1847      1855      1857      1847      1855      1858      1857      1855      1858
      1852      1858      1855      1852      1858      1860      1855      1858      1860
      1864      1862      1865      1864      1862      1866      1864      1862      1867
      1865      1862      1866      1865      1862      1867      1866      1862      1867
      1862      1867      1869      1862      1867      1875      1869      1867      1875
      1867      1869      1871      1867      1869      1872      1871      1869      1872
      1869      1872      1874      1869      1872      1878      1874      1872      1878
      1867      1875      1877      1867      1875      1878      1877      1875      1878
      1872      1878      1875      1872      1878      1880      1875      1878      1880
      1884      1882      1885      1884      1882      1886      1884      1882      1887
      1885      1882      1886      1885      1882      1887      1886      1882      1887
      1882      1887      1889      1882      1887      1895      1889      1887      1895
      1887      1889      1891      1887      1889      1892      1891      1889      1892
      1889      1892      1894      1889      1892      1898      1894      1892      1898
      1887      1895      1897      1887      1895      1898      1897      1895      1898
      1892      1898      1895      1892      1898      1900      1895      1898      1900
      1904      1902      1905      1904      1902      1906      1904      1902      1907
      1905      1902      1906      1905      1902      1907      1906      1902      1907
      1902      1907      1909      1902      1907      1915      1909      1907      1915
      1907      1909      1911      1907      1909      1912      1911      1909      1912
      1909      1912      1914      1909      1912      1918      1914      1912      1918
      1907      1915      1917      1907      1915      1918      1917      1915      1918
      1912      1918      1915      1912      1918      1920      1915      1918      1920
      1924      1922      1925      1924      1922      1926      1924      1922      1927
      1925      1922      1926      1925      1922      1927      1926      1922      1927
      1922      1927      1929      1922      1927      1935      1929      1927      1935
      1927      1929      1931      1927      1929      1932      1931      1929      1932
      1929      1932      1934      1929      1932      1938      1934      1932      1938
      1927      1935      1937      1927      1935      1938      1937      1935      1938
      1932      1938      1935      1932      1938      1940      1935      1938      1940
      1944      1942      1945      1944      1942      1946      1944      1942      1947
      1945      1942      1946      1945      1942      1947      1946      1942      1947
      1942      1947      1949      1942      1947      1955      1949      1947      1955
      1947      1949      1951      1947      1949      1952      1951      1949      1952
      1949      1952      1954      1949      1952      1958      1954      1952      1958
      1947      1955      1957      1947      1955      1958      1957      1955      1958
      1952      1958      1955      1952      1958      1960      1955      1958      1960
      1964      1962      1965      1964      1962      1966      1964      1962      1967
      1965      1962      1966      1965      1962      1967      1966      1962      1967
      1962      1967      1969      1962      1967      1975      1969      1967      1975
      1967      1969      1971      1967      1969      1972      1971      1969      1972
      1969      1972      1974      1969      1972      1978      1974      1972      1978
      1967      1975      1977      1967      1975      1978      1977      1975      1978
      1972      1978      1975      1972      1978      1980      1975      1978      1980
      1984      1982      1985      1984      1982      1986      1984      1982      1987
      1985      1982      1986      1985      1982      1987      1986      1982      1987
      1982      1987      1989      1982      1987      1995      1989      1987      1995
      1987      1989      1991      1987      1989      1992      1991      1989      1992
      1989      1992      1994      1989      1992      1998      1994      1992      1998
      1987      1995      1997      1987      1995      1998      1997      1995      1998
      1992      1998      1995      1992      1998      2000      1995      1998      2000
      2004      2002      2005      2004      2002      2006      2004      2002      2007
      2005      2002      2006      2005      2002      2007      2006      2002      2007
      2002      2007      2009      2002      2007      2015      2009      2007      2015
      2007      2009      2011      2007      2009      2012      2011      2009      2012
      2009      2012      2014      2009      2012      2018      2014      2012      2018
      2007      2015      2017      2007      2015      2018      2017      2015      2018
      2012      2018      2015      2012      2018      2020      2015      2018      2020
      2024      2022      2025      2024      2022      2026      2024      2022      2027
      2025      2022      2026      2025      2022      2027      2026      2022      2027
      2022      2027      2029      2022      2027      2035      2029      2027      2035
      2027      2029      2031      2027      2029      2032      2031      2029      2032
      2029      2032      2034      2029      2032      2038      2034      2032      2038
      2027      2035      2037      2027      2035      2038      2037      2035      2038
      2032      2038      2035      2032      2038      2040      2035      2038      2040
      2044      2042      2045      2044      2042      2046      2044      2042      2047
      2045      2042      2046      2045      2042      2047      2046      2042      2047
      2042      2047      2049      2042      2047      2055      2049      2047      2055
      2047      2049      2051      2047      2049      2052      2051      2049      2052
      2049      2052      2054      2049      2052      2058      2054      2052      2058
      2047      2055      2057      2047      2055      2058      2057      2055      2058
      2052      2058      2055      2052      2058      2060      2055      2058      2060
      2064      2062      2065      2064      2062      2066      2064      2062      2067
      2065      2062      2066      2065      2062      2067      2066      2062      2067
      2062      2067      2069      2062      2067      2075      2069      2067      2075
      2067      2069      2071      2067      2069      2072      2071      2069      2072
      2069      2072      2074      2069      2072      2078      2074      2072      2078
      2067      2075      2077      2067      2075      2078      2077      2075      2078
      2072      2078      2075      2072      2078      2080      2075      2078      2080
      2084      2082      2085      2084      2082      2086      2084      2082      2087
      2085      2082      2086      2085      2082      2087      2086      2082      2087
      2082      2087      2089      2082      2087      2095      2089      2087      2095
      2087      2089      2091      2087      2089      2092      2091      2089      2092
      2089      2092      2094      2089      2092      2098      2094      2092      2098
      2087      2095      2097      2087      2095      2098      2097      2095      2098
      2092      2098      2095      2092      2098      2100      2095      2098      2100
      2104      2102      2105      2104      2102      2106      2104      2102      2107
      2105      2102      2106      2105      2102      2107      2106      2102      2107
      2102      2107      2109      2102      2107      2115      2109      2107      2115
      2107      2109      2111      2107      2109      2112      2111      2109      2112
      2109      2112      2114      2109      2112      2118      2114      2112      2118
      2107      2115      2117      2107      2115      2118      2117      2115      2118
      2112      2118      2115      2112      2118      2120      2115      2118      2120
      2124      2122      2125      2124      2122      2126      2124      2122      2127
      2125      2122      2126      2125      2122      2127      2126      2122      2127
      2122      2127      2129      2122      2127      2135      2129      2127      2135
      2127      2129      2131      2127      2129      2132      2131      2129      2132
      2129      2132      2134      2129      2132      2138      2134      2132      2138
      2127      2135      2137      2127      2135      2138      2137      2135      2138
      2132      2138      2135      2132      2138      2140      2135      2138      2140
      2144      2142      2145      2144      2142      2146      2144      2142      2147
      2145      2142      2146      2145      2142      2147      2146      2142      2147
      2142      2147      2149      2142      2147      2155      2149      2147      2155
      2147      2149      2151      2147      2149      2152      2151      2149      2152
      2149      2152      2154      2149      2152      2158      2154      2152      2158
      2147      2155      2157      2147      2155      2158      2157      2155      2158
      2152      2158      2155      2152      2158      2160      2155      2158      2160
      2164      2162      2165      2164      2162      2166      2164      2162      2167
      2165      2162      2166      2165      2162      2167      2166      2162      2167
      2162      2167      2169      2162      2167      2175      2169      2167      2175
      2167      2169      2171      2167      2169      2172      2171      2169      2172
      2169      2172      2174      2169      2172      2178      2174      2172      2178
      2167      2175      2177      2167      2175      2178      2177      2175      2178
      2172      2178      2175      2172      2178      2180      2175      2178      2180
      2184      2182      2185      2184      2182      2186      2184      2182      2187
      2185      2182      2186      2185      2182      2187      2186      2182      2187
      2182      2187      2189      2182      2187      2195      2189      2187      2195
      2187      2189      2191      2187      2189      2192      2191      2189      2192
      2189      2192      2194      2189      2192      2198      2194      2192      2198
      2187      2195      2197      2187      2195      2198      2197      2195      2198
      2192      2198      2195      2192      2198      2200      2195      2198      2200
      2204      2202      2205      2204      2202      2206      2204      2202      2207
      2205      2202      2206      2205      2202      2207      2206      2202      2207
      2202      2207      2209      2202      2207      2215      2209      2207      2215
      2207      2209      2211      2207      2209      2212      2211      2209      2212
      2209      2212      2214      2209      2212      2218      2214      2212      2218
      2207      2215      2217      2207      2215      2218      2217      2215      2218
      2212      2218      2215      2212      2218      2220      2215      2218      2220
      2224      2222      2225      2224      2222      2226      2224      2222      2227
      2225      2222      2226      2225      2222      2227      2226      2222      2227
      2222      2227      2229      2222      2227      2235      2229      2227      2235
      2227      2229      2231      2227      2229      2232      2231      2229      2232
      2229      2232      2234      2229      2232      2238      2234      2232      2238
      2227      2235      2237      2227      2235      2238      2237      2235      2238
      2232      2238      2235      2232      2238      2240      2235      2238      2240
      2244      2242      2245      2244      2242      2246      2244      2242      2247
      2245      2242      2246      2245      2242      2247      2246      2242      2247
      2242      2247      2249      2242      2247      2255      2249      2247      2255
      2247      2249      2251      2247      2249      2252      2251      2249      2252
      2249      2252      2254      2249      2252      2258      2254      2252      2258
      2247      2255      2257      2247      2255      2258      2257      2255      2258
      2252      2258      2255      2252      2258      2260      2255      2258      2260
      2264      2262      2265      2264      2262      2266      2264      2262      2267
      2265      2262      2266      2265      2262      2267      2266      2262      2267
      2262      2267      2269      2262      2267      2275      2269      2267      2275
      2267      2269      2271      2267      2269      2272      2271      2269      2272
      2269      2272      2274      2269      2272      2278      2274      2272      2278
      2267      2275      2277      2267      2275      2278      2277      2275      2278
      2272      2278      2275      2272      2278      2280      2275      2278      2280
      2284      2282      2285      2284      2282      2286      2284      2282      2287
      2285      2282      2286      2285      2282      2287      2286      2282      2287
      2282      2287      2289      2282      2287      2295      2289      2287      2295
      2287      2289      2291      2287      2289      2292      2291      2289      2292
      2289      2292      2294      2289      2292      2298      2294      2292      2298
      2287      2295      2297      2287      2295      2298      2297      2295      2298
      2292      2298      2295      2292      2298      2300      2295      2298      2300
      2304      2302      2305      2304      2302      2306      2304      2302      2307
      2305      2302      2306      2305      2302      2307      2306      2302      2307
      2302      2307      2309      2302      2307      2315      2309      2307      2315
      2307      2309      2311      2307      2309      2312      2311      2309      2312
      2309      2312      2314      2309      2312      2318      2314      2312      2318
      2307      2315      2317      2307      2315      2318      2317      2315      2318
      2312      2318      2315      2312      2318      2320      2315      2318      2320
      2324      2322      2325      2324      2322      2326      2324      2322      2327
      2325      2322      2326      2325      2322      2327      2326      2322      2327
      2322      2327      2329      2322      2327      2335      2329      2327      2335
      2327      2329      2331      2327      2329      2332      2331      2329      2332
      2329      2332      2334      2329      2332      2338      2334      2332      2338
      2327      2335      2337      2327      2335      2338      2337      2335      2338
      2332      2338      2335      2332      2338      2340      2335      2338      2340
      2344      2342      2345      2344      2342      2346      2344      2342      2347
      2345      2342      2346      2345      2342      2347      2346      2342      2347
      2342      2347      2349      2342      2347      2355      2349      2347      2355
      2347      2349      2351      2347      2349      2352      2351      2349      2352
      2349      2352      2354      2349      2352      2358      2354      2352      2358
      2347      2355      2357      2347      2355      2358      2357      2355      2358
      2352      2358      2355      2352      2358      2360      2355      2358      2360
      2364      2362      2365      2364      2362      2366      2364      2362      2367
      2365      2362      2366      2365      2362      2367      2366      2362      2367
      2362      2367      2369      2362      2367      2375      2369      2367      2375
      2367      2369      2371      2367      2369      2372      2371      2369      2372
      2369      2372      2374      2369      2372      2378      2374      2372      2378
      2367      2375      2377      2367      2375      2378      2377      2375      2378
      2372      2378      2375      2372      2378      2380      2375      2378      2380
      2384      2382      2385      2384      2382      2386      2384      2382      2387
      2385      2382      2386      2385      2382      2387      2386      2382      2387
      2382      2387      2389      2382      2387      2395      2389      2387      2395
      2387      2389      2391      2387      2389      2392      2391      2389      2392
      2389      2392      2394      2389      2392      2398      2394      2392      2398
      2387      2395      2397      2387      2395      2398      2397      2395      2398
      2392      2398      2395      2392      2398      2400      2395      2398      2400
      2404      2402      2405      2404      2402      2406      2404      2402      2407
      2405      2402      2406      2405      2402      2407      2406      2402      2407
      2402      2407      2409      2402      2407      2415      2409      2407      2415
      2407      2409      2411      2407      2409      2412      2411      2409      2412
      2409      2412      2414      2409      2412      2418      2414      2412      2418
      2407      2415      2417      2407      2415      2418      2417      2415      2418
      2412      2418      2415      2412      2418      2420      2415      2418      2420
      2424      2422      2425      2424      2422      2426      2424      2422      2427
      2425      2422      2426      2425      2422      2427      2426      2422      2427
      2422      2427      2429      2422      2427      2435      2429      2427      2435
      2427      2429      2431      2427      2429      2432      2431      2429      2432
      2429      2432      2434      2429      2432      2438      2434      2432      2438
      2427      2435      2437      2427      2435      2438      2437      2435      2438
      2432      2438      2435      2432      2438      2440      2435      2438      2440
      2444      2442      2445      2444      2442      2446      2444      2442      2447
      2445      2442      2446      2445      2442      2447      2446      2442      2447
      2442      2447      2449      2442      2447      2455      2449      2447      2455
      2447      2449      2451      2447      2449      2452      2451      2449      2452
      2449      2452      2454      2449      2452      2458      2454      2452      2458
      2447      2455      2457      2447      2455      2458      2457      2455      2458
      2452      2458      2455      2452      2458      2460      2455      2458      2460
      2464      2462      2465      2464      2462      2466      2464      2462      2467
      2465      2462      2466      2465      2462      2467      2466      2462      2467
      2462      2467      2469      2462      2467      2475      2469      2467      2475
      2467      2469      2471      2467      2469      2472      2471      2469      2472
      2469      2472      2474      2469      2472      2478      2474      2472      2478
      2467      2475      2477      2467      2475      2478      2477      2475      2478
      2472      2478      2475      2472      2478      2480      2475      2478      2480
      2484      2482      2485      2484      2482      2486      2484      2482      2487
      2485      2482      2486      2485      2482      2487      2486      2482      2487
      2482      2487      2489      2482      2487      2495      2489      2487      2495
      2487      2489      2491      2487      2489      2492      2491      2489      2492
      2489      2492      2494      2489      2492      2498      2494      2492      2498
      2487      2495      2497      2487      2495      2498      2497      2495      2498
      2492      2498      2495      2492      2498      2500      2495      2498      2500
      2504      2502      2505      2504      2502      2506      2504      2502      2507
      2505      2502      2506      2505      2502      2507      2506      2502      2507
      2502      2507      2509      2502      2507      2515      2509      2507      2515
      2507      2509      2511      2507      2509      2512      2511      2509      2512
      2509      2512      2514      2509      2512      2518      2514      2512      2518
      2507      2515      2517      2507      2515      2518      2517      2515      2518
      2512      2518      2515      2512      2518      2520      2515      2518      2520
      2524      2522      2525      2524      2522      2526      2524      2522      2527
      2525      2522      2526      2525      2522      2527      2526      2522      2527
      2522      2527      2529      2522      2527      2535      2529      2527      2535
      2527      2529      2531      2527      2529      2532      2531      2529      2532
      2529      2532      2534      2529      2532      2538      2534      2532      2538
      2527      2535      2537      2527      2535      2538      2537      2535      2538
      2532      2538      2535      2532      2538      2540      2535      2538      2540
      2544      2542      2545      2544      2542      2546      2544      2542      2547
      2545      2542      2546      2545      2542      2547      2546      2542      2547
      2542      2547      2549      2542      2547      2555      2549      2547      2555
      2547      2549      2551      2547      2549      2552      2551      2549      2552
      2549      2552      2554      2549      2552      2558      2554      2552      2558
      2547      2555      2557      2547      2555      2558      2557      2555      2558
      2552      2558      2555      2552      2558      2560      2555      2558      2560
      2564      2562      2565      2564      2562      2566      2564      2562      2567
      2565      2562      2566      2565      2562      2567      2566      2562      2567
      2562      2567      2569      2562      2567      2575      2569      2567      2575
      2567      2569      2571      2567      2569      2572      2571      2569      2572
      2569      2572      2574      2569      2572      2578      2574      2572      2578
      2567      2575      2577      2567      2575      2578      2577      2575      2578
      2572      2578      2575      2572      2578      2580      2575      2578      2580
      2584      2582      2585      2584      2582      2586      2584      2582      2587
      2585      2582      2586      2585      2582      2587      2586      2582      2587
      2582      2587      2589      2582      2587      2595      2589      2587      2595
      2587      2589      2591      2587      2589      2592      2591      2589      2592
      2589      2592      2594      2589      2592      2598      2594      2592      2598
      2587      2595      2597      2587      2595      2598      2597      2595      2598
      2592      2598      2595      2592      2598      2600      2595      2598      2600
      2604      2602      2605      2604      2602      2606      2604      2602      2607
      2605      2602      2606      2605      2602      2607      2606      2602      2607
      2602      2607      2609      2602      2607      2615      2609      2607      2615
      2607      2609      2611      2607      2609      2612      2611      2609      2612
      2609      2612      2614      2609      2612      2618      2614      2612      2618
      2607      2615      2617      2607      2615      2618      2617      2615      2618
      2612      2618      2615      2612      2618      2620      2615      2618      2620
      2624      2622      2625      2624      2622      2626      2624      2622      2627
      2625      2622      2626      2625      2622      2627      2626      2622      2627
      2622      2627      2629      2622      2627      2635      2629      2627      2635
      2627      2629      2631      2627      2629      2632      2631      2629      2632
      2629      2632      2634      2629      2632      2638      2634      2632      2638
      2627      2635      2637      2627      2635      2638      2637      2635      2638
      2632      2638      2635      2632      2638      2640      2635      2638      2640
      2644      2642      2645      2644      2642      2646      2644      2642      2647
      2645      2642      2646      2645      2642      2647      2646      2642      2647
      2642      2647      2649      2642      2647      2655      2649      2647      2655
      2647      2649      2651      2647      2649      2652      2651      2649      2652
      2649      2652      2654      2649      2652      2658      2654      2652      2658
      2647      2655      2657      2647      2655      2658      2657      2655      2658
      2652      2658      2655      2652      2658      2660      2655      2658      2660
      2664      2662      2665      2664      2662      2666      2664      2662      2667
      2665      2662      2666      2665      2662      2667      2666      2662      2667
      2662      2667      2669      2662      2667      2675      2669      2667      2675
      2667      2669      2671      2667      2669      2672      2671      2669      2672
      2669      2672      2674      2669      2672      2678      2674      2672      2678
      2667      2675      2677      2667      2675      2678      2677      2675      2678
      2672      2678      2675      2672      2678      2680      2675      2678      2680
      2684      2682      2685      2684      2682      2686      2684      2682      2687
      2685      2682      2686      2685      2682      2687      2686      2682      2687
      2682      2687      2689      2682      2687      2695      2689      2687      2695
      2687      2689      2691      2687      2689      2692      2691      2689      2692
      2689      2692      2694      2689      2692      2698      2694      2692      2698
      2687      2695      2697      2687      2695      2698      2697      2695      2698
      2692      2698      2695      2692      2698      2700      2695      2698      2700
      2704      2702      2705      2704      2702      2706      2704      2702      2707
      2705      2702      2706      2705      2702      2707      2706      2702      2707
      2702      2707      2709      2702      2707      2715      2709      2707      2715
      2707      2709      2711      2707      2709      2712      2711      2709      2712
      2709      2712      2714      2709      2712      2718      2714      2712      2718
      2707      2715      2717      2707      2715      2718      2717      2715      2718
      2712      2718      2715      2712      2718      2720      2715      2718      2720
      2724      2722      2725      2724      2722      2726      2724      2722      2727
      2725      2722      2726      2725      2722      2727      2726      2722      2727
      2722      2727      2729      2722      2727      2735      2729      2727      2735
      2727      2729      2731      2727      2729      2732      2731      2729      2732
      2729      2732      2734      2729      2732      2738      2734      2732      2738
      2727      2735      2737      2727      2735      2738      2737      2735      2738
      2732      2738      2735      2732      2738      2740      2735      2738      2740
      2744      2742      2745      2744      2742      2746      2744      2742      2747
      2745      2742      2746      2745      2742      2747      2746      2742      2747
      2742      2747      2749      2742      2747      2755      2749      2747      2755
      2747      2749      2751      2747      2749      2752      2751      2749      2752
      2749      2752      2754      2749      2752      2758      2754      2752      2758
      2747      2755      2757      2747      2755      2758      2757      2755      2758
      2752      2758      2755      2752      2758      2760      2755      2758      2760
      2764      2762      2765      2764      2762      2766      2764      2762      2767
      2765      2762      2766      2765      2762      2767      2766      2762      2767
      2762      2767      2769      2762      2767      2775      2769      2767      2775
      2767      2769      2771      2767      2769      2772      2771      2769      2772
      2769      2772      2774      2769      2772      2778      2774      2772      2778
      2767      2775      2777      2767      2775      2778      2777      2775      2778
      2772      2778      2775      2772      2778      2780      2775      2778      2780
      2784      2782      2789      2784      2782      2791      2789      2782      2791
      2782      2784      2786      2782      2784      2787      2782      2784      2788
      2786      2784      2787      2786      2784      2788      2787      2784      2788
      2782      2789      2794      2782      2791      2793      2801      2799      2806
      2801      2799      2808      2806      2799      2808      2799      2801      2803
      2799      2801      2804      2799      2801      2805      2803      2801      2804
      2803      2801      2805      2804      2801      2805      2799      2806      2811
      2799      2808      2810      2818      2816      2823      2818      2816      2825
      2823      2816      2825      2816      2818      2820      2816      2818      2821
      2816      2818      2822      2820      2818      2821      2820      2818      2822
      2821      2818      2822      2816      2823      2828      2816      2825      2827
      2835      2833      2840      2835      2833      2842      2840      2833      2842
      2833      2835      2837      2833      2835      2838      2833      2835      2839
      2837      2835      2838      2837      2835      2839      2838      2835      2839
      2833      2840      2845      2833      2842      2844      2852      2850      2857
      2852      2850      2859      2857      2850      2859      2850      2852      2854
      2850      2852      2855      2850      2852      2856      2854      2852      2855
      2854      2852      2856      2855      2852      2856      2850      2857      2862
      2850      2859      2861      2869      2867      2874      2869      2867      2876
      2874      2867      2876      2867      2869      2871      2867      2869      2872
      2867      2869      2873      2871      2869      2872      2871      2869      2873
      2872      2869      2873      2867      2874      2879      2867      2876      2878
      2886      2884      2891      2886      2884      2893      2891      2884      2893
      2884      2886      2888      2884      2886      2889      2884      2886      2890
      2888      2886      2889      2888      2886      2890      2889      2886      2890
      2884      2891      2896      2884      2893      2895      2903      2901      2908
      2903      2901      2910      2908      2901      2910      2901      2903      2905
      2901      2903      2906      2901      2903      2907      2905      2903      2906
      2905      2903      2907      2906      2903      2907      2901      2908      2913
      2901      2910      2912      2920      2918      2925      2920      2918      2927
      2925      2918      2927      2918      2920      2922      2918      2920      2923
      2918      2920      2924      2922      2920      2923      2922      2920      2924
      2923      2920      2924      2918      2925      2930      2918      2927      2929
      2937      2935      2942      2937      2935      2944      2942      2935      2944
      2935      2937      2939      2935      2937      2940      2935      2937      2941
      2939      2937      2940      2939      2937      2941      2940      2937      2941
      2935      2942      2947      2935      2944      2946      2954      2952      2959
      2954      2952      2961      2959      2952      2961      2952      2954      2956
      2952      2954      2957      2952      2954      2958      2956      2954      2957
      2956      2954      2958      2957      2954      2958      2952      2959      2964
      2952      2961      2963      2971      2969      2976      2971      2969      2978
      2976      2969      2978      2969      2971      2973      2969      2971      2974
      2969      2971      2975      2973      2971      2974      2973      2971      2975
      2974      2971      2975      2969      2976      2981      2969      2978      2980
      2988      2986      2993      2988      2986      2995      2993      2986      2995
      2986      2988      2990      2986      2988      2991      2986      2988      2992
      2990      2988      2991      2990      2988      2992      2991      2988      2992
      2986      2993      2998      2986      2995      2997      3005      3003      3010
      3005      3003      3012      3010      3003      3012      3003      3005      3007
      3003      3005      3008      3003      3005      3009      3007      3005      3008
      3007      3005      3009      3008      3005      3009      3003      3010      3015
      3003      3012      3014      3022      3020      3027      3022      3020      3029
      3027      3020      3029      3020      3022      3024      3020      3022      3025
      3020      3022      3026      3024      3022      3025      3024      3022      3026
      3025      3022      3026      3020      3027      3032      3020      3029      3031
      3039      3037      3044      3039      3037      3046      3044      3037      3046
      3037      3039      3041      3037      3039      3042      3037      3039      3043
      3041      3039      3042      3041      3039      3043      3042      3039      3043
      3037      3044      3049      3037      3046      3048      3056      3054      3061
      3056      3054      3063      3061      3054      3063      3054      3056      3058
      3054      3056      3059      3054      3056      3060      3058      3056      3059
      3058      3056      3060      3059      3056      3060      3054      3061      3066
      3054      3063      3065      3073      3071      3078      3073      3071      3080
      3078      3071      3080      3071      3073      3075      3071      3073      3076
      3071      3073      3077      3075      3073      3076      3075      3073      3077
      3076      3073      3077      3071      3078      3083      3071      3080      3082
      3090      3088      3095      3090      3088      3097      3095      3088      3097
      3088      3090      3092      3088      3090      3093      3088      3090      3094
      3092      3090      3093      3092      3090      3094      3093      3090      3094
      3088      3095      3100      3088      3097      3099      3107      3105      3112
      3107      3105      3114      3112      3105      3114      3105      3107      3109
      3105      3107      3110      3105      3107      3111      3109      3107      3110
      3109      3107      3111      3110      3107      3111      3105      3112      3117
      3105      3114      3116      3124      3122      3129      3124      3122      3131
      3129      3122      3131      3122      3124      3126      3122      3124      3127
      3122      3124      3128      3126      3124      3127      3126      3124      3128
      3127      3124      3128      3122      3129      3134      3122      3131      3133
      3141      3139      3146      3141      3139      3148      3146      3139      3148
      3139      3141      3143      3139      3141      3144      3139      3141      3145
      3143      3141      3144      3143      3141      3145      3144      3141      3145
      3139      3146      3151      3139      3148      3150      3158      3156      3163
      3158      3156      3165      3163      3156      3165      3156      3158      3160
      3156      3158      3161      3156      3158      3162      3160      3158      3161
      3160      3158      3162      3161      3158      3162      3156      3163      3168
      3156      3165      3167      3175      3173      3180      3175      3173      3182
      3180      3173      3182      3173      3175      3177      3173      3175      3178
      3173      3175      3179      3177      3175      3178      3177      3175      3179
      3178      3175      3179      3173      3180      3185      3173      3182      3184
      3192      3190      3197      3192      3190      3199      3197      3190      3199
      3190      3192      3194      3190      3192      3195      3190      3192      3196
      3194      3192      3195      3194      3192      3196      3195      3192      3196
      3190      3197      3202      3190      3199      3201      3209      3207      3214
      3209      3207      3216      3214      3207      3216      3207      3209      3211
      3207      3209      3212      3207      3209      3213      3211      3209      3212
      3211      3209      3213      3212      3209      3213      3207      3214      3219
      3207      3216      3218      3226      3224      3231      3226      3224      3233
      3231      3224      3233      3224      3226      3228      3224      3226      3229
      3224      3226      3230      3228      3226      3229      3228      3226      3230
      3229      3226      3230      3224      3231      3236      3224      3233      3235
      3243      3241      3248      3243      3241      3250      3248      3241      3250
      3241      3243      3245      3241      3243      3246      3241      3243      3247
      3245      3243      3246      3245      3243      3247      3246      3243      3247
      3241      3248      3253      3241      3250      3252      3260      3258      3265
      3260      3258      3267      3265      3258      3267      3258      3260      3262
      3258      3260      3263      3258      3260      3264      3262      3260      3263
      3262      3260      3264      3263      3260      3264      3258      3265      3270
      3258      3267      3269      3277      3275      3282      3277      3275      3284
      3282      3275      3284      3275      3277      3279      3275      3277      3280
      3275      3277      3281      3279      3277      3280      3279      3277      3281
      3280      3277      3281      3275      3282      3287      3275      3284      3286
      3294      3292      3299      3294      3292      3301      3299      3292      3301
      3292      3294      3296      3292      3294      3297      3292      3294      3298
      3296      3294      3297      3296      3294      3298      3297      3294      3298
      3292      3299      3304      3292      3301      3303      3311      3309      3316
      3311      3309      3318      3316      3309      3318      3309      3311      3313
      3309      3311      3314      3309      3311      3315      3313      3311      3314
      3313      3311      3315      3314      3311      3315      3309      3316      3321
      3309      3318      3320      3328      3326      3333      3328      3326      3335
      3333      3326      3335      3326      3328      3330      3326      3328      3331
      3326      3328      3332      3330      3328      3331      3330      3328      3332
      3331      3328      3332      3326      3333      3338      3326      3335      3337
      3345      3343      3350      3345      3343      3352      3350      3343      3352
      3343      3345      3347      3343      3345      3348      3343      3345      3349
      3347      3345      3348      3347      3345      3349      3348      3345      3349
      3343      3350      3355      3343      3352      3354      3362      3360      3367
      3362      3360      3369      3367      3360      3369      3360      3362      3364
      3360      3362      3365      3360      3362      3366      3364      3362      3365
      3364      3362      3366      3365      3362      3366      3360      3367      3372
      3360      3369      3371      3379      3377      3384      3379      3377      3386
      3384      3377      3386      3377      3379      3381      3377      3379      3382
      3377      3379      3383      3381      3379      3382      3381      3379      3383
      3382      3379      3383      3377      3384      3389      3377      3386      3388
      3396      3394      3401      3396      3394      3403      3401      3394      3403
      3394      3396      3398      3394      3396      3399      3394      3396      3400
      3398      3396      3399      3398      3396      3400      3399      3396      3400
      3394      3401      3406      3394      3403      3405      3413      3411      3418
      3413      3411      3420      3418      3411      3420      3411      3413      3415
      3411      3413      3416      3411      3413      3417      3415      3413      3416
      3415      3413      3417      3416      3413      3417      3411      3418      3423
      3411      3420      3422      3430      3428      3435      3430      3428      3437
      3435      3428      3437      3428      3430      3432      3428      3430      3433
      3428      3430      3434      3432      3430      3433      3432      3430      3434
      3433      3430      3434      3428      3435      3440      3428      3437      3439
      3447      3445      3452      3447      3445      3454      3452      3445      3454
      3445      3447      3449      3445      3447      3450      3445      3447      3451
      3449      3447      3450      3449      3447      3451      3450      3447      3451
      3445      3452      3457      3445      3454      3456      3464      3462      3469
      3464      3462      3471      3469      3462      3471      3462      3464      3466
      3462      3464      3467      3462      3464      3468      3466      3464      3467
      3466      3464      3468      3467      3464      3468      3462      3469      3474
      3462      3471      3473      3481      3479      3486      3481      3479      3488
      3486      3479      3488      3479      3481      3483      3479      3481      3484
      3479      3481      3485      3483      3481      3484      3483      3481      3485
      3484      3481      3485      3479      3486      3491      3479      3488      3490
      3498      3496      3503      3498      3496      3505      3503      3496      3505
      3496      3498      3500      3496      3498      3501      3496      3498      3502
      3500      3498      3501      3500      3498      3502      3501      3498      3502
      3496      3503      3508      3496      3505      3507      3515      3513      3520
      3515      3513      3522      3520      3513      3522      3513      3515      3517
      3513      3515      3518      3513      3515      3519      3517      3515      3518
      3517      3515      3519      3518      3515      3519      3513      3520      3525
      3513      3522      3524      3532      3530      3537      3532      3530      3539
      3537      3530      3539      3530      3532      3534      3530      3532      3535
      3530      3532      3536      3534      3532      3535      3534      3532      3536
      3535      3532      3536      3530      3537      3542      3530      3539      3541
      3549      3547      3554      3549      3547      3556      3554      3547      3556
      3547      3549      3551      3547      3549      3552      3547      3549      3553
      3551      3549      3552      3551      3549      3553      3552      3549      3553
      3547      3554      3559      3547      3556      3558      3566      3564      3571
      3566      3564      3573      3571      3564      3573      3564      3566      3568
      3564      3566      3569      3564      3566      3570      3568      3566      3569
      3568      3566      3570      3569      3566      3570      3564      3571      3576
      3564      3573      3575      3583      3581      3588      3583      3581      3590
      3588      3581      3590      3581      3583      3585      3581      3583      3586
      3581      3583      3587      3585      3583      3586      3585      3583      3587
      3586      3583      3587      3581      3588      3593      3581      3590      3592
      3600      3598      3605      3600      3598      3607      3605      3598      3607
      3598      3600      3602      3598      3600      3603      3598      3600      3604
      3602      3600      3603      3602      3600      3604      3603      3600      3604
      3598      3605      3610      3598      3607      3609      3617      3615      3622
      3617      3615      3624      3622      3615      3624      3615      3617      3619
      3615      3617      3620      3615      3617      3621      3619      3617      3620
      3619      3617      3621      3620      3617      3621      3615      3622      3627
      3615      3624      3626      3634      3632      3639      3634      3632      3641
      3639      3632      3641      3632      3634      3636      3632      3634      3637
      3632      3634      3638      3636      3634      3637      3636      3634      3638
      3637      3634      3638      3632      3639      3644      3632      3641      3643
      3651      3649      3656      3651      3649      3658      3656      3649      3658
      3649      3651      3653      3649      3651      3654      3649      3651      3655
      3653      3651      3654      3653      3651      3655      3654      3651      3655
      3649      3656      3661      3649      3658      3660      3668      3666      3673
      3668      3666      3675      3673      3666      3675      3666      3668      3670
      3666      3668      3671      3666      3668      3672      3670      3668      3671
      3670      3668      3672      3671      3668      3672      3666      3673      3678
      3666      3675      3677      3685      3683      3690      3685      3683      3692
      3690      3683      3692      3683      3685      3687      3683      3685      3688
      3683      3685      3689      3687      3685      3688      3687      3685      3689
      3688      3685      3689      3683      3690      3695      3683      3692      3694
      3702      3700      3707      3702      3700      3709      3707      3700      3709
      3700      3702      3704      3700      3702      3705      3700      3702      3706
      3704      3702      3705      3704      3702      3706      3705      3702      3706
      3700      3707      3712      3700      3709      3711      3719      3717      3724
      3719      3717      3726      3724      3717      3726      3717      3719      3721
      3717      3719      3722      3717      3719      3723      3721      3719      3722
      3721      3719      3723      3722      3719      3723      3717      3724      3729
      3717      3726      3728      3736      3734      3741      3736      3734      3743
      3741      3734      3743      3734      3736      3738      3734      3736      3739
      3734      3736      3740      3738      3736      3739      3738      3736      3740
      3739      3736      3740      3734      3741      3746      3734      3743      3745
      3753      3751      3758      3753      3751      3760      3758      3751      3760
      3751      3753      3755      3751      3753      3756      3751      3753      3757
      3755      3753      3756      3755      3753      3757      3756      3753      3757
      3751      3758      3763      3751      3760      3762      3770      3768      3775
      3770      3768      3777      3775      3768      3777      3768      3770      3772
      3768      3770      3773      3768      3770      3774      3772      3770      3773
      3772      3770      3774      3773      3770      3774      3768      3775      3780
      3768      3777      3779      3787      3785      3792      3787      3785      3794
      3792      3785      3794      3785      3787      3789      3785      3787      3790
      3785      3787      3791      3789      3787      3790      3789      3787      3791
      3790      3787      3791      3785      3792      3797      3785      3794      3796
      3804      3802      3809      3804      3802      3811      3809      3802      3811
      3802      3804      3806      3802      3804      3807      3802      3804      3808
      3806      3804      3807      3806      3804      3808      3807      3804      3808
      3802      3809      3814      3802      3811      3813      3821      3819      3826
      3821      3819      3828      3826      3819      3828      3819      3821      3823
      3819      3821      3824      3819      3821      3825      3823      3821      3824
      3823      3821      3825      3824      3821      3825      3819      3826      3831
      3819      3828      3830      3838      3836      3843      3838      3836      3845
      3843      3836      3845      3836      3838      3840      3836      3838      3841
      3836      3838      3842      3840      3838      3841      3840      3838      3842
      3841      3838      3842      3836      3843      3848      3836      3845      3847
      3855      3853      3860      3855      3853      3862      3860      3853      3862
      3853      3855      3857      3853      3855      3858      3853      3855      3859
      3857      3855      3858      3857      3855      3859      3858      3855      3859
      3853      3860      3865      3853      3862      3864      3872      3870      3877
      3872      3870      3879      3877      3870      3879      3870      3872      3874
      3870      3872      3875      3870      3872      3876      3874      3872      3875
      3874      3872      3876      3875      3872      3876      3870      3877      3882
      3870      3879      3881      3889      3887      3894      3889      3887      3896
      3894      3887      3896      3887      3889      3891      3887      3889      3892
      3887      3889      3893      3891      3889      3892      3891      3889      3893
      3892      3889      3893      3887      3894      3899      3887      3896      3898
      3906      3904      3911      3906      3904      3913      3911      3904      3913
      3904      3906      3908      3904      3906      3909      3904      3906      3910
      3908      3906      3909      3908      3906      3910      3909      3906      3910
      3904      3911      3916      3904      3913      3915      3923      3921      3928
      3923      3921      3930      3928      3921      3930      3921      3923      3925
      3921      3923      3926      3921      3923      3927      3925      3923      3926
      3925      3923      3927      3926      3923      3927      3921      3928      3933
      3921      3930      3932      3940      3938      3945      3940      3938      3947
      3945      3938      3947      3938      3940      3942      3938      3940      3943
      3938      3940      3944      3942      3940      3943      3942      3940      3944
      3943      3940      3944      3938      3945      3950      3938      3947      3949
      3957      3955      3962      3957      3955      3964      3962      3955      3964
      3955      3957      3959      3955      3957      3960      3955      3957      3961
      3959      3957      3960      3959      3957      3961      3960      3957      3961
      3955      3962      3967      3955      3964      3966      3974      3972      3979
      3974      3972      3981      3979      3972      3981      3972      3974      3976
      3972      3974      3977      3972      3974      3978      3976      3974      3977
      3976      3974      3978      3977      3974      3978      3972      3979      3984
      3972      3981      3983      3991      3989      3996      3991      3989      3998
      3996      3989      3998      3989      3991      3993      3989      3991      3994
      3989      3991      3995      3993      3991      3994      3993      3991      3995
      3994      3991      3995      3989      3996      4001      3989      3998      4000
      4008      4006      4013      4008      4006      4015      4013      4006      4015
      4006      4008      4010      4006      4008      4011      4006      4008      4012
      4010      4008      4011      4010      4008      4012      4011      4008      4012
      4006      4013      4018      4006      4015      4017      4025      4023      4030
      4025      4023      4032      4030      4023      4032      4023      4025      4027
      4023      4025      4028      4023      4025      4029      4027      4025      4028
      4027      4025      4029      4028      4025      4029      4023      4030      4035
      4023      4032      4034      4042      4040      4047      4042      4040      4049
      4047      4040      4049      4040      4042      4044      4040      4042      4045
      4040      4042      4046      4044      4042      4045      4044      4042      4046
      4045      4042      4046      4040      4047      4052      4040      4049      4051
      4059      4057      4064      4059      4057      4066      4064      4057      4066
      4057      4059      4061      4057      4059      4062      4057      4059      4063
      4061      4059      4062      4061      4059      4063      4062      4059      4063
      4057      4064      4069      4057      4066      4068      4076      4074      4081
      4076      4074      4083      4081      4074      4083      4074      4076      4078
      4074      4076      4079      4074      4076      4080      4078      4076      4079
      4078      4076      4080      4079      4076      4080      4074      4081      4086
      4074      4083      4085      4093      4091      4098      4093      4091      4100
      4098      4091      4100      4091      4093      4095      4091      4093      4096
      4091      4093      4097      4095      4093      4096      4095      4093      4097
      4096      4093      4097      4091      4098      4103      4091      4100      4102
      4110      4108      4115      4110      4108      4117      4115      4108      4117
      4108      4110      4112      4108      4110      4113      4108      4110      4114
      4112      4110      4113      4112      4110      4114      4113      4110      4114
      4108      4115      4120      4108      4117      4119      4127      4125      4132
      4127      4125      4134      4132      4125      4134      4125      4127      4129
      4125      4127      4130      4125      4127      4131      4129      4127      4130
      4129      4127      4131      4130      4127      4131      4125      4132      4137
      4125      4134      4136      4144      4142      4149      4144      4142      4151
      4149      4142      4151      4142      4144      4146      4142      4144      4147
      4142      4144      4148      4146      4144      4147      4146      4144      4148
      4147      4144      4148      4142      4149      4154      4142      4151      4153
      4161      4159      4166      4161      4159      4168      4166      4159      4168
      4159      4161      4163      4159      4161      4164      4159      4161      4165
      4163      4161      4164      4163      4161      4165      4164      4161      4165
      4159      4166      4171      4159      4168      4170      4178      4176      4183
      4178      4176      4185      4183      4176      4185      4176      4178      4180
      4176      4178      4181      4176      4178      4182      4180      4178      4181
      4180      4178      4182      4181      4178      4182      4176      4183      4188
      4176      4185      4187      4195      4193      4200      4195      4193      4202
      4200      4193      4202      4193      4195      4197      4193      4195      4198
      4193      4195      4199      4197      4195      4198      4197      4195      4199
      4198      4195      4199      4193      4200      4205      4193      4202      4204
      4212      4210      4254      4212      4210      4268      4254      4210      4268
      4210      4212      4214      4210      4212      4269      4214      4212      4269
      4212      4214      4216      4212      4214      4224      4216      4214      4224
      4214      4216      4218      4214      4216      4256      4218      4216      4256
      4216      4218      4220      4216      4218      4242      4220      4218      4242
      4218      4220      4222      4218      4220      4234      4222      4220      4234
      4220      4222      4224      4220      4222      4270      4224      4222      4270
      4214      4224      4222      4214      4224      4226      4222      4224      4226
      4224      4226      4228      4224      4226      4230      4224      4226      4232
      4228      4226      4230      4228      4226      4232      4230      4226      4232
      4220      4234      4236      4220      4234      4238      4220      4234      4240
      4236      4234      4238      4236      4234      4240      4238      4234      4240
      4218      4242      4244      4218      4242      4271      4244      4242      4271
      4242      4244      4246      4242      4244      4272      4246      4244      4272
      4244      4246      4248      4244      4246      4256      4248      4246      4256
      4246      4248      4250      4246      4248      4260      4250      4248      4260
      4248      4250      4252      4248      4250      4273      4252      4250      4273
      4250      4252      4254      4250      4252      4258      4254      4252      4258
      4210      4254      4252      4210      4254      4256      4252      4254      4256
      4216      4256      4246      4216      4256      4254      4246      4256      4254
      4252      4258      4274      4248      4260      4262      4248      4260      4264
      4248      4260      4266      4262      4260      4264      4262      4260      4266
      4264      4260      4266      4297      4295      4339      4297      4295      4353
      4339      4295      4353      4295      4297      4299      4295      4297      4354
      4299      4297      4354      4297      4299      4301      4297      4299      4309
      4301      4299      4309      4299      4301      4303      4299      4301      4341
      4303      4301      4341      4301      4303      4305      4301      4303      4327
      4305      4303      4327      4303      4305      4307      4303      4305      4319
      4307      4305      4319      4305      4307      4309      4305      4307      4355
      4309      4307      4355      4299      4309      4307      4299      4309      4311
      4307      4309      4311      4309      4311      4313      4309      4311      4315
      4309      4311      4317      4313      4311      4315      4313      4311      4317
      4315      4311      4317      4305      4319      4321      4305      4319      4323
      4305      4319      4325      4321      4319      4323      4321      4319      4325
      4323      4319      4325      4303      4327      4329      4303      4327      4356
      4329      4327      4356      4327      4329      4331      4327      4329      4357
      4331      4329      4357      4329      4331      4333      4329      4331      4341
      4333      4331      4341      4331      4333      4335      4331      4333      4345
      4335      4333      4345      4333      4335      4337      4333      4335      4358
      4337      4335      4358      4335      4337      4339      4335      4337      4343
      4339      4337      4343      4295      4339      4337      4295      4339      4341
      4337      4339      4341      4301      4341      4331      4301      4341      4339
      4331      4341      4339      4337      4343      4359      4333      4345      4347
      4333      4345      4349      4333      4345      4351      4347      4345      4349
      4347      4345      4351      4349      4345      4351      4382      4380      4424
      4382      4380      4438      4424      4380      4438      4380      4382      4384
      4380      4382      4439      4384      4382      4439      4382      4384      4386
      4382      4384      4394      4386      4384      4394      4384      4386      4388
      4384      4386      4426      4388      4386      4426      4386      4388      4390
      4386      4388      4412      4390      4388      4412      4388      4390      4392
      4388      4390      4404      4392      4390      4404      4390      4392      4394
      4390      4392      4440      4394      4392      4440      4384      4394      4392
      4384      4394      4396      4392      4394      4396      4394      4396      4398
      4394      4396      4400      4394      4396      4402      4398      4396      4400
      4398      4396      4402      4400      4396      4402      4390      4404      4406
      4390      4404      4408      4390      4404      4410      4406      4404      4408
      4406      4404      4410      4408      4404      4410      4388      4412      4414
      4388      4412      4441      4414      4412      4441      4412      4414      4416
      4412      4414      4442      4416      4414      4442      4414      4416      4418
      4414      4416      4426      4418      4416      4426      4416      4418      4420
      4416      4418      4430      4420      4418      4430      4418      4420      4422
      4418      4420      4443      4422      4420      4443      4420      4422      4424
      4420      4422      4428      4424      4422      4428      4380      4424      4422
      4380      4424      4426      4422      4424      4426      4386      4426      4416
      4386      4426      4424      4416      4426      4424      4422      4428      4444
      4418      4430      4432      4418      4430      4434      4418      4430      4436
      4432      4430      4434      4432      4430      4436      4434      4430      4436
      4467      4465      4509      4467      4465      4523      4509      4465      4523
      4465      4467      4469      4465      4467      4524      4469      4467      4524
      4467      4469      4471      4467      4469      4479      4471      4469      4479
      4469      4471      4473      4469      4471      4511      4473      4471      4511
      4471      4473      4475      4471      4473      4497      4475      4473      4497
      4473      4475      4477      4473      4475      4489      4477      4475      4489
      4475      4477      4479      4475      4477      4525      4479      4477      4525
      4469      4479      4477      4469      4479      4481      4477      4479      4481
      4479      4481      4483      4479      4481      4485      4479      4481      4487
      4483      4481      4485      4483      4481      4487      4485      4481      4487
      4475      4489      4491      4475      4489      4493      4475      4489      4495
      4491      4489      4493      4491      4489      4495      4493      4489      4495
      4473      4497      4499      4473      4497      4526      4499      4497      4526
      4497      4499      4501      4497      4499      4527      4501      4499      4527
      4499      4501      4503      4499      4501      4511      4503      4501      4511
      4501      4503      4505      4501      4503      4515      4505      4503      4515
      4503      4505      4507      4503      4505      4528      4507      4505      4528
      4505      4507      4509      4505      4507      4513      4509      4507      4513
      4465      4509      4507      4465      4509      4511      4507      4509      4511
      4471      4511      4501      4471      4511      4509      4501      4511      4509
      4507      4513      4529      4503      4515      4517      4503      4515      4519
      4503      4515      4521      4517      4515      4519      4517      4515      4521
      4519      4515      4521      4552      4550      4594      4552      4550      4608
      4594      4550      4608      4550      4552      4554      4550      4552      4609
      4554      4552      4609      4552      4554      4556      4552      4554      4564
      4556      4554      4564      4554      4556      4558      4554      4556      4596
      4558      4556      4596      4556      4558      4560      4556      4558      4582
      4560      4558      4582      4558      4560      4562      4558      4560      4574
      4562      4560      4574      4560      4562      4564      4560      4562      4610
      4564      4562      4610      4554      4564      4562      4554      4564      4566
      4562      4564      4566      4564      4566      4568      4564      4566      4570
      4564      4566      4572      4568      4566      4570      4568      4566      4572
      4570      4566      4572      4560      4574      4576      4560      4574      4578
      4560      4574      4580      4576      4574      4578      4576      4574      4580
      4578      4574      4580      4558      4582      4584      4558      4582      4611
      4584      4582      4611      4582      4584      4586      4582      4584      4612
      4586      4584      4612      4584      4586      4588      4584      4586      4596
      4588      4586      4596      4586      4588      4590      4586      4588      4600
      4590      4588      4600      4588      4590      4592      4588      4590      4613
      4592      4590      4613      4590      4592      4594      4590      4592      4598
      4594      4592      4598      4550      4594      4592      4550      4594      4596
      4592      4594      4596      4556      4596      4586      4556      4596      4594
      4586      4596      4594      4592      4598      4614      4588      4600      4602
      4588      4600      4604      4588      4600      4606      4602      4600      4604
      4602      4600      4606      4604      4600      4606      4637      4635      4679
      4637      4635      4693      4679      4635      4693      4635      4637      4639
      4635      4637      4694      4639      4637      4694      4637      4639      4641
      4637      4639      4649      4641      4639      4649      4639      4641      4643
      4639      4641      4681      4643      4641      4681      4641      4643      4645
      4641      4643      4667      4645      4643      4667      4643      4645      4647
      4643      4645      4659      4647      4645      4659      4645      4647      4649
      4645      4647      4695      4649      4647      4695      4639      4649      4647
      4639      4649      4651      4647      4649      4651      4649      4651      4653
      4649      4651      4655      4649      4651      4657      4653      4651      4655
      4653      4651      4657      4655      4651      4657      4645      4659      4661
      4645      4659      4663      4645      4659      4665      4661      4659      4663
      4661      4659      4665      4663      4659      4665      4643      4667      4669
      4643      4667      4696      4669      4667      4696      4667      4669      4671
      4667      4669      4697      4671      4669      4697      4669      4671      4673
      4669      4671      4681      4673      4671      4681      4671      4673      4675
      4671      4673      4685      4675      4673      4685      4673      4675      4677
      4673      4675      4698      4677      4675      4698      4675      4677      4679
      4675      4677      4683      4679      4677      4683      4635      4679      4677
      4635      4679      4681      4677      4679      4681      4641      4681      4671
      4641      4681      4679      4671      4681      4679      4677      4683      4699
      4673      4685      4687      4673      4685      4689      4673      4685      4691
      4687      4685      4689      4687      4685      4691      4689      4685      4691
      4722      4720      4726      4722      4720      4727      4722      4720      4728
      4726      4720      4727      4726      4720      4728      4727      4720      4728
      4720      4722      4724      4720      4722      4725      4724      4722      4725
      4733      4731      4737      4733      4731      4738      4733      4731      4739
      4737      4731      4738      4737      4731      4739      4738      4731      4739
      4731      4733      4735      4731      4733      4736      4735      4733      4736
      4744      4742      4748      4744      4742      4749      4744      4742      4750
      4748      4742      4749      4748      4742      4750      4749      4742      4750
      4742      4744      4746      4742      4744      4747      4746      4744      4747
      4755      4753      4759      4755      4753      4760      4755      4753      4761
      4759      4753      4760      4759      4753      4761      4760      4753      4761
      4753      4755      4757      4753      4755      4758      4757      4755      4758
      4766      4764      4770      4766      4764      4771      4766      4764      4772
      4770      4764      4771      4770      4764      4772      4771      4764      4772
      4764      4766      4768      4764      4766      4769      4768      4766      4769
      4777      4775      4781      4777      4775      4782      4777      4775      4783
      4781      4775      4782      4781      4775      4783      4782      4775      4783
      4775      4777      4779      4775      4777      4780      4779      4777      4780
      4788      4786      4792      4788      4786      4793      4788      4786      4794
      4792      4786      4793      4792      4786      4794      4793      4786      4794
      4786      4788      4790      4786      4788      4791      4790      4788      4791
      4799      4797      4803      4799      4797      4804      4799      4797      4805
      4803      4797      4804      4803      4797      4805      4804      4797      4805
      4797      4799      4801      4797      4799      4802      4801      4799      4802
      4810      4808      4814      4810      4808      4815      4810      4808      4816
      4814      4808      4815      4814      4808      4816      4815      4808      4816
      4808      4810      4812      4808      4810      4813      4812      4810      4813
      4821      4819      4825      4821      4819      4826      4821      4819      4827
      4825      4819      4826      4825      4819      4827      4826      4819      4827
      4819      4821      4823      4819      4821      4824      4823      4821      4824
      4832      4830      4836      4832      4830      4837      4832      4830      4838
      4836      4830      4837      4836      4830      4838      4837      4830      4838
      4830      4832      4834      4830      4832      4835      4834      4832      4835
      4843      4841      4847      4843      4841      4848      4843      4841      4849
      4847      4841      4848      4847      4841      4849      4848      4841      4849
      4841      4843      4845      4841      4843      4846      4845      4843      4846
      4854      4852      4858      4854      4852      4859      4854      4852      4860
      4858      4852      4859      4858      4852      4860      4859      4852      4860
      4852      4854      4856      4852      4854      4857      4856      4854      4857
      4865      4863      4869      4865      4863      4870      4865      4863      4871
      4869      4863      4870      4869      4863      4871      4870      4863      4871
      4863      4865      4867      4863      4865      4868      4867      4865      4868
      4876      4874      4880      4876      4874      4881      4876      4874      4882
      4880      4874      4881      4880      4874      4882      4881      4874      4882
      4874      4876      4878      4874      4876      4879      4878      4876      4879
      4887      4885      4891      4887      4885      4892      4887      4885      4893
      4891      4885      4892      4891      4885      4893      4892      4885      4893
      4885      4887      4889      4885      4887      4890      4889      4887      4890
      4898      4896      4902      4898      4896      4903      4898      4896      4904
      4902      4896      4903      4902      4896      4904      4903      4896      4904
      4896      4898      4900      4896      4898      4901      4900      4898      4901
      4909      4907      4913      4909      4907      4914      4909      4907      4915
      4913      4907      4914      4913      4907      4915      4914      4907      4915
      4907      4909      4911      4907      4909      4912      4911      4909      4912
      4920      4918      4924      4920      4918      4925      4920      4918      4926
      4924      4918      4925      4924      4918      4926      4925      4918      4926
      4918      4920      4922      4918      4920      4923      4922      4920      4923
      4931      4929      4935      4931      4929      4936      4931      4929      4937
      4935      4929      4936      4935      4929      4937      4936      4929      4937
      4929      4931      4933      4929      4931      4934      4933      4931      4934
      4942      4940      4946      4942      4940      4947      4942      4940      4948
      4946      4940      4947      4946      4940      4948      4947      4940      4948
      4940      4942      4944      4940      4942      4945      4944      4942      4945
      4953      4951      4957      4953      4951      4958      4953      4951      4959
      4957      4951      4958      4957      4951      4959      4958      4951      4959
      4951      4953      4955      4951      4953      4956      4955      4953      4956
      4964      4962      4968      4964      4962      4969      4964      4962      4970
      4968      4962      4969      4968      4962      4970      4969      4962      4970
      4962      4964      4966      4962      4964      4967      4966      4964      4967
      4975      4973      4979      4975      4973      4980      4975      4973      4981
      4979      4973      4980      4979      4973      4981      4980      4973      4981
      4973      4975      4977      4973      4975      4978      4977      4975      4978
      4986      4984      4990      4986      4984      4991      4986      4984      4992
      4990      4984      4991      4990      4984      4992      4991      4984      4992
      4984      4986      4988      4984      4986      4989      4988      4986      4989
      4997      4995      5001      4997      4995      5002      4997      4995      5003
      5001      4995      5002      5001      4995      5003      5002      4995      5003
      4995      4997      4999      4995      4997      5000      4999      4997      5000
      5008      5006      5012      5008      5006      5013      5008      5006      5014
      5012      5006      5013      5012      5006      5014      5013      5006      5014
      5006      5008      5010      5006      5008      5011      5010      5008      5011
      5019      5017      5023      5019      5017      5024      5019      5017      5025
      5023      5017      5024      5023      5017      5025      5024      5017      5025
      5017      5019      5021      5017      5019      5022      5021      5019      5022
      5030      5028      5034      5030      5028      5035      5030      5028      5036
      5034      5028      5035      5034      5028      5036      5035      5028      5036
      5028      5030      5032      5028      5030      5033      5032      5030      5033
      5041      5039      5045      5041      5039      5046      5041      5039      5047
      5045      5039      5046      5045      5039      5047      5046      5039      5047
      5039      5041      5043      5039      5041      5044      5043      5041      5044
      5052      5050      5056      5052      5050      5057      5052      5050      5058
      5056      5050      5057      5056      5050      5058      5057      5050      5058
      5050      5052      5054      5050      5052      5055      5054      5052      5055
      5063      5061      5067      5063      5061      5068      5063      5061      5069
      5067      5061      5068      5067      5061      5069      5068      5061      5069
      5061      5063      5065      5061      5063      5066      5065      5063      5066
      5074      5072      5078      5074      5072      5079      5074      5072      5080
      5078      5072      5079      5078      5072      5080      5079      5072      5080
      5072      5074      5076      5072      5074      5077      5076      5074      5077
      5085      5083      5089      5085      5083      5090      5085      5083      5091
      5089      5083      5090      5089      5083      5091      5090      5083      5091
      5083      5085      5087      5083      5085      5088      5087      5085      5088
      5096      5094      5100      5096      5094      5101      5096      5094      5102
      5100      5094      5101      5100      5094      5102      5101      5094      5102
      5094      5096      5098      5094      5096      5099      5098      5096      5099
      5107      5105      5111      5107      5105      5112      5107      5105      5113
      5111      5105      5112      5111      5105      5113      5112      5105      5113
      5105      5107      5109      5105      5107      5110      5109      5107      5110
      5118      5116      5122      5118      5116      5123      5118      5116      5124
      5122      5116      5123      5122      5116      5124      5123      5116      5124
      5116      5118      5120      5116      5118      5121      5120      5118      5121
      5129      5127      5133      5129      5127      5134      5129      5127      5135
      5133      5127      5134      5133      5127      5135      5134      5127      5135
      5127      5129      5131      5127      5129      5132      5131      5129      5132
      5140      5138      5144      5140      5138      5145      5140      5138      5146
      5144      5138      5145      5144      5138      5146      5145      5138      5146
      5138      5140      5142      5138      5140      5143      5142      5140      5143
      5151      5149      5155      5151      5149      5156      5151      5149      5157
      5155      5149      5156      5155      5149      5157      5156      5149      5157
      5149      5151      5153      5149      5151      5154      5153      5151      5154
      5162      5160      5166      5162      5160      5167      5162      5160      5168
      5166      5160      5167      5166      5160      5168      5167      5160      5168
      5160      5162      5164      5160      5162      5165      5164      5162      5165
      5173      5171      5177      5173      5171      5178      5173      5171      5179
      5177      5171      5178      5177      5171      5179      5178      5171      5179
      5171      5173      5175      5171      5173      5176      5175      5173      5176
      5184      5182      5188      5184      5182      5189      5184      5182      5190
      5188      5182      5189      5188      5182      5190      5189      5182      5190
      5182      5184      5186      5182      5184      5187      5186      5184      5187
      5195      5193      5199      5195      5193      5200      5195      5193      5201
      5199      5193      5200      5199      5193      5201      5200      5193      5201
      5193      5195      5197      5193      5195      5198      5197      5195      5198
      5206      5204      5210      5206      5204      5211      5206      5204      5212
      5210      5204      5211      5210      5204      5212      5211      5204      5212
      5204      5206      5208      5204      5206      5209      5208      5206      5209
      5217      5215      5221      5217      5215      5222      5217      5215      5223
      5221      5215      5222      5221      5215      5223      5222      5215      5223
      5215      5217      5219      5215      5217      5220      5219      5217      5220
      5228      5226      5232      5228      5226      5233      5228      5226      5234
      5232      5226      5233      5232      5226      5234      5233      5226      5234
      5226      5228      5230      5226      5228      5231      5230      5228      5231
      5239      5237      5243      5239      5237      5244      5239      5237      5245
      5243      5237      5244      5243      5237      5245      5244      5237      5245
      5237      5239      5241      5237      5239      5242      5241      5239      5242
      5250      5248      5254      5250      5248      5255      5250      5248      5256
      5254      5248      5255      5254      5248      5256      5255      5248      5256
      5248      5250      5252      5248      5250      5253      5252      5250      5253
      5261      5259      5265      5261      5259      5266      5261      5259      5267
      5265      5259      5266      5265      5259      5267      5266      5259      5267
      5259      5261      5263      5259      5261      5264      5263      5261      5264
      5272      5270      5276      5272      5270      5277      5272      5270      5278
      5276      5270      5277      5276      5270      5278      5277      5270      5278
      5270      5272      5274      5270      5272      5275      5274      5272      5275
      5283      5281      5287      5283      5281      5288      5283      5281      5289
      5287      5281      5288      5287      5281      5289      5288      5281      5289
      5281      5283      5285      5281      5283      5286      5285      5283      5286
      5294      5292      5298      5294      5292      5299      5294      5292      5300
      5298      5292      5299      5298      5292      5300      5299      5292      5300
      5292      5294      5296      5292      5294      5297      5296      5294      5297
      5305      5303      5309      5305      5303      5310      5305      5303      5311
      5309      5303      5310      5309      5303      5311      5310      5303      5311
      5303      5305      5307      5303      5305      5308      5307      5305      5308
      5316      5314      5320      5316      5314      5321      5316      5314      5322
      5320      5314      5321      5320      5314      5322      5321      5314      5322
      5314      5316      5318      5314      5316      5319      5318      5316      5319
      5327      5325      5331      5327      5325      5332      5327      5325      5333
      5331      5325      5332      5331      5325      5333      5332      5325      5333
      5325      5327      5329      5325      5327      5330      5329      5327      5330
      5338      5336      5342      5338      5336      5343      5338      5336      5344
      5342      5336      5343      5342      5336      5344      5343      5336      5344
      5336      5338      5340      5336      5338      5341      5340      5338      5341
      5349      5347      5353      5349      5347      5354      5349      5347      5355
      5353      5347      5354      5353      5347      5355      5354      5347      5355
      5347      5349      5351      5347      5349      5352      5351      5349      5352
      5360      5358      5364      5360      5358      5365      5360      5358      5366
      5364      5358      5365      5364      5358      5366      5365      5358      5366
      5358      5360      5362      5358      5360      5363      5362      5360      5363
      5371      5369      5375      5371      5369      5376      5371      5369      5377
      5375      5369      5376      5375      5369      5377      5376      5369      5377
      5369      5371      5373      5369      5371      5374      5373      5371      5374
      5382      5380      5386      5382      5380      5387      5382      5380      5388
      5386      5380      5387      5386      5380      5388      5387      5380      5388
      5380      5382      5384      5380      5382      5385      5384      5382      5385
      5393      5391      5397      5393      5391      5398      5393      5391      5399
      5397      5391      5398      5397      5391      5399      5398      5391      5399
      5391      5393      5395      5391      5393      5396      5395      5393      5396
      5404      5402      5408      5404      5402      5409      5404      5402      5410
      5408      5402      5409      5408      5402      5410      5409      5402      5410
      5402      5404      5406      5402      5404      5407      5406      5404      5407
      5415      5413      5419      5415      5413      5420      5415      5413      5421
      5419      5413      5420      5419      5413      5421      5420      5413      5421
      5413      5415      5417      5413      5415      5418      5417      5415      5418
      5426      5424      5430      5426      5424      5431      5426      5424      5432
      5430      5424      5431      5430      5424      5432      5431      5424      5432
      5424      5426      5428      5424      5426      5429      5428      5426      5429
      5437      5435      5441      5437      5435      5442      5437      5435      5443
      5441      5435      5442      5441      5435      5443      5442      5435      5443
      5435      5437      5439      5435      5437      5440      5439      5437      5440
      5448      5446      5452      5448      5446      5453      5448      5446      5454
      5452      5446      5453      5452      5446      5454      5453      5446      5454
      5446      5448      5450      5446      5448      5451      5450      5448      5451
      5459      5457      5463      5459      5457      5464      5459      5457      5465
      5463      5457      5464      5463      5457      5465      5464      5457      5465
      5457      5459      5461      5457      5459      5462      5461      5459      5462
      5470      5468      5474      5470      5468      5475      5470      5468      5476
      5474      5468      5475      5474      5468      5476      5475      5468      5476
      5468      5470      5472      5468      5470      5473      5472      5470      5473
      5481      5479      5485      5481      5479      5486      5481      5479      5487
      5485      5479      5486      5485      5479      5487      5486      5479      5487
      5479      5481      5483      5479      5481      5484      5483      5481      5484
      5492      5490      5496      5492      5490      5497      5492      5490      5498
      5496      5490      5497      5496      5490      5498      5497      5490      5498
      5490      5492      5494      5490      5492      5495      5494      5492      5495
      5503      5501      5507      5503      5501      5508      5503      5501      5509
      5507      5501      5508      5507      5501      5509      5508      5501      5509
      5501      5503      5505      5501      5503      5506      5505      5503      5506
      5514      5512      5518      5514      5512      5519      5514      5512      5520
      5518      5512      5519      5518      5512      5520      5519      5512      5520
      5512      5514      5516      5512      5514      5517      5516      5514      5517
      5525      5523      5529      5525      5523      5530      5525      5523      5531
      5529      5523      5530      5529      5523      5531      5530      5523      5531
      5523      5525      5527      5523      5525      5528      5527      5525      5528
      5536      5534      5540      5536      5534      5541      5536      5534      5542
      5540      5534      5541      5540      5534      5542      5541      5534      5542
      5534      5536      5538      5534      5536      5539      5538      5536      5539
      5547      5545      5551      5547      5545      5552      5547      5545      5553
      5551      5545      5552      5551      5545      5553      5552      5545      5553
      5545      5547      5549      5545      5547      5550      5549      5547      5550
      5558      5556      5562      5558      5556      5563      5558      5556      5564
      5562      5556      5563      5562      5556      5564      5563      5556      5564
      5556      5558      5560      5556      5558      5561      5560      5558      5561
      5569      5567      5573      5569      5567      5574      5569      5567      5575
      5573      5567      5574      5573      5567      5575      5574      5567      5575
      5567      5569      5571      5567      5569      5572      5571      5569      5572
      5580      5578      5584      5580      5578      5585      5580      5578      5586
      5584      5578      5585      5584      5578      5586      5585      5578      5586
      5578      5580      5582      5578      5580      5583      5582      5580      5583
      5591      5589      5595      5591      5589      5596      5591      5589      5597
      5595      5589      5596      5595      5589      5597      5596      5589      5597
      5589      5591      5593      5589      5591      5594      5593      5591      5594
      5602      5600      5606      5602      5600      5607      5602      5600      5608
      5606      5600      5607      5606      5600      5608      5607      5600      5608
      5600      5602      5604      5600      5602      5605      5604      5602      5605
      5613      5611      5617      5613      5611      5618      5613      5611      5619
      5617      5611      5618      5617      5611      5619      5618      5611      5619
      5611      5613      5615      5611      5613      5616      5615      5613      5616
      5624      5622      5628      5624      5622      5629      5624      5622      5630
      5628      5622      5629      5628      5622      5630      5629      5622      5630
      5622      5624      5626      5622      5624      5627      5626      5624      5627
      5635      5633      5639      5635      5633      5640      5635      5633      5641
      5639      5633      5640      5639      5633      5641      5640      5633      5641
      5633      5635      5637      5633      5635      5638      5637      5635      5638
      5646      5644      5650      5646      5644      5651      5646      5644      5652
      5650      5644      5651      5650      5644      5652      5651      5644      5652
      5644      5646      5648      5644      5646      5649      5648      5646      5649
      5657      5655      5661      5657      5655      5662      5657      5655      5663
      5661      5655      5662      5661      5655      5663      5662      5655      5663
      5655      5657      5659      5655      5657      5660      5659      5657      5660
      5668      5666      5672      5668      5666      5673      5668      5666      5674
      5672      5666      5673      5672      5666      5674      5673      5666      5674
      5666      5668      5670      5666      5668      5671      5670      5668      5671
      5679      5677      5683      5679      5677      5684      5679      5677      5685
      5683      5677      5684      5683      5677      5685      5684      5677      5685
      5677      5679      5681      5677      5679      5682      5681      5679      5682
      5690      5688      5694      5690      5688      5695      5690      5688      5696
      5694      5688      5695      5694      5688      5696      5695      5688      5696
      5688      5690      5692      5688      5690      5693      5692      5690      5693
      5701      5699      5705      5701      5699      5706      5701      5699      5707
      5705      5699      5706      5705      5699      5707      5706      5699      5707
      5699      5701      5703      5699      5701      5704      5703      5701      5704
      5712      5710      5716      5712      5710      5717      5712      5710      5718
      5716      5710      5717      5716      5710      5718      5717      5710      5718
      5710      5712      5714      5710      5712      5715      5714      5712      5715
      5723      5721      5727      5723      5721      5728      5723      5721      5729
      5727      5721      5728      5727      5721      5729      5728      5721      5729
      5721      5723      5725      5721      5723      5726      5725      5723      5726
      5734      5732      5738      5734      5732      5739      5734      5732      5740
      5738      5732      5739      5738      5732      5740      5739      5732      5740
      5732      5734      5736      5732      5734      5737      5736      5734      5737
      5745      5743      5749      5745      5743      5750      5745      5743      5751
      5749      5743      5750      5749      5743      5751      5750      5743      5751
      5743      5745      5747      5743      5745      5748      5747      5745      5748
      5756      5754      5760      5756      5754      5761      5756      5754      5762
      5760      5754      5761      5760      5754      5762      5761      5754      5762
      5754      5756      5758      5754      5756      5759      5758      5756      5759
      5767      5765      5771      5767      5765      5772      5767      5765      5773
      5771      5765      5772      5771      5765      5773      5772      5765      5773
      5765      5767      5769      5765      5767      5770      5769      5767      5770
      5778      5776      5782      5778      5776      5783      5778      5776      5784
      5782      5776      5783      5782      5776      5784      5783      5776      5784
      5776      5778      5780      5776      5778      5781      5780      5778      5781
      5789      5787      5793      5789      5787      5794      5789      5787      5795
      5793      5787      5794      5793      5787      5795      5794      5787      5795
      5787      5789      5791      5787      5789      5792      5791      5789      5792
      5800      5798      5804      5800      5798      5805      5800      5798      5806
      5804      5798      5805      5804      5798      5806      5805      5798      5806
      5798      5800      5802      5798      5800      5803      5802      5800      5803
      5811      5809      5815      5811      5809      5816      5811      5809      5817
      5815      5809      5816      5815      5809      5817      5816      5809      5817
      5809      5811      5813      5809      5811      5814      5813      5811      5814
      5822      5820      5826      5822      5820      5827      5822      5820      5828
      5826      5820      5827      5826      5820      5828      5827      5820      5828
      5820      5822      5824      5820      5822      5825      5824      5822      5825
      5833      5831      5837      5833      5831      5838      5833      5831      5839
      5837      5831      5838      5837      5831      5839      5838      5831      5839
      5831      5833      5835      5831      5833      5836      5835      5833      5836
      5844      5842      5848      5844      5842      5849      5844      5842      5850
      5848      5842      5849      5848      5842      5850      5849      5842      5850
      5842      5844      5846      5842      5844      5847      5846      5844      5847
      5855      5853      5859      5855      5853      5860      5855      5853      5861
      5859      5853      5860      5859      5853      5861      5860      5853      5861
      5853      5855      5857      5853      5855      5858      5857      5855      5858
      5866      5864      5870      5866      5864      5871      5866      5864      5872
      5870      5864      5871      5870      5864      5872      5871      5864      5872
      5864      5866      5868      5864      5866      5869      5868      5866      5869
      5877      5875      5881      5877      5875      5882      5877      5875      5883
      5881      5875      5882      5881      5875      5883      5882      5875      5883
      5875      5877      5879      5875      5877      5880      5879      5877      5880
      5888      5886      5892      5888      5886      5893      5888      5886      5894
      5892      5886      5893      5892      5886      5894      5893      5886      5894
      5886      5888      5890      5886      5888      5891      5890      5888      5891
      5899      5897      5903      5899      5897      5904      5899      5897      5905
      5903      5897      5904      5903      5897      5905      5904      5897      5905
      5897      5899      5901      5897      5899      5902      5901      5899      5902
      5910      5908      5914      5910      5908      5915      5910      5908      5916
      5914      5908      5915      5914      5908      5916      5915      5908      5916
      5908      5910      5912      5908      5910      5913      5912      5910      5913
      5921      5919      5925      5921      5919      5926      5921      5919      5927
      5925      5919      5926      5925      5919      5927      5926      5919      5927
      5919      5921      5923      5919      5921      5924      5923      5921      5924
      5932      5930      5936      5932      5930      5937      5932      5930      5938
      5936      5930      5937      5936      5930      5938      5937      5930      5938
      5930      5932      5934      5930      5932      5935      5934      5932      5935
      5943      5941      5947      5943      5941      5948      5943      5941      5949
      5947      5941      5948      5947      5941      5949      5948      5941      5949
      5941      5943      5945      5941      5943      5946      5945      5943      5946
      5954      5952      5958      5954      5952      5959      5954      5952      5960
      5958      5952      5959      5958      5952      5960      5959      5952      5960
      5952      5954      5956      5952      5954      5957      5956      5954      5957
      5965      5963      5969      5965      5963      5970      5965      5963      5971
      5969      5963      5970      5969      5963      5971      5970      5963      5971
      5963      5965      5967      5963      5965      5968      5967      5965      5968
      5976      5974      5980      5976      5974      5981      5976      5974      5982
      5980      5974      5981      5980      5974      5982      5981      5974      5982
      5974      5976      5978      5974      5976      5979      5978      5976      5979
      5987      5985      5991      5987      5985      5992      5987      5985      5993
      5991      5985      5992      5991      5985      5993      5992      5985      5993
      5985      5987      5989      5985      5987      5990      5989      5987      5990
      5998      5996      6002      5998      5996      6003      5998      5996      6004
      6002      5996      6003      6002      5996      6004      6003      5996      6004
      5996      5998      6000      5996      5998      6001      6000      5998      6001
      6009      6007      6013      6009      6007      6014      6009      6007      6015
      6013      6007      6014      6013      6007      6015      6014      6007      6015
      6007      6009      6011      6007      6009      6012      6011      6009      6012
      6020      6018      6024      6020      6018      6025      6020      6018      6026
      6024      6018      6025      6024      6018      6026      6025      6018      6026
      6018      6020      6022      6018      6020      6023      6022      6020      6023
      6031      6029      6035      6031      6029      6036      6031      6029      6037
      6035      6029      6036      6035      6029      6037      6036      6029      6037
      6029      6031      6033      6029      6031      6034      6033      6031      6034
      6042      6040      6046      6042      6040      6047      6042      6040      6048
      6046      6040      6047      6046      6040      6048      6047      6040      6048
      6040      6042      6044      6040      6042      6045      6044      6042      6045
      6053      6051      6057      6053      6051      6058      6053      6051      6059
      6057      6051      6058      6057      6051      6059      6058      6051      6059
      6051      6053      6055      6051      6053      6056      6055      6053      6056
      6064      6062      6068      6064      6062      6069      6064      6062      6070
      6068      6062      6069      6068      6062      6070      6069      6062      6070
      6062      6064      6066      6062      6064      6067      6066      6064      6067
      6075      6073      6079      6075      6073      6080      6075      6073      6081
      6079      6073      6080      6079      6073      6081      6080      6073      6081
      6073      6075      6077      6073      6075      6078      6077      6075      6078
      6086      6084      6090      6086      6084      6091      6086      6084      6092
      6090      6084      6091      6090      6084      6092      6091      6084      6092
      6084      6086      6088      6084      6086      6089      6088      6086      6089
      6097      6095      6101      6097      6095      6102      6097      6095      6103
      6101      6095      6102      6101      6095      6103      6102      6095      6103
      6095      6097      6099      6095      6097      6100      6099      6097      6100
      6108      6106      6112      6108      6106      6113      6108      6106      6114
      6112      6106      6113      6112      6106      6114      6113      6106      6114
      6106      6108      6110      6106      6108      6111      6110      6108      6111
      6119      6117      6123      6119      6117      6124      6119      6117      6125
      6123      6117      6124      6123      6117      6125      6124      6117      6125
      6117      6119      6121      6117      6119      6122      6121      6119      6122
      6130      6128      6134      6130      6128      6135      6130      6128      6136
      6134      6128      6135      6134      6128      6136      6135      6128      6136
      6128      6130      6132      6128      6130      6133      6132      6130      6133
      6141      6139      6145      6141      6139      6146      6141      6139      6147
      6145      6139      6146      6145      6139      6147      6146      6139      6147
      6139      6141      6143      6139      6141      6144      6143      6141      6144
      6152      6150      6156      6152      6150      6157      6152      6150      6158
      6156      6150      6157      6156      6150      6158      6157      6150      6158
      6150      6152      6154      6150      6152      6155      6154      6152      6155
      6163      6161      6167      6163      6161      6168      6163      6161      6169
      6167      6161      6168      6167      6161      6169      6168      6161      6169
      6161      6163      6165      6161      6163      6166      6165      6163      6166
      6174      6172      6178      6174      6172      6179      6174      6172      6180
      6178      6172      6179      6178      6172      6180      6179      6172      6180
      6172      6174      6176      6172      6174      6177      6176      6174      6177
      6185      6183      6189      6185      6183      6190      6185      6183      6191
      6189      6183      6190      6189      6183      6191      6190      6183      6191
      6183      6185      6187      6183      6185      6188      6187      6185      6188
      6196      6194      6200      6196      6194      6201      6196      6194      6202
      6200      6194      6201      6200      6194      6202      6201      6194      6202
      6194      6196      6198      6194      6196      6199      6198      6196      6199
      6207      6205      6211      6207      6205      6212      6207      6205      6213
      6211      6205      6212      6211      6205      6213      6212      6205      6213
      6205      6207      6209      6205      6207      6210      6209      6207      6210
      6218      6216      6222      6218      6216      6223      6218      6216      6224
      6222      6216      6223      6222      6216      6224      6223      6216      6224
      6216      6218      6220      6216      6218      6221      6220      6218      6221
      6229      6227      6233      6229      6227      6234      6229      6227      6235
      6233      6227      6234      6233      6227      6235      6234      6227      6235
      6227      6229      6231      6227      6229      6232      6231      6229      6232
      6240      6238      6244      6240      6238      6245      6240      6238      6246
      6244      6238      6245      6244      6238      6246      6245      6238      6246
      6238      6240      6242      6238      6240      6243      6242      6240      6243
      6251      6249      6255      6251      6249      6256      6251      6249      6257
      6255      6249      6256      6255      6249      6257      6256      6249      6257
      6249      6251      6253      6249      6251      6254      6253      6251      6254
      6262      6260      6266      6262      6260      6267      6262      6260      6268
      6266      6260      6267      6266      6260      6268      6267      6260      6268
      6260      6262      6264      6260      6262      6265      6264      6262      6265
      6273      6271      6277      6273      6271      6278      6273      6271      6279
      6277      6271      6278      6277      6271      6279      6278      6271      6279
      6271      6273      6275      6271      6273      6276      6275      6273      6276
      6284      6282      6288      6284      6282      6289      6284      6282      6290
      6288      6282      6289      6288      6282      6290      6289      6282      6290
      6282      6284      6286      6282      6284      6287      6286      6284      6287
      6295      6293      6299      6295      6293      6300      6295      6293      6301
      6299      6293      6300      6299      6293      6301      6300      6293      6301
      6293      6295      6297      6293      6295      6298      6297      6295      6298
      6306      6304      6310      6306      6304      6311      6306      6304      6312
      6310      6304      6311      6310      6304      6312      6311      6304      6312
      6304      6306      6308      6304      6306      6309      6308      6306      6309
      6317      6315      6321      6317      6315      6322      6317      6315      6323
      6321      6315      6322      6321      6315      6323      6322      6315      6323
      6315      6317      6319      6315      6317      6320      6319      6317      6320
      6328      6326      6332      6328      6326      6333      6328      6326      6334
      6332      6326      6333      6332      6326      6334      6333      6326      6334
      6326      6328      6330      6326      6328      6331      6330      6328      6331
      6339      6337      6343      6339      6337      6344      6339      6337      6345
      6343      6337      6344      6343      6337      6345      6344      6337      6345
      6337      6339      6341      6337      6339      6342      6341      6339      6342
      6350      6348      6354      6350      6348      6355      6350      6348      6356
      6354      6348      6355      6354      6348      6356      6355      6348      6356
      6348      6350      6352      6348      6350      6353      6352      6350      6353
      6361      6359      6365      6361      6359      6366      6361      6359      6367
      6365      6359      6366      6365      6359      6367      6366      6359      6367
      6359      6361      6363      6359      6361      6364      6363      6361      6364
      6372      6370      6376      6372      6370      6377      6372      6370      6378
      6376      6370      6377      6376      6370      6378      6377      6370      6378
      6370      6372      6374      6370      6372      6375      6374      6372      6375
      6383      6381      6387      6383      6381      6388      6383      6381      6389
      6387      6381      6388      6387      6381      6389      6388      6381      6389
      6381      6383      6385      6381      6383      6386      6385      6383      6386
      6394      6392      6398      6394      6392      6399      6394      6392      6400
      6398      6392      6399      6398      6392      6400      6399      6392      6400
      6392      6394      6396      6392      6394      6397      6396      6394      6397
      6405      6403      6409      6405      6403      6410      6405      6403      6411
      6409      6403      6410      6409      6403      6411      6410      6403      6411
      6403      6405      6407      6403      6405      6408      6407      6405      6408
      6416      6414      6420      6416      6414      6421      6416      6414      6422
      6420      6414      6421      6420      6414      6422      6421      6414      6422
      6414      6416      6418      6414      6416      6419      6418      6416      6419
      6427      6425      6431      6427      6425      6432      6427      6425      6433
      6431      6425      6432      6431      6425      6433      6432      6425      6433
      6425      6427      6429      6425      6427      6430      6429      6427      6430
      6438      6436      6442      6438      6436      6443      6438      6436      6444
      6442      6436      6443      6442      6436      6444      6443      6436      6444
      6436      6438      6440      6436      6438      6441      6440      6438      6441
      6449      6447      6453      6449      6447      6454      6449      6447      6455
      6453      6447      6454      6453      6447      6455      6454      6447      6455
      6447      6449      6451      6447      6449      6452      6451      6449      6452
      6460      6458      6464      6460      6458      6465      6460      6458      6466
      6464      6458      6465      6464      6458      6466      6465      6458      6466
      6458      6460      6462      6458      6460      6463      6462      6460      6463
      6471      6469      6475      6471      6469      6476      6471      6469      6477
      6475      6469      6476      6475      6469      6477      6476      6469      6477
      6469      6471      6473      6469      6471      6474      6473      6471      6474
      6482      6480      6486      6482      6480      6487      6482      6480      6488
      6486      6480      6487      6486      6480      6488      6487      6480      6488
      6480      6482      6484      6480      6482      6485      6484      6482      6485
      6493      6491      6497      6493      6491      6498      6493      6491      6499
      6497      6491      6498      6497      6491      6499      6498      6491      6499
      6491      6493      6495      6491      6493      6496      6495      6493      6496
      6504      6502      6508      6504      6502      6509      6504      6502      6510
      6508      6502      6509      6508      6502      6510      6509      6502      6510
      6502      6504      6506      6502      6504      6507      6506      6504      6507
      6515      6513      6519      6515      6513      6520      6515      6513      6521
      6519      6513      6520      6519      6513      6521      6520      6513      6521
      6513      6515      6517      6513      6515      6518      6517      6515      6518
      6526      6524      6530      6526      6524      6531      6526      6524      6532
      6530      6524      6531      6530      6524      6532      6531      6524      6532
      6524      6526      6528      6524      6526      6529      6528      6526      6529
      6537      6535      6541      6537      6535      6542      6537      6535      6543
      6541      6535      6542      6541      6535      6543      6542      6535      6543
      6535      6537      6539      6535      6537      6540      6539      6537      6540
      6548      6546      6552      6548      6546      6553      6548      6546      6554
      6552      6546      6553      6552      6546      6554      6553      6546      6554
      6546      6548      6550      6546      6548      6551      6550      6548      6551
      6559      6557      6563      6559      6557      6564      6559      6557      6565
      6563      6557      6564      6563      6557      6565      6564      6557      6565
      6557      6559      6561      6557      6559      6562      6561      6559      6562
      6570      6568      6574      6570      6568      6575      6570      6568      6576
      6574      6568      6575      6574      6568      6576      6575      6568      6576
      6568      6570      6572      6568      6570      6573      6572      6570      6573
      6581      6579      6585      6581      6579      6586      6581      6579      6587
      6585      6579      6586      6585      6579      6587      6586      6579      6587
      6579      6581      6583      6579      6581      6584      6583      6581      6584
      6592      6590      6596      6592      6590      6597      6592      6590      6598
      6596      6590      6597      6596      6590      6598      6597      6590      6598
      6590      6592      6594      6590      6592      6595      6594      6592      6595
      6603      6601      6607      6603      6601      6608      6603      6601      6609
      6607      6601      6608      6607      6601      6609      6608      6601      6609
      6601      6603      6605      6601      6603      6606      6605      6603      6606
      6614      6612      6618      6614      6612      6619      6614      6612      6620
      6618      6612      6619      6618      6612      6620      6619      6612      6620
      6612      6614      6616      6612      6614      6617      6616      6614      6617
      6625      6623      6629      6625      6623      6630      6625      6623      6631
      6629      6623      6630      6629      6623      6631      6630      6623      6631
      6623      6625      6627      6623      6625      6628      6627      6625      6628
      6636      6634      6640      6636      6634      6641      6636      6634      6642
      6640      6634      6641      6640      6634      6642      6641      6634      6642
      6634      6636      6638      6634      6636      6639      6638      6636      6639
      6647      6645      6651      6647      6645      6652      6647      6645      6653
      6651      6645      6652      6651      6645      6653      6652      6645      6653
      6645      6647      6649      6645      6647      6650      6649      6647      6650
      6658      6656      6662      6658      6656      6663      6658      6656      6664
      6662      6656      6663      6662      6656      6664      6663      6656      6664
      6656      6658      6660      6656      6658      6661      6660      6658      6661
      6669      6667      6673      6669      6667      6674      6669      6667      6675
      6673      6667      6674      6673      6667      6675      6674      6667      6675
      6667      6669      6671      6667      6669      6672      6671      6669      6672
      6680      6678      6684      6680      6678      6685      6680      6678      6686
      6684      6678      6685      6684      6678      6686      6685      6678      6686
      6678      6680      6682      6678      6680      6683      6682      6680      6683
      6691      6689      6695      6691      6689      6696      6691      6689      6697
      6695      6689      6696      6695      6689      6697      6696      6689      6697
      6689      6691      6693      6689      6691      6694      6693      6691      6694
      6702      6700      6706      6702      6700      6707      6702      6700      6708
      6706      6700      6707      6706      6700      6708      6707      6700      6708
      6700      6702      6704      6700      6702      6705      6704      6702      6705
      6713      6711      6717      6713      6711      6718      6713      6711      6719
      6717      6711      6718      6717      6711      6719      6718      6711      6719
      6711      6713      6715      6711      6713      6716      6715      6713      6716
      6724      6722      6728      6724      6722      6729      6724      6722      6730
      6728      6722      6729      6728      6722      6730      6729      6722      6730
      6722      6724      6726      6722      6724      6727      6726      6724      6727
      6735      6733      6739      6735      6733      6740      6735      6733      6741
      6739      6733      6740      6739      6733      6741      6740      6733      6741
      6733      6735      6737      6733      6735      6738      6737      6735      6738
      6746      6744      6750      6746      6744      6751      6746      6744      6752
      6750      6744      6751      6750      6744      6752      6751      6744      6752
      6744      6746      6748      6744      6746      6749      6748      6746      6749
      6757      6755      6761      6757      6755      6762      6757      6755      6763
      6761      6755      6762      6761      6755      6763      6762      6755      6763
      6755      6757      6759      6755      6757      6760      6759      6757      6760
      6768      6766      6772      6768      6766      6773      6768      6766      6774
      6772      6766      6773      6772      6766      6774      6773      6766      6774
      6766      6768      6770      6766      6768      6771      6770      6768      6771
      6779      6777      6783      6779      6777      6784      6779      6777      6785
      6783      6777      6784      6783      6777      6785      6784      6777      6785
      6777      6779      6781      6777      6779      6782      6781      6779      6782
      6790      6788      6794      6790      6788      6795      6790      6788      6796
      6794      6788      6795      6794      6788      6796      6795      6788      6796
      6788      6790      6792      6788      6790      6793      6792      6790      6793
      6801      6799      6805      6801      6799      6806      6801      6799      6807
      6805      6799      6806      6805      6799      6807      6806      6799      6807
      6799      6801      6803      6799      6801      6804      6803      6801      6804
      6812      6810      6816      6812      6810      6817      6812      6810      6818
      6816      6810      6817      6816      6810      6818      6817      6810      6818
      6810      6812      6814      6810      6812      6815      6814      6812      6815
      6823      6821      6827      6823      6821      6828      6823      6821      6829
      6827      6821      6828      6827      6821      6829      6828      6821      6829
      6821      6823      6825      6821      6823      6826      6825      6823      6826
      6834      6832      6838      6834      6832      6839      6834      6832      6840
      6838      6832      6839      6838      6832      6840      6839      6832      6840
      6832      6834      6836      6832      6834      6837      6836      6834      6837
      6845      6843      6849      6845      6843      6850      6845      6843      6851
      6849      6843      6850      6849      6843      6851      6850      6843      6851
      6843      6845      6847      6843      6845      6848      6847      6845      6848
      6856      6854      6860      6856      6854      6861      6856      6854      6862
      6860      6854      6861      6860      6854      6862      6861      6854      6862
      6854      6856      6858      6854      6856      6859      6858      6856      6859
      6867      6865      6871      6867      6865      6872      6867      6865      6873
      6871      6865      6872      6871      6865      6873      6872      6865      6873
      6865      6867      6869      6865      6867      6870      6869      6867      6870
      6878      6876      6882      6878      6876      6883      6878      6876      6884
      6882      6876      6883      6882      6876      6884      6883      6876      6884
      6876      6878      6880      6876      6878      6881      6880      6878      6881
      6889      6887      6893      6889      6887      6894      6889      6887      6895
      6893      6887      6894      6893      6887      6895      6894      6887      6895
      6887      6889      6891      6887      6889      6892      6891      6889      6892
      6900      6898      6904      6900      6898      6905      6900      6898      6906
      6904      6898      6905      6904      6898      6906      6905      6898      6906
      6898      6900      6902      6898      6900      6903      6902      6900      6903
      6911      6909      6915      6911      6909      6916      6911      6909      6917
      6915      6909      6916      6915      6909      6917      6916      6909      6917
      6909      6911      6913      6909      6911      6914      6913      6911      6914
      6922      6920      6926      6922      6920      6927      6922      6920      6928
      6926      6920      6927      6926      6920      6928      6927      6920      6928
      6920      6922      6924      6920      6922      6925      6924      6922      6925
      6933      6931      6937      6933      6931      6938      6933      6931      6939
      6937      6931      6938      6937      6931      6939      6938      6931      6939
      6931      6933      6935      6931      6933      6936      6935      6933      6936
      6944      6942      6948      6944      6942      6949      6944      6942      6950
      6948      6942      6949      6948      6942      6950      6949      6942      6950
      6942      6944      6946      6942      6944      6947      6946      6944      6947
      6955      6953      6959      6955      6953      6960      6955      6953      6961
      6959      6953      6960      6959      6953      6961      6960      6953      6961
      6953      6955      6957      6953      6955      6958      6957      6955      6958
      6966      6964      6970      6966      6964      6971      6966      6964      6972
      6970      6964      6971      6970      6964      6972      6971      6964      6972
      6964      6966      6968      6964      6966      6969      6968      6966      6969
      6977      6975      6981      6977      6975      6982      6977      6975      6983
      6981      6975      6982      6981      6975      6983      6982      6975      6983
      6975      6977      6979      6975      6977      6980      6979      6977      6980
      6988      6986      6992      6988      6986      6993      6988      6986      6994
      6992      6986      6993      6992      6986      6994      6993      6986      6994
      6986      6988      6990      6986      6988      6991      6990      6988      6991
      6999      6997      7003      6999      6997      7004      6999      6997      7005
      7003      6997      7004      7003      6997      7005      7004      6997      7005
      6997      6999      7001      6997      6999      7002      7001      6999      7002
      7010      7008      7014      7010      7008      7015      7010      7008      7016
      7014      7008      7015      7014      7008      7016      7015      7008      7016
      7008      7010      7012      7008      7010      7013      7012      7010      7013
      7021      7019      7025      7021      7019      7026      7021      7019      7027
      7025      7019      7026      7025      7019      7027      7026      7019      7027
      7019      7021      7023      7019      7021      7024      7023      7021      7024
      7032      7030      7036      7032      7030      7037      7032      7030      7038
      7036      7030      7037      7036      7030      7038      7037      7030      7038
      7030      7032      7034      7030      7032      7035      7034      7032      7035
      7043      7041      7047      7043      7041      7048      7043      7041      7049
      7047      7041      7048      7047      7041      7049      7048      7041      7049
      7041      7043      7045      7041      7043      7046      7045      7043      7046
      7054      7052      7058      7054      7052      7059      7054      7052      7060
      7058      7052      7059      7058      7052      7060      7059      7052      7060
      7052      7054      7056      7052      7054      7057      7056      7054      7057
      7065      7063      7069      7065      7063      7070      7065      7063      7071
      7069      7063      7070      7069      7063      7071      7070      7063      7071
      7063      7065      7067      7063      7065      7068      7067      7065      7068
      7076      7074      7080      7076      7074      7081      7076      7074      7082
      7080      7074      7081      7080      7074      7082      7081      7074      7082
      7074      7076      7078      7074      7076      7079      7078      7076      7079
      7087      7085      7091      7087      7085      7092      7087      7085      7093
      7091      7085      7092      7091      7085      7093      7092      7085      7093
      7085      7087      7089      7085      7087      7090      7089      7087      7090
      7098      7096      7102      7098      7096      7103      7098      7096      7104
      7102      7096      7103      7102      7096      7104      7103      7096      7104
      7096      7098      7100      7096      7098      7101      7100      7098      7101
      7109      7107      7113      7109      7107      7114      7109      7107      7115
      7113      7107      7114      7113      7107      7115      7114      7107      7115
      7107      7109      7111      7107      7109      7112      7111      7109      7112
      7120      7118      7124      7120      7118      7125      7120      7118      7126
      7124      7118      7125      7124      7118      7126      7125      7118      7126
      7118      7120      7122      7118      7120      7123      7122      7120      7123
      7131      7129      7135      7131      7129      7136      7131      7129      7137
      7135      7129      7136      7135      7129      7137      7136      7129      7137
      7129      7131      7133      7129      7131      7134      7133      7131      7134
      7142      7140      7146      7142      7140      7147      7142      7140      7148
      7146      7140      7147      7146      7140      7148      7147      7140      7148
      7140      7142      7144      7140      7142      7145      7144      7142      7145
      7153      7151      7157      7153      7151      7158      7153      7151      7159
      7157      7151      7158      7157      7151      7159      7158      7151      7159
      7151      7153      7155      7151      7153      7156      7155      7153      7156
      7164      7162      7168      7164      7162      7169      7164      7162      7170
      7168      7162      7169      7168      7162      7170      7169      7162      7170
      7162      7164      7166      7162      7164      7167      7166      7164      7167
      7175      7173      7179      7175      7173      7180      7175      7173      7181
      7179      7173      7180      7179      7173      7181      7180      7173      7181
      7173      7175      7177      7173      7175      7178      7177      7175      7178
      7186      7184      7190      7186      7184      7191      7186      7184      7192
      7190      7184      7191      7190      7184      7192      7191      7184      7192
      7184      7186      7188      7184      7186      7189      7188      7186      7189
      7197      7195      7201      7197      7195      7202      7197      7195      7203
      7201      7195      7202      7201      7195      7203      7202      7195      7203
      7195      7197      7199      7195      7197      7200      7199      7197      7200
      7208      7206      7212      7208      7206      7213      7208      7206      7214
      7212      7206      7213      7212      7206      7214      7213      7206      7214
      7206      7208      7210      7206      7208      7211      7210      7208      7211
      7219      7217      7223      7219      7217      7224      7219      7217      7225
      7223      7217      7224      7223      7217      7225      7224      7217      7225
      7217      7219      7221      7217      7219      7222      7221      7219      7222
      7230      7228      7234      7230      7228      7235      7230      7228      7236
      7234      7228      7235      7234      7228      7236      7235      7228      7236
      7228      7230      7232      7228      7230      7233      7232      7230      7233
      7241      7239      7245      7241      7239      7246      7241      7239      7247
      7245      7239      7246      7245      7239      7247      7246      7239      7247
      7239      7241      7243      7239      7241      7244      7243      7241      7244
      7252      7250      7256      7252      7250      7257      7252      7250      7258
      7256      7250      7257      7256      7250      7258      7257      7250      7258
      7250      7252      7254      7250      7252      7255      7254      7252      7255
      7263      7261      7267      7263      7261      7268      7263      7261      7269
      7267      7261      7268      7267      7261      7269      7268      7261      7269
      7261      7263      7265      7261      7263      7266      7265      7263      7266
      7274      7272      7278      7274      7272      7279      7274      7272      7280
      7278      7272      7279      7278      7272      7280      7279      7272      7280
      7272      7274      7276      7272      7274      7277      7276      7274      7277
      7285      7283      7289      7285      7283      7290      7285      7283      7291
      7289      7283      7290      7289      7283      7291      7290      7283      7291
      7283      7285      7287      7283      7285      7288      7287      7285      7288
      7296      7294      7300      7296      7294      7301      7296      7294      7302
      7300      7294      7301      7300      7294      7302      7301      7294      7302
      7294      7296      7298      7294      7296      7299      7298      7296      7299
      7307      7305      7311      7307      7305      7312      7307      7305      7313
      7311      7305      7312      7311      7305      7313      7312      7305      7313
      7305      7307      7309      7305      7307      7310      7309      7307      7310
      7318      7316      7322      7318      7316      7323      7318      7316      7324
      7322      7316      7323      7322      7316      7324      7323      7316      7324
      7316      7318      7320      7316      7318      7321      7320      7318      7321
      7329      7327      7333      7329      7327      7334      7329      7327      7335
      7333      7327      7334      7333      7327      7335      7334      7327      7335
      7327      7329      7331      7327      7329      7332      7331      7329      7332
      7340      7338      7344      7340      7338      7345      7340      7338      7346
      7344      7338      7345      7344      7338      7346      7345      7338      7346
      7338      7340      7342      7338      7340      7343      7342      7340      7343
      7351      7349      7355      7351      7349      7356      7351      7349      7357
      7355      7349      7356      7355      7349      7357      7356      7349      7357
      7349      7351      7353      7349      7351      7354      7353      7351      7354
      7362      7360      7366      7362      7360      7367      7362      7360      7368
      7366      7360      7367      7366      7360      7368      7367      7360      7368
      7360      7362      7364      7360      7362      7365      7364      7362      7365
      7373      7371      7377      7373      7371      7378      7373      7371      7379
      7377      7371      7378      7377      7371      7379      7378      7371      7379
      7371      7373      7375      7371      7373      7376      7375      7373      7376
      7384      7382      7388      7384      7382      7389      7384      7382      7390
      7388      7382      7389      7388      7382      7390      7389      7382      7390
      7382      7384      7386      7382      7384      7387      7386      7384      7387
      7395      7393      7399      7395      7393      7400      7395      7393      7401
      7399      7393      7400      7399      7393      7401      7400      7393      7401
      7393      7395      7397      7393      7395      7398      7397      7395      7398
      7406      7404      7410      7406      7404      7411      7406      7404      7412
      7410      7404      7411      7410      7404      7412      7411      7404      7412
      7404      7406      7408      7404      7406      7409      7408      7406      7409
      7417      7415      7421      7417      7415      7422      7417      7415      7423
      7421      7415      7422      7421      7415      7423      7422      7415      7423
      7415      7417      7419      7415      7417      7420      7419      7417      7420
      7428      7426      7432      7428      7426      7433      7428      7426      7434
      7432      7426      7433      7432      7426      7434      7433      7426      7434
      7426      7428      7430      7426      7428      7431      7430      7428      7431
      7439      7437      7443      7439      7437      7444      7439      7437      7445
      7443      7437      7444      7443      7437      7445      7444      7437      7445
      7437      7439      7441      7437      7439      7442      7441      7439      7442
      7450      7448      7454      7450      7448      7455      7450      7448      7456
      7454      7448      7455      7454      7448      7456      7455      7448      7456
      7448      7450      7452      7448      7450      7453      7452      7450      7453
      7461      7459      7465      7461      7459      7466      7461      7459      7467
      7465      7459      7466      7465      7459      7467      7466      7459      7467
      7459      7461      7463      7459      7461      7464      7463      7461      7464
      7472      7470      7476      7472      7470      7477      7472      7470      7478
      7476      7470      7477      7476      7470      7478      7477      7470      7478
      7470      7472      7474      7470      7472      7475      7474      7472      7475
      7483      7481      7487      7483      7481      7488      7483      7481      7489
      7487      7481      7488      7487      7481      7489      7488      7481      7489
      7481      7483      7485      7481      7483      7486      7485      7483      7486
      7494      7492      7498      7494      7492      7499      7494      7492      7500
      7498      7492      7499      7498      7492      7500      7499      7492      7500
      7492      7494      7496      7492      7494      7497      7496      7494      7497
      7505      7503      7509      7505      7503      7510      7505      7503      7511
      7509      7503      7510      7509      7503      7511      7510      7503      7511
      7503      7505      7507      7503      7505      7508      7507      7505      7508
      7516      7514      7520      7516      7514      7521      7516      7514      7522
      7520      7514      7521      7520      7514      7522      7521      7514      7522
      7514      7516      7518      7514      7516      7519      7518      7516      7519
      7527      7525      7531      7527      7525      7532      7527      7525      7533
      7531      7525      7532      7531      7525      7533      7532      7525      7533
      7525      7527      7529      7525      7527      7530      7529      7527      7530
      7538      7536      7542      7538      7536      7543      7538      7536      7544
      7542      7536      7543      7542      7536      7544      7543      7536      7544
      7536      7538      7540      7536      7538      7541      7540      7538      7541
      7549      7547      7553      7549      7547      7554      7549      7547      7555
      7553      7547      7554      7553      7547      7555      7554      7547      7555
      7547      7549      7551      7547      7549      7552      7551      7549      7552
      7560      7558      7564      7560      7558      7565      7560      7558      7566
      7564      7558      7565      7564      7558      7566      7565      7558      7566
      7558      7560      7562      7558      7560      7563      7562      7560      7563
      7571      7569      7575      7571      7569      7576      7571      7569      7577
      7575      7569      7576      7575      7569      7577      7576      7569      7577
      7569      7571      7573      7569      7571      7574      7573      7571      7574
      7582      7580      7586      7582      7580      7587      7582      7580      7588
      7586      7580      7587      7586      7580      7588      7587      7580      7588
      7580      7582      7584      7580      7582      7585      7584      7582      7585
      7593      7591      7597      7593      7591      7598      7593      7591      7599
      7597      7591      7598      7597      7591      7599      7598      7591      7599
      7591      7593      7595      7591      7593      7596      7595      7593      7596
      7604      7602      7608      7604      7602      7609      7604      7602      7610
      7608      7602      7609      7608      7602      7610      7609      7602      7610
      7602      7604      7606      7602      7604      7607      7606      7604      7607
      7615      7613      7619      7615      7613      7620      7615      7613      7621
      7619      7613      7620      7619      7613      7621      7620      7613      7621
      7613      7615      7617      7613      7615      7618      7617      7615      7618
      7626      7624      7630      7626      7624      7631      7626      7624      7632
      7630      7624      7631      7630      7624      7632      7631      7624      7632
      7624      7626      7628      7624      7626      7629      7628      7626      7629
      7637      7635      7641      7637      7635      7642      7637      7635      7643
      7641      7635      7642      7641      7635      7643      7642      7635      7643
      7635      7637      7639      7635      7637      7640      7639      7637      7640
      7648      7646      7652      7648      7646      7653      7648      7646      7654
      7652      7646      7653      7652      7646      7654      7653      7646      7654
      7646      7648      7650      7646      7648      7651      7650      7648      7651
      7659      7657      7663      7659      7657      7664      7659      7657      7665
      7663      7657      7664      7663      7657      7665      7664      7657      7665
      7657      7659      7661      7657      7659      7662      7661      7659      7662
      7670      7668      7674      7670      7668      7675      7670      7668      7676
      7674      7668      7675      7674      7668      7676      7675      7668      7676
      7668      7670      7672      7668      7670      7673      7672      7670      7673
      7681      7679      7685      7681      7679      7686      7681      7679      7687
      7685      7679      7686      7685      7679      7687      7686      7679      7687
      7679      7681      7683      7679      7681      7684      7683      7681      7684
      7692      7690      7696      7692      7690      7697      7692      7690      7698
      7696      7690      7697      7696      7690      7698      7697      7690      7698
      7690      7692      7694      7690      7692      7695      7694      7692      7695
      7703      7701      7707      7703      7701      7708      7703      7701      7709
      7707      7701      7708      7707      7701      7709      7708      7701      7709
      7701      7703      7705      7701      7703      7706      7705      7703      7706
      7714      7712      7718      7714      7712      7719      7714      7712      7720
      7718      7712      7719      7718      7712      7720      7719      7712      7720
      7712      7714      7716      7712      7714      7717      7716      7714      7717
      7725      7723      7729      7725      7723      7730      7725      7723      7731
      7729      7723      7730      7729      7723      7731      7730      7723      7731
      7723      7725      7727      7723      7725      7728      7727      7725      7728
      7736      7734      7740      7736      7734      7741      7736      7734      7742
      7740      7734      7741      7740      7734      7742      7741      7734      7742
      7734      7736      7738      7734      7736      7739      7738      7736      7739
      7747      7745      7751      7747      7745      7752      7747      7745      7753
      7751      7745      7752      7751      7745      7753      7752      7745      7753
      7745      7747      7749      7745      7747      7750      7749      7747      7750
      7758      7756      7762      7758      7756      7763      7758      7756      7764
      7762      7756      7763      7762      7756      7764      7763      7756      7764
      7756      7758      7760      7756      7758      7761      7760      7758      7761
      7769      7767      7773      7769      7767      7774      7769      7767      7775
      7773      7767      7774      7773      7767      7775      7774      7767      7775
      7767      7769      7771      7767      7769      7772      7771      7769      7772
      7780      7778      7784      7780      7778      7785      7780      7778      7786
      7784      7778      7785      7784      7778      7786      7785      7778      7786
      7778      7780      7782      7778      7780      7783      7782      7780      7783
      7791      7789      7795      7791      7789      7796      7791      7789      7797
      7795      7789      7796      7795      7789      7797      7796      7789      7797
      7789      7791      7793      7789      7791      7794      7793      7791      7794
      7802      7800      7806      7802      7800      7807      7802      7800      7808
      7806      7800      7807      7806      7800      7808      7807      7800      7808
      7800      7802      7804      7800      7802      7805      7804      7802      7805
      7813      7811      7817      7813      7811      7818      7813      7811      7819
      7817      7811      7818      7817      7811      7819      7818      7811      7819
      7811      7813      7815      7811      7813      7816      7815      7813      7816
      7824      7822      7828      7824      7822      7829      7824      7822      7830
      7828      7822      7829      7828      7822      7830      7829      7822      7830
      7822      7824      7826      7822      7824      7827      7826      7824      7827
      7835      7833      7839      7835      7833      7840      7835      7833      7841
      7839      7833      7840      7839      7833      7841      7840      7833      7841
      7833      7835      7837      7833      7835      7838      7837      7835      7838
      7846      7844      7850      7846      7844      7851      7846      7844      7852
      7850      7844      7851      7850      7844      7852      7851      7844      7852
      7844      7846      7848      7844      7846      7849      7848      7846      7849
      7857      7855      7861      7857      7855      7862      7857      7855      7863
      7861      7855      7862      7861      7855      7863      7862      7855      7863
      7855      7857      7859      7855      7857      7860      7859      7857      7860
      7868      7866      7872      7868      7866      7873      7868      7866      7874
      7872      7866      7873      7872      7866      7874      7873      7866      7874
      7866      7868      7870      7866      7868      7871      7870      7868      7871
      7879      7877      7883      7879      7877      7884      7879      7877      7885
      7883      7877      7884      7883      7877      7885      7884      7877      7885
      7877      7879      7881      7877      7879      7882      7881      7879      7882
      7890      7888      7894      7890      7888      7895      7890      7888      7896
      7894      7888      7895      7894      7888      7896      7895      7888      7896
      7888      7890      7892      7888      7890      7893      7892      7890      7893
      7901      7899      7905      7901      7899      7906      7901      7899      7907
      7905      7899      7906      7905      7899      7907      7906      7899      7907
      7899      7901      7903      7899      7901      7904      7903      7901      7904
      7912      7910      7916      7912      7910      7917      7912      7910      7918
      7916      7910      7917      7916      7910      7918      7917      7910      7918
      7910      7912      7914      7910      7912      7915      7914      7912      7915
      7923      7921      7927      7923      7921      7928      7923      7921      7929
      7927      7921      7928      7927      7921      7929      7928      7921      7929
      7921      7923      7925      7921      7923      7926      7925      7923      7926
      7934      7932      7938      7934      7932      7939      7934      7932      7940
      7938      7932      7939      7938      7932      7940      7939      7932      7940
      7932      7934      7936      7932      7934      7937      7936      7934      7937
      7945      7943      7949      7945      7943      7950      7945      7943      7951
      7949      7943      7950      7949      7943      7951      7950      7943      7951
      7943      7945      7947      7943      7945      7948      7947      7945      7948
      7956      7954      7960      7956      7954      7961      7956      7954      7962
      7960      7954      7961      7960      7954      7962      7961      7954      7962
      7954      7956      7958      7954      7956      7959      7958      7956      7959
      7967      7965      7971      7967      7965      7972      7967      7965      7973
      7971      7965      7972      7971      7965      7973      7972      7965      7973
      7965      7967      7969      7965      7967      7970      7969      7967      7970
      7978      7976      7982      7978      7976      7983      7978      7976      7984
      7982      7976      7983      7982      7976      7984      7983      7976      7984
      7976      7978      7980      7976      7978      7981      7980      7978      7981
      7989      7987      7993      7989      7987      7994      7989      7987      7995
      7993      7987      7994      7993      7987      7995      7994      7987      7995
      7987      7989      7991      7987      7989      7992      7991      7989      7992
      8000      7998      8004      8000      7998      8005      8000      7998      8006
      8004      7998      8005      8004      7998      8006      8005      7998      8006
      7998      8000      8002      7998      8000      8003      8002      8000      8003
      8011      8009      8015      8011      8009      8016      8011      8009      8017
      8015      8009      8016      8015      8009      8017      8016      8009      8017
      8009      8011      8013      8009      8011      8014      8013      8011      8014
      8022      8020      8026      8022      8020      8027      8022      8020      8028
      8026      8020      8027      8026      8020      8028      8027      8020      8028
      8020      8022      8024      8020      8022      8025      8024      8022      8025
      8033      8031      8037      8033      8031      8038      8033      8031      8039
      8037      8031      8038      8037      8031      8039      8038      8031      8039
      8031      8033      8035      8031      8033      8036      8035      8033      8036
      8044      8042      8048      8044      8042      8049      8044      8042      8050
      8048      8042      8049      8048      8042      8050      8049      8042      8050
      8042      8044      8046      8042      8044      8047      8046      8044      8047
      8055      8053      8059      8055      8053      8060      8055      8053      8061
      8059      8053      8060      8059      8053      8061      8060      8053      8061
      8053      8055      8057      8053      8055      8058      8057      8055      8058
      8066      8064      8070      8066      8064      8071      8066      8064      8072
      8070      8064      8071      8070      8064      8072      8071      8064      8072
      8064      8066      8068      8064      8066      8069      8068      8066      8069
      8077      8075      8081      8077      8075      8082      8077      8075      8083
      8081      8075      8082      8081      8075      8083      8082      8075      8083
      8075      8077      8079      8075      8077      8080      8079      8077      8080
      8088      8086      8092      8088      8086      8093      8088      8086      8094
      8092      8086      8093      8092      8086      8094      8093      8086      8094
      8086      8088      8090      8086      8088      8091      8090      8088      8091
      8099      8097      8103      8099      8097      8104      8099      8097      8105
      8103      8097      8104      8103      8097      8105      8104      8097      8105
      8097      8099      8101      8097      8099      8102      8101      8099      8102
      8110      8108      8114      8110      8108      8115      8110      8108      8116
      8114      8108      8115      8114      8108      8116      8115      8108      8116
      8108      8110      8112      8108      8110      8113      8112      8110      8113
      8121      8119      8125      8121      8119      8126      8121      8119      8127
      8125      8119      8126      8125      8119      8127      8126      8119      8127
      8119      8121      8123      8119      8121      8124      8123      8121      8124
      8132      8130      8136      8132      8130      8137      8132      8130      8138
      8136      8130      8137      8136      8130      8138      8137      8130      8138
      8130      8132      8134      8130      8132      8135      8134      8132      8135
      8143      8141      8147      8143      8141      8148      8143      8141      8149
      8147      8141      8148      8147      8141      8149      8148      8141      8149
      8141      8143      8145      8141      8143      8146      8145      8143      8146
      8154      8152      8158      8154      8152      8159      8154      8152      8160
      8158      8152      8159      8158      8152      8160      8159      8152      8160
      8152      8154      8156      8152      8154      8157      8156      8154      8157
      8165      8163      8169      8165      8163      8170      8165      8163      8171
      8169      8163      8170      8169      8163      8171      8170      8163      8171
      8163      8165      8167      8163      8165      8168      8167      8165      8168
      8176      8174      8180      8176      8174      8181      8176      8174      8182
      8180      8174      8181      8180      8174      8182      8181      8174      8182
      8174      8176      8178      8174      8176      8179      8178      8176      8179
      8187      8185      8191      8187      8185      8192      8187      8185      8193
      8191      8185      8192      8191      8185      8193      8192      8185      8193
      8185      8187      8189      8185      8187      8190      8189      8187      8190
      8198      8196      8202      8198      8196      8203      8198      8196      8204
      8202      8196      8203      8202      8196      8204      8203      8196      8204
      8196      8198      8200      8196      8198      8201      8200      8198      8201
      8209      8207      8213      8209      8207      8214      8209      8207      8215
      8213      8207      8214      8213      8207      8215      8214      8207      8215
      8207      8209      8211      8207      8209      8212      8211      8209      8212
      8220      8218      8224      8220      8218      8225      8220      8218      8226
      8224      8218      8225      8224      8218      8226      8225      8218      8226
      8218      8220      8222      8218      8220      8223      8222      8220      8223
      8231      8229      8235      8231      8229      8236      8231      8229      8237
      8235      8229      8236      8235      8229      8237      8236      8229      8237
      8229      8231      8233      8229      8231      8234      8233      8231      8234
      8242      8240      8246      8242      8240      8247      8242      8240      8248
      8246      8240      8247      8246      8240      8248      8247      8240      8248
      8240      8242      8244      8240      8242      8245      8244      8242      8245
      8253      8251      8257      8253      8251      8258      8253      8251      8259
      8257      8251      8258      8257      8251      8259      8258      8251      8259
      8251      8253      8255      8251      8253      8256      8255      8253      8256
      8264      8262      8268      8264      8262      8269      8264      8262      8270
      8268      8262      8269      8268      8262      8270      8269      8262      8270
      8262      8264      8266      8262      8264      8267      8266      8264      8267
      8275      8273      8279      8275      8273      8280      8275      8273      8281
      8279      8273      8280      8279      8273      8281      8280      8273      8281
      8273      8275      8277      8273      8275      8278      8277      8275      8278
      8286      8284      8290      8286      8284      8291      8286      8284      8292
      8290      8284      8291      8290      8284      8292      8291      8284      8292
      8284      8286      8288      8284      8286      8289      8288      8286      8289
      8297      8295      8301      8297      8295      8302      8297      8295      8303
      8301      8295      8302      8301      8295      8303      8302      8295      8303
      8295      8297      8299      8295      8297      8300      8299      8297      8300
      8308      8306      8312      8308      8306      8313      8308      8306      8314
      8312      8306      8313      8312      8306      8314      8313      8306      8314
      8306      8308      8310      8306      8308      8311      8310      8308      8311
      8319      8317      8323      8319      8317      8324      8319      8317      8325
      8323      8317      8324      8323      8317      8325      8324      8317      8325
      8317      8319      8321      8317      8319      8322      8321      8319      8322
      8330      8328      8334      8330      8328      8335      8330      8328      8336
      8334      8328      8335      8334      8328      8336      8335      8328      8336
      8328      8330      8332      8328      8330      8333      8332      8330      8333
      8341      8339      8345      8341      8339      8346      8341      8339      8347
      8345      8339      8346      8345      8339      8347      8346      8339      8347
      8339      8341      8343      8339      8341      8344      8343      8341      8344
      8352      8350      8356      8352      8350      8357      8352      8350      8358
      8356      8350      8357      8356      8350      8358      8357      8350      8358
      8350      8352      8354      8350      8352      8355      8354      8352      8355
      8363      8361      8367      8363      8361      8368      8363      8361      8369
      8367      8361      8368      8367      8361      8369      8368      8361      8369
      8361      8363      8365      8361      8363      8366      8365      8363      8366
      8374      8372      8378      8374      8372      8379      8374      8372      8380
      8378      8372      8379      8378      8372      8380      8379      8372      8380
      8372      8374      8376      8372      8374      8377      8376      8374      8377
      8385      8383      8389      8385      8383      8390      8385      8383      8391
      8389      8383      8390      8389      8383      8391      8390      8383      8391
      8383      8385      8387      8383      8385      8388      8387      8385      8388
      8396      8394      8400      8396      8394      8401      8396      8394      8402
      8400      8394      8401      8400      8394      8402      8401      8394      8402
      8394      8396      8398      8394      8396      8399      8398      8396      8399
      8407      8405      8411      8407      8405      8412      8407      8405      8413
      8411      8405      8412      8411      8405      8413      8412      8405      8413
      8405      8407      8409      8405      8407      8410      8409      8407      8410
      8418      8416      8422      8418      8416      8423      8418      8416      8424
      8422      8416      8423      8422      8416      8424      8423      8416      8424
      8416      8418      8420      8416      8418      8421      8420      8418      8421
      8429      8427      8433      8429      8427      8434      8429      8427      8435
      8433      8427      8434      8433      8427      8435      8434      8427      8435
      8427      8429      8431      8427      8429      8432      8431      8429      8432
      8440      8438      8444      8440      8438      8445      8440      8438      8446
      8444      8438      8445      8444      8438      8446      8445      8438      8446
      8438      8440      8442      8438      8440      8443      8442      8440      8443
      8451      8449      8455      8451      8449      8456      8451      8449      8457
      8455      8449      8456      8455      8449      8457      8456      8449      8457
      8449      8451      8453      8449      8451      8454      8453      8451      8454
      8462      8460      8466      8462      8460      8467      8462      8460      8468
      8466      8460      8467      8466      8460      8468      8467      8460      8468
      8460      8462      8464      8460      8462      8465      8464      8462      8465
      8473      8471      8477      8473      8471      8478      8473      8471      8479
      8477      8471      8478      8477      8471      8479      8478      8471      8479
      8471      8473      8475      8471      8473      8476      8475      8473      8476
      8484      8482      8488      8484      8482      8489      8484      8482      8490
      8488      8482      8489      8488      8482      8490      8489      8482      8490
      8482      8484      8486      8482      8484      8487      8486      8484      8487
      8495      8493      8499      8495      8493      8500      8495      8493      8501
      8499      8493      8500      8499      8493      8501      8500      8493      8501
      8493      8495      8497      8493      8495      8498      8497      8495      8498
      8506      8504      8510      8506      8504      8511      8506      8504      8512
      8510      8504      8511      8510      8504      8512      8511      8504      8512
      8504      8506      8508      8504      8506      8509      8508      8506      8509
      8517      8515      8521      8517      8515      8522      8517      8515      8523
      8521      8515      8522      8521      8515      8523      8522      8515      8523
      8515      8517      8519      8515      8517      8520      8519      8517      8520
      8528      8526      8532      8528      8526      8533      8528      8526      8534
      8532      8526      8533      8532      8526      8534      8533      8526      8534
      8526      8528      8530      8526      8528      8531      8530      8528      8531
      8539      8537      8543      8539      8537      8544      8539      8537      8545
      8543      8537      8544      8543      8537      8545      8544      8537      8545
      8537      8539      8541      8537      8539      8542      8541      8539      8542
      8550      8548      8554      8550      8548      8555      8550      8548      8556
      8554      8548      8555      8554      8548      8556      8555      8548      8556
      8548      8550      8552      8548      8550      8553      8552      8550      8553
      8561      8559      8565      8561      8559      8566      8561      8559      8567
      8565      8559      8566      8565      8559      8567      8566      8559      8567
      8559      8561      8563      8559      8561      8564      8563      8561      8564
      8572      8570      8576      8572      8570      8577      8572      8570      8578
      8576      8570      8577      8576      8570      8578      8577      8570      8578
      8570      8572      8574      8570      8572      8575      8574      8572      8575
      8583      8581      8587      8583      8581      8588      8583      8581      8589
      8587      8581      8588      8587      8581      8589      8588      8581      8589
      8581      8583      8585      8581      8583      8586      8585      8583      8586
      8594      8592      8598      8594      8592      8599      8594      8592      8600
      8598      8592      8599      8598      8592      8600      8599      8592      8600
      8592      8594      8596      8592      8594      8597      8596      8594      8597
      8605      8603      8609      8605      8603      8610      8605      8603      8611
      8609      8603      8610      8609      8603      8611      8610      8603      8611
      8603      8605      8607      8603      8605      8608      8607      8605      8608
      8616      8614      8620      8616      8614      8621      8616      8614      8622
      8620      8614      8621      8620      8614      8622      8621      8614      8622
      8614      8616      8618      8614      8616      8619      8618      8616      8619
      8627      8625      8631      8627      8625      8632      8627      8625      8633
      8631      8625      8632      8631      8625      8633      8632      8625      8633
      8625      8627      8629      8625      8627      8630      8629      8627      8630
      8638      8636      8642      8638      8636      8643      8638      8636      8644
      8642      8636      8643      8642      8636      8644      8643      8636      8644
      8636      8638      8640      8636      8638      8641      8640      8638      8641
      8649      8647      8653      8649      8647      8654      8649      8647      8655
      8653      8647      8654      8653      8647      8655      8654      8647      8655
      8647      8649      8651      8647      8649      8652      8651      8649      8652
      8660      8658      8664      8660      8658      8665      8660      8658      8666
      8664      8658      8665      8664      8658      8666      8665      8658      8666
      8658      8660      8662      8658      8660      8663      8662      8660      8663
      8671      8669      8675      8671      8669      8676      8671      8669      8677
      8675      8669      8676      8675      8669      8677      8676      8669      8677
      8669      8671      8673      8669      8671      8674      8673      8671      8674
      8682      8680      8686      8682      8680      8687      8682      8680      8688
      8686      8680      8687      8686      8680      8688      8687      8680      8688
      8680      8682      8684      8680      8682      8685      8684      8682      8685
      8693      8691      8697      8693      8691      8698      8693      8691      8699
      8697      8691      8698      8697      8691      8699      8698      8691      8699
      8691      8693      8695      8691      8693      8696      8695      8693      8696
      8704      8702      8708      8704      8702      8709      8704      8702      8710
      8708      8702      8709      8708      8702      8710      8709      8702      8710
      8702      8704      8706      8702      8704      8707      8706      8704      8707
      8715      8713      8719      8715      8713      8720      8715      8713      8721
      8719      8713      8720      8719      8713      8721      8720      8713      8721
      8713      8715      8717      8713      8715      8718      8717      8715      8718
      8726      8724      8730      8726      8724      8731      8726      8724      8732
      8730      8724      8731      8730      8724      8732      8731      8724      8732
      8724      8726      8728      8724      8726      8729      8728      8726      8729
      8737      8735      8741      8737      8735      8742      8737      8735      8743
      8741      8735      8742      8741      8735      8743      8742      8735      8743
      8735      8737      8739      8735      8737      8740      8739      8737      8740
      8748      8746      8752      8748      8746      8753      8748      8746      8754
      8752      8746      8753      8752      8746      8754      8753      8746      8754
      8746      8748      8750      8746      8748      8751      8750      8748      8751
      8759      8757      8763      8759      8757      8764      8759      8757      8765
      8763      8757      8764      8763      8757      8765      8764      8757      8765
      8757      8759      8761      8757      8759      8762      8761      8759      8762
      8770      8768      8774      8770      8768      8775      8770      8768      8776
      8774      8768      8775      8774      8768      8776      8775      8768      8776
      8768      8770      8772      8768      8770      8773      8772      8770      8773
      8781      8779      8785      8781      8779      8786      8781      8779      8787
      8785      8779      8786      8785      8779      8787      8786      8779      8787
      8779      8781      8783      8779      8781      8784      8783      8781      8784
      8792      8790      8796      8792      8790      8797      8792      8790      8798
      8796      8790      8797      8796      8790      8798      8797      8790      8798
      8790      8792      8794      8790      8792      8795      8794      8792      8795
      8803      8801      8807      8803      8801      8808      8803      8801      8809
      8807      8801      8808      8807      8801      8809      8808      8801      8809
      8801      8803      8805      8801      8803      8806      8805      8803      8806
      8814      8812      8818      8814      8812      8819      8814      8812      8820
      8818      8812      8819      8818      8812      8820      8819      8812      8820
      8812      8814      8816      8812      8814      8817      8816      8814      8817
      8825      8823      8829      8825      8823      8830      8825      8823      8831
      8829      8823      8830      8829      8823      8831      8830      8823      8831
      8823      8825      8827      8823      8825      8828      8827      8825      8828
      8836      8834      8840      8836      8834      8841      8836      8834      8842
      8840      8834      8841      8840      8834      8842      8841      8834      8842
      8834      8836      8838      8834      8836      8839      8838      8836      8839
      8847      8845      8851      8847      8845      8852      8847      8845      8853
      8851      8845      8852      8851      8845      8853      8852      8845      8853
      8845      8847      8849      8845      8847      8850      8849      8847      8850
      8858      8856      8862      8858      8856      8863      8858      8856      8864
      8862      8856      8863      8862      8856      8864      8863      8856      8864
      8856      8858      8860      8856      8858      8861      8860      8858      8861
      8869      8867      8873      8869      8867      8874      8869      8867      8875
      8873      8867      8874      8873      8867      8875      8874      8867      8875
      8867      8869      8871      8867      8869      8872      8871      8869      8872
      8880      8878      8884      8880      8878      8885      8880      8878      8886
      8884      8878      8885      8884      8878      8886      8885      8878      8886
      8878      8880      8882      8878      8880      8883      8882      8880      8883
      8891      8889      8895      8891      8889      8896      8891      8889      8897
      8895      8889      8896      8895      8889      8897      8896      8889      8897
      8889      8891      8893      8889      8891      8894      8893      8891      8894
      8902      8900      8906      8902      8900      8907      8902      8900      8908
      8906      8900      8907      8906      8900      8908      8907      8900      8908
      8900      8902      8904      8900      8902      8905      8904      8902      8905
      8913      8911      8917      8913      8911      8918      8913      8911      8919
      8917      8911      8918      8917      8911      8919      8918      8911      8919
      8911      8913      8915      8911      8913      8916      8915      8913      8916
      8924      8922      8928      8924      8922      8929      8924      8922      8930
      8928      8922      8929      8928      8922      8930      8929      8922      8930
      8922      8924      8926      8922      8924      8927      8926      8924      8927
      8935      8933      8939      8935      8933      8940      8935      8933      8941
      8939      8933      8940      8939      8933      8941      8940      8933      8941
      8933      8935      8937      8933      8935      8938      8937      8935      8938
      8946      8944      8950      8946      8944      8951      8946      8944      8952
      8950      8944      8951      8950      8944      8952      8951      8944      8952
      8944      8946      8948      8944      8946      8949      8948      8946      8949
      8957      8955      8961      8957      8955      8962      8957      8955      8963
      8961      8955      8962      8961      8955      8963      8962      8955      8963
      8955      8957      8959      8955      8957      8960      8959      8957      8960
      8968      8966      8972      8968      8966      8973      8968      8966      8974
      8972      8966      8973      8972      8966      8974      8973      8966      8974
      8966      8968      8970      8966      8968      8971      8970      8968      8971
      8979      8977      8983      8979      8977      8984      8979      8977      8985
      8983      8977      8984      8983      8977      8985      8984      8977      8985
      8977      8979      8981      8977      8979      8982      8981      8979      8982
      8990      8988      8994      8990      8988      8995      8990      8988      8996
      8994      8988      8995      8994      8988      8996      8995      8988      8996
      8988      8990      8992      8988      8990      8993      8992      8990      8993
      9001      8999      9005      9001      8999      9006      9001      8999      9007
      9005      8999      9006      9005      8999      9007      9006      8999      9007
      8999      9001      9003      8999      9001      9004      9003      9001      9004
      9012      9010      9016      9012      9010      9017      9012      9010      9018
      9016      9010      9017      9016      9010      9018      9017      9010      9018
      9010      9012      9014      9010      9012      9015      9014      9012      9015
      9023      9021      9027      9023      9021      9028      9023      9021      9029
      9027      9021      9028      9027      9021      9029      9028      9021      9029
      9021      9023      9025      9021      9023      9026      9025      9023      9026
      9034      9032      9038      9034      9032      9039      9034      9032      9040
      9038      9032      9039      9038      9032      9040      9039      9032      9040
      9032      9034      9036      9032      9034      9037      9036      9034      9037
      9045      9043      9049      9045      9043      9050      9045      9043      9051
      9049      9043      9050      9049      9043      9051      9050      9043      9051
      9043      9045      9047      9043      9045      9048      9047      9045      9048
      9056      9054      9060      9056      9054      9061      9056      9054      9062
      9060      9054      9061      9060      9054      9062      9061      9054      9062
      9054      9056      9058      9054      9056      9059      9058      9056      9059
      9067      9065      9071      9067      9065      9072      9067      9065      9073
      9071      9065      9072      9071      9065      9073      9072      9065      9073
      9065      9067      9069      9065      9067      9070      9069      9067      9070
      9078      9076      9082      9078      9076      9083      9078      9076      9084
      9082      9076      9083      9082      9076      9084      9083      9076      9084
      9076      9078      9080      9076      9078      9081      9080      9078      9081
      9089      9087      9093      9089      9087      9094      9089      9087      9095
      9093      9087      9094      9093      9087      9095      9094      9087      9095
      9087      9089      9091      9087      9089      9092      9091      9089      9092
      9100      9098      9104      9100      9098      9105      9100      9098      9106
      9104      9098      9105      9104      9098      9106      9105      9098      9106
      9098      9100      9102      9098      9100      9103      9102      9100      9103
      9111      9109      9115      9111      9109      9116      9111      9109      9117
      9115      9109      9116      9115      9109      9117      9116      9109      9117
      9109      9111      9113      9109      9111      9114      9113      9111      9114
      9122      9120      9126      9122      9120      9127      9122      9120      9128
      9126      9120      9127      9126      9120      9128      9127      9120      9128
      9120      9122      9124      9120      9122      9125      9124      9122      9125
      9133      9131      9137      9133      9131      9138      9133      9131      9139
      9137      9131      9138      9137      9131      9139      9138      9131      9139
      9131      9133      9135      9131      9133      9136      9135      9133      9136
      9144      9142      9148      9144      9142      9149      9144      9142      9150
      9148      9142      9149      9148      9142      9150      9149      9142      9150
      9142      9144      9146      9142      9144      9147      9146      9144      9147
      9155      9153      9159      9155      9153      9160      9155      9153      9161
      9159      9153      9160      9159      9153      9161      9160      9153      9161
      9153      9155      9157      9153      9155      9158      9157      9155      9158
      9166      9164      9170      9166      9164      9171      9166      9164      9172
      9170      9164      9171      9170      9164      9172      9171      9164      9172
      9164      9166      9168      9164      9166      9169      9168      9166      9169
      9177      9175      9181      9177      9175      9182      9177      9175      9183
      9181      9175      9182      9181      9175      9183      9182      9175      9183
      9175      9177      9179      9175      9177      9180      9179      9177      9180
      9188      9186      9192      9188      9186      9193      9188      9186      9194
      9192      9186      9193      9192      9186      9194      9193      9186      9194
      9186      9188      9190      9186      9188      9191      9190      9188      9191
      9199      9197      9203      9199      9197      9204      9199      9197      9205
      9203      9197      9204      9203      9197      9205      9204      9197      9205
      9197      9199      9201      9197      9199      9202      9201      9199      9202
      9210      9208      9214      9210      9208      9215      9210      9208      9216
      9214      9208      9215      9214      9208      9216      9215      9208      9216
      9208      9210      9212      9208      9210      9213      9212      9210      9213
      9221      9219      9225      9221      9219      9226      9221      9219      9227
      9225      9219      9226      9225      9219      9227      9226      9219      9227
      9219      9221      9223      9219      9221      9224      9223      9221      9224
      9232      9230      9236      9232      9230      9237      9232      9230      9238
      9236      9230      9237      9236      9230      9238      9237      9230      9238
      9230      9232      9234      9230      9232      9235      9234      9232      9235
      9243      9241      9247      9243      9241      9248      9243      9241      9249
      9247      9241      9248      9247      9241      9249      9248      9241      9249
      9241      9243      9245      9241      9243      9246      9245      9243      9246
      9254      9252      9258      9254      9252      9259      9254      9252      9260
      9258      9252      9259      9258      9252      9260      9259      9252      9260
      9252      9254      9256      9252      9254      9257      9256      9254      9257
      9265      9263      9269      9265      9263      9270      9265      9263      9271
      9269      9263      9270      9269      9263      9271      9270      9263      9271
      9263      9265      9267      9263      9265      9268      9267      9265      9268
      9276      9274      9280      9276      9274      9281      9276      9274      9282
      9280      9274      9281      9280      9274      9282      9281      9274      9282
      9274      9276      9278      9274      9276      9279      9278      9276      9279
      9287      9285      9291      9287      9285      9292      9287      9285      9293
      9291      9285      9292      9291      9285      9293      9292      9285      9293
      9285      9287      9289      9285      9287      9290      9289      9287      9290
      9298      9296      9302      9298      9296      9303      9298      9296      9304
      9302      9296      9303      9302      9296      9304      9303      9296      9304
      9296      9298      9300      9296      9298      9301      9300      9298      9301
      9309      9307      9313      9309      9307      9314      9309      9307      9315
      9313      9307      9314      9313      9307      9315      9314      9307      9315
      9307      9309      9311      9307      9309      9312      9311      9309      9312
      9320      9318      9324      9320      9318      9325      9320      9318      9326
      9324      9318      9325      9324      9318      9326      9325      9318      9326
      9318      9320      9322      9318      9320      9323      9322      9320      9323
      9331      9329      9335      9331      9329      9336      9331      9329      9337
      9335      9329      9336      9335      9329      9337      9336      9329      9337
      9329      9331      9333      9329      9331      9334      9333      9331      9334
      9342      9340      9346      9342      9340      9347      9342      9340      9348
      9346      9340      9347      9346      9340      9348      9347      9340      9348
      9340      9342      9344      9340      9342      9345      9344      9342      9345
      9353      9351      9357      9353      9351      9358      9353      9351      9359
      9357      9351      9358      9357      9351      9359      9358      9351      9359
      9351      9353      9355      9351      9353      9356      9355      9353      9356
      9364      9362      9368      9364      9362      9369      9364      9362      9370
      9368      9362      9369      9368      9362      9370      9369      9362      9370
      9362      9364      9366      9362      9364      9367      9366      9364      9367
      9375      9373      9379      9375      9373      9380      9375      9373      9381
      9379      9373      9380      9379      9373      9381      9380      9373      9381
      9373      9375      9377      9373      9375      9378      9377      9375      9378
      9386      9384      9390      9386      9384      9391      9386      9384      9392
      9390      9384      9391      9390      9384      9392      9391      9384      9392
      9384      9386      9388      9384      9386      9389      9388      9386      9389
      9397      9395      9401      9397      9395      9402      9397      9395      9403
      9401      9395      9402      9401      9395      9403      9402      9395      9403
      9395      9397      9399      9395      9397      9400      9399      9397      9400
      9408      9406      9412      9408      9406      9413      9408      9406      9414
      9412      9406      9413      9412      9406      9414      9413      9406      9414
      9406      9408      9410      9406      9408      9411      9410      9408      9411
      9419      9417      9423      9419      9417      9424      9419      9417      9425
      9423      9417      9424      9423      9417      9425      9424      9417      9425
      9417      9419      9421      9417      9419      9422      9421      9419      9422
      9430      9428      9434      9430      9428      9435      9430      9428      9436
      9434      9428      9435      9434      9428      9436      9435      9428      9436
      9428      9430      9432      9428      9430      9433      9432      9430      9433
      9441      9439      9445      9441      9439      9446      9441      9439      9447
      9445      9439      9446      9445      9439      9447      9446      9439      9447
      9439      9441      9443      9439      9441      9444      9443      9441      9444
      9452      9450      9456      9452      9450      9457      9452      9450      9458
      9456      9450      9457      9456      9450      9458      9457      9450      9458
      9450      9452      9454      9450      9452      9455      9454      9452      9455
      9463      9461      9467      9463      9461      9468      9463      9461      9469
      9467      9461      9468      9467      9461      9469      9468      9461      9469
      9461      9463      9465      9461      9463      9466      9465      9463      9466
      9474      9472      9478      9474      9472      9479      9474      9472      9480
      9478      9472      9479      9478      9472      9480      9479      9472      9480
      9472      9474      9476      9472      9474      9477      9476      9474      9477
      9485      9483      9489      9485      9483      9490      9485      9483      9491
      9489      9483      9490      9489      9483      9491      9490      9483      9491
      9483      9485      9487      9483      9485      9488      9487      9485      9488
      9496      9494      9500      9496      9494      9501      9496      9494      9502
      9500      9494      9501      9500      9494      9502      9501      9494      9502
      9494      9496      9498      9494      9496      9499      9498      9496      9499
      9507      9505      9511      9507      9505      9512      9507      9505      9513
      9511      9505      9512      9511      9505      9513      9512      9505      9513
      9505      9507      9509      9505      9507      9510      9509      9507      9510
      9518      9516      9522      9518      9516      9523      9518      9516      9524
      9522      9516      9523      9522      9516      9524      9523      9516      9524
      9516      9518      9520      9516      9518      9521      9520      9518      9521
      9529      9527      9533      9529      9527      9534      9529      9527      9535
      9533      9527      9534      9533      9527      9535      9534      9527      9535
      9527      9529      9531      9527      9529      9532      9531      9529      9532
      9540      9538      9544      9540      9538      9545      9540      9538      9546
      9544      9538      9545      9544      9538      9546      9545      9538      9546
      9538      9540      9542      9538      9540      9543      9542      9540      9543
      9551      9549      9555      9551      9549      9556      9551      9549      9557
      9555      9549      9556      9555      9549      9557      9556      9549      9557
      9549      9551      9553      9549      9551      9554      9553      9551      9554
      9562      9560      9566      9562      9560      9567      9562      9560      9568
      9566      9560      9567      9566      9560      9568      9567      9560      9568
      9560      9562      9564      9560      9562      9565      9564      9562      9565
      9573      9571      9577      9573      9571      9578      9573      9571      9579
      9577      9571      9578      9577      9571      9579      9578      9571      9579
      9571      9573      9575      9571      9573      9576      9575      9573      9576
      9584      9582      9588      9584      9582      9589      9584      9582      9590
      9588      9582      9589      9588      9582      9590      9589      9582      9590
      9582      9584      9586      9582      9584      9587      9586      9584      9587
      9595      9593      9599      9595      9593      9600      9595      9593      9601
      9599      9593      9600      9599      9593      9601      9600      9593      9601
      9593      9595      9597      9593      9595      9598      9597      9595      9598
      9606      9604      9610      9606      9604      9611      9606      9604      9612
      9610      9604      9611      9610      9604      9612      9611      9604      9612
      9604      9606      9608      9604      9606      9609      9608      9606      9609
      9617      9615      9621      9617      9615      9622      9617      9615      9623
      9621      9615      9622      9621      9615      9623      9622      9615      9623
      9615      9617      9619      9615      9617      9620      9619      9617      9620
      9628      9626      9632      9628      9626      9633      9628      9626      9634
      9632      9626      9633      9632      9626      9634      9633      9626      9634
      9626      9628      9630      9626      9628      9631      9630      9628      9631
      9639      9637      9643      9639      9637      9644      9639      9637      9645
      9643      9637      9644      9643      9637      9645      9644      9637      9645
      9637      9639      9641      9637      9639      9642      9641      9639      9642
      9650      9648      9654      9650      9648      9655      9650      9648      9656
      9654      9648      9655      9654      9648      9656      9655      9648      9656
      9648      9650      9652      9648      9650      9653      9652      9650      9653
      9661      9659      9665      9661      9659      9666      9661      9659      9667
      9665      9659      9666      9665      9659      9667      9666      9659      9667
      9659      9661      9663      9659      9661      9664      9663      9661      9664
      9672      9670      9676      9672      9670      9677      9672      9670      9678
      9676      9670      9677      9676      9670      9678      9677      9670      9678
      9670      9672      9674      9670      9672      9675      9674      9672      9675
      9683      9681      9687      9683      9681      9688      9683      9681      9689
      9687      9681      9688      9687      9681      9689      9688      9681      9689
      9681      9683      9685      9681      9683      9686      9685      9683      9686
      9694      9692      9698      9694      9692      9699      9694      9692      9700
      9698      9692      9699      9698      9692      9700      9699      9692      9700
      9692      9694      9696      9692      9694      9697      9696      9694      9697
      9705      9703      9709      9705      9703      9710      9705      9703      9711
      9709      9703      9710      9709      9703      9711      9710      9703      9711
      9703      9705      9707      9703      9705      9708      9707      9705      9708
      9716      9714      9720      9716      9714      9721      9716      9714      9722
      9720      9714      9721      9720      9714      9722      9721      9714      9722
      9714      9716      9718      9714      9716      9719      9718      9716      9719
      9727      9725      9731      9727      9725      9732      9727      9725      9733
      9731      9725      9732      9731      9725      9733      9732      9725      9733
      9725      9727      9729      9725      9727      9730      9729      9727      9730
      9738      9736      9742      9738      9736      9743      9738      9736      9744
      9742      9736      9743      9742      9736      9744      9743      9736      9744
      9736      9738      9740      9736      9738      9741      9740      9738      9741
      9749      9747      9753      9749      9747      9754      9749      9747      9755
      9753      9747      9754      9753      9747      9755      9754      9747      9755
      9747      9749      9751      9747      9749      9752      9751      9749      9752
      9760      9758      9764      9760      9758      9765      9760      9758      9766
      9764      9758      9765      9764      9758      9766      9765      9758      9766
      9758      9760      9762      9758      9760      9763      9762      9760      9763
      9771      9769      9775      9771      9769      9776      9771      9769      9777
      9775      9769      9776      9775      9769      9777      9776      9769      9777
      9769      9771      9773      9769      9771      9774      9773      9771      9774
      9782      9780      9786      9782      9780      9787      9782      9780      9788
      9786      9780      9787      9786      9780      9788      9787      9780      9788
      9780      9782      9784      9780      9782      9785      9784      9782      9785
      9793      9791      9797      9793      9791      9798      9793      9791      9799
      9797      9791      9798      9797      9791      9799      9798      9791      9799
      9791      9793      9795      9791      9793      9796      9795      9793      9796
      9804      9802      9808      9804      9802      9809      9804      9802      9810
      9808      9802      9809      9808      9802      9810      9809      9802      9810
      9802      9804      9806      9802      9804      9807      9806      9804      9807
      9815      9813      9819      9815      9813      9820      9815      9813      9821
      9819      9813      9820      9819      9813      9821      9820      9813      9821
      9813      9815      9817      9813      9815      9818      9817      9815      9818
      9826      9824      9830      9826      9824      9831      9826      9824      9832
      9830      9824      9831      9830      9824      9832      9831      9824      9832
      9824      9826      9828      9824      9826      9829      9828      9826      9829
      9837      9835      9841      9837      9835      9842      9837      9835      9843
      9841      9835      9842      9841      9835      9843      9842      9835      9843
      9835      9837      9839      9835      9837      9840      9839      9837      9840
      9848      9846      9852      9848      9846      9853      9848      9846      9854
      9852      9846      9853      9852      9846      9854      9853      9846      9854
      9846      9848      9850      9846      9848      9851      9850      9848      9851
      9859      9857      9863      9859      9857      9864      9859      9857      9865
      9863      9857      9864      9863      9857      9865      9864      9857      9865
      9857      9859      9861      9857      9859      9862      9861      9859      9862
      9870      9868      9874      9870      9868      9875      9870      9868      9876
      9874      9868      9875      9874      9868      9876      9875      9868      9876
      9868      9870      9872      9868      9870      9873      9872      9870      9873
      9881      9879      9885      9881      9879      9886      9881      9879      9887
      9885      9879      9886      9885      9879      9887      9886      9879      9887
      9879      9881      9883      9879      9881      9884      9883      9881      9884
      9892      9890      9896      9892      9890      9897      9892      9890      9898
      9896      9890      9897      9896      9890      9898      9897      9890      9898
      9890      9892      9894      9890      9892      9895      9894      9892      9895
      9903      9901      9907      9903      9901      9908      9903      9901      9909
      9907      9901      9908      9907      9901      9909      9908      9901      9909
      9901      9903      9905      9901      9903      9906      9905      9903      9906
      9914      9912      9918      9914      9912      9919      9914      9912      9920
      9918      9912      9919      9918      9912      9920      9919      9912      9920
      9912      9914      9916      9912      9914      9917      9916      9914      9917
      9925      9923      9929      9925      9923      9930      9925      9923      9931
      9929      9923      9930      9929      9923      9931      9930      9923      9931
      9923      9925      9927      9923      9925      9928      9927      9925      9928
      9936      9934      9940      9936      9934      9941      9936      9934      9942
      9940      9934      9941      9940      9934      9942      9941      9934      9942
      9934      9936      9938      9934      9936      9939      9938      9936      9939
      9947      9945      9951      9947      9945      9952      9947      9945      9953
      9951      9945      9952      9951      9945      9953      9952      9945      9953
      9945      9947      9949      9945      9947      9950      9949      9947      9950
      9958      9956      9962      9958      9956      9963      9958      9956      9964
      9962      9956      9963      9962      9956      9964      9963      9956      9964
      9956      9958      9960      9956      9958      9961      9960      9958      9961
      9969      9967      9973      9969      9967      9974      9969      9967      9975
      9973      9967      9974      9973      9967      9975      9974      9967      9975
      9967      9969      9971      9967      9969      9972      9971      9969      9972
      9980      9978      9984      9980      9978      9985      9980      9978      9986
      9984      9978      9985      9984      9978      9986      9985      9978      9986
      9978      9980      9982      9978      9980      9983      9982      9980      9983
      9991      9989      9995      9991      9989      9996      9991      9989      9997
      9995      9989      9996      9995      9989      9997      9996      9989      9997
      9989      9991      9993      9989      9991      9994      9993      9991      9994
     10002     10000     10006     10002     10000     10007     10002     10000     10008
     10006     10000     10007     10006     10000     10008     10007     10000     10008
     10000     10002     10004     10000     10002     10005     10004     10002     10005
     10013     10011     10017     10013     10011     10018     10013     10011     10019
     10017     10011     10018     10017     10011     10019     10018     10011     10019
     10011     10013     10015     10011     10013     10016     10015     10013     10016
     10024     10022     10028     10024     10022     10029     10024     10022     10030
     10028     10022     10029     10028     10022     10030     10029     10022     10030
     10022     10024     10026     10022     10024     10027     10026     10024     10027
     10035     10033     10039     10035     10033     10040     10035     10033     10041
     10039     10033     10040     10039     10033     10041     10040     10033     10041
     10033     10035     10037     10033     10035     10038     10037     10035     10038
     10046     10044     10050     10046     10044     10051     10046     10044     10052
     10050     10044     10051     10050     10044     10052     10051     10044     10052
     10044     10046     10048     10044     10046     10049     10048     10046     10049
     10057     10055     10061     10057     10055     10062     10057     10055     10063
     10061     10055     10062     10061     10055     10063     10062     10055     10063
     10055     10057     10059     10055     10057     10060     10059     10057     10060
     10068     10066     10072     10068     10066     10073     10068     10066     10074
     10072     10066     10073     10072     10066     10074     10073     10066     10074
     10066     10068     10070     10066     10068     10071     10070     10068     10071
     10079     10077     10083     10079     10077     10084     10079     10077     10085
     10083     10077     10084     10083     10077     10085     10084     10077     10085
     10077     10079     10081     10077     10079     10082     10081     10079     10082
     10090     10088     10094     10090     10088     10095     10090     10088     10096
     10094     10088     10095     10094     10088     10096     10095     10088     10096
     10088     10090     10092     10088     10090     10093     10092     10090     10093
     10101     10099     10105     10101     10099     10106     10101     10099     10107
     10105     10099     10106     10105     10099     10107     10106     10099     10107
     10099     10101     10103     10099     10101     10104     10103     10101     10104
     10112     10110     10116     10112     10110     10117     10112     10110     10118
     10116     10110     10117     10116     10110     10118     10117     10110     10118
     10110     10112     10114     10110     10112     10115     10114     10112     10115
     10123     10121     10127     10123     10121     10128     10123     10121     10129
     10127     10121     10128     10127     10121     10129     10128     10121     10129
     10121     10123     10125     10121     10123     10126     10125     10123     10126
     10134     10132     10138     10134     10132     10139     10134     10132     10140
     10138     10132     10139     10138     10132     10140     10139     10132     10140
     10132     10134     10136     10132     10134     10137     10136     10134     10137
     10145     10143     10149     10145     10143     10150     10145     10143     10151
     10149     10143     10150     10149     10143     10151     10150     10143     10151
     10143     10145     10147     10143     10145     10148     10147     10145     10148
     10156     10154     10160     10156     10154     10161     10156     10154     10162
     10160     10154     10161     10160     10154     10162     10161     10154     10162
     10154     10156     10158     10154     10156     10159     10158     10156     10159
     10167     10165     10171     10167     10165     10172     10167     10165     10173
     10171     10165     10172     10171     10165     10173     10172     10165     10173
     10165     10167     10169     10165     10167     10170     10169     10167     10170
     10178     10176     10182     10178     10176     10183     10178     10176     10184
     10182     10176     10183     10182     10176     10184     10183     10176     10184
     10176     10178     10180     10176     10178     10181     10180     10178     10181
     10189     10187     10193     10189     10187     10194     10189     10187     10195
     10193     10187     10194     10193     10187     10195     10194     10187     10195
     10187     10189     10191     10187     10189     10192     10191     10189     10192
     10200     10198     10204     10200     10198     10205     10200     10198     10206
     10204     10198     10205     10204     10198     10206     10205     10198     10206
     10198     10200     10202     10198     10200     10203     10202     10200     10203
     10211     10209     10215     10211     10209     10216     10211     10209     10217
     10215     10209     10216     10215     10209     10217     10216     10209     10217
     10209     10211     10213     10209     10211     10214     10213     10211     10214
     10222     10220     10226     10222     10220     10227     10222     10220     10228
     10226     10220     10227     10226     10220     10228     10227     10220     10228
     10220     10222     10224     10220     10222     10225     10224     10222     10225
     10233     10231     10237     10233     10231     10238     10233     10231     10239
     10237     10231     10238     10237     10231     10239     10238     10231     10239
     10231     10233     10235     10231     10233     10236     10235     10233     10236
     10244     10242     10248     10244     10242     10249     10244     10242     10250
     10248     10242     10249     10248     10242     10250     10249     10242     10250
     10242     10244     10246     10242     10244     10247     10246     10244     10247
     10255     10253     10259     10255     10253     10260     10255     10253     10261
     10259     10253     10260     10259     10253     10261     10260     10253     10261
     10253     10255     10257     10253     10255     10258     10257     10255     10258
     10266     10264     10270     10266     10264     10271     10266     10264     10272
     10270     10264     10271     10270     10264     10272     10271     10264     10272
     10264     10266     10268     10264     10266     10269     10268     10266     10269
     10277     10275     10281     10277     10275     10282     10277     10275     10283
     10281     10275     10282     10281     10275     10283     10282     10275     10283
     10275     10277     10279     10275     10277     10280     10279     10277     10280
     10288     10286     10292     10288     10286     10293     10288     10286     10294
     10292     10286     10293     10292     10286     10294     10293     10286     10294
     10286     10288     10290     10286     10288     10291     10290     10288     10291
     10299     10297     10303     10299     10297     10304     10299     10297     10305
     10303     10297     10304     10303     10297     10305     10304     10297     10305
     10297     10299     10301     10297     10299     10302     10301     10299     10302
     10310     10308     10314     10310     10308     10315     10310     10308     10316
     10314     10308     10315     10314     10308     10316     10315     10308     10316
     10308     10310     10312     10308     10310     10313     10312     10310     10313
     10321     10319     10325     10321     10319     10326     10321     10319     10327
     10325     10319     10326     10325     10319     10327     10326     10319     10327
     10319     10321     10323     10319     10321     10324     10323     10321     10324
     10332     10330     10336     10332     10330     10337     10332     10330     10338
     10336     10330     10337     10336     10330     10338     10337     10330     10338
     10330     10332     10334     10330     10332     10335     10334     10332     10335
     10343     10341     10347     10343     10341     10348     10343     10341     10349
     10347     10341     10348     10347     10341     10349     10348     10341     10349
     10341     10343     10345     10341     10343     10346     10345     10343     10346
     10354     10352     10358     10354     10352     10359     10354     10352     10360
     10358     10352     10359     10358     10352     10360     10359     10352     10360
     10352     10354     10356     10352     10354     10357     10356     10354     10357
     10365     10363     10369     10365     10363     10370     10365     10363     10371
     10369     10363     10370     10369     10363     10371     10370     10363     10371
     10363     10365     10367     10363     10365     10368     10367     10365     10368
     10376     10374     10380     10376     10374     10381     10376     10374     10382
     10380     10374     10381     10380     10374     10382     10381     10374     10382
     10374     10376     10378     10374     10376     10379     10378     10376     10379
     10387     10385     10391     10387     10385     10392     10387     10385     10393
     10391     10385     10392     10391     10385     10393     10392     10385     10393
     10385     10387     10389     10385     10387     10390     10389     10387     10390
     10398     10396     10402     10398     10396     10403     10398     10396     10404
     10402     10396     10403     10402     10396     10404     10403     10396     10404
     10396     10398     10400     10396     10398     10401     10400     10398     10401
     10409     10407     10413     10409     10407     10414     10409     10407     10415
     10413     10407     10414     10413     10407     10415     10414     10407     10415
     10407     10409     10411     10407     10409     10412     10411     10409     10412
     10420     10418     10424     10420     10418     10425     10420     10418     10426
     10424     10418     10425     10424     10418     10426     10425     10418     10426
     10418     10420     10422     10418     10420     10423     10422     10420     10423
     10431     10429     10435     10431     10429     10436     10431     10429     10437
     10435     10429     10436     10435     10429     10437     10436     10429     10437
     10429     10431     10433     10429     10431     10434     10433     10431     10434
     10442     10440     10446     10442     10440     10447     10442     10440     10448
     10446     10440     10447     10446     10440     10448     10447     10440     10448
     10440     10442     10444     10440     10442     10445     10444     10442     10445
     10453     10451     10457     10453     10451     10458     10453     10451     10459
     10457     10451     10458     10457     10451     10459     10458     10451     10459
     10451     10453     10455     10451     10453     10456     10455     10453     10456
     10464     10462     10468     10464     10462     10469     10464     10462     10470
     10468     10462     10469     10468     10462     10470     10469     10462     10470
     10462     10464     10466     10462     10464     10467     10466     10464     10467
     10475     10473     10479     10475     10473     10480     10475     10473     10481
     10479     10473     10480     10479     10473     10481     10480     10473     10481
     10473     10475     10477     10473     10475     10478     10477     10475     10478
     10486     10484     10490     10486     10484     10491     10486     10484     10492
     10490     10484     10491     10490     10484     10492     10491     10484     10492
     10484     10486     10488     10484     10486     10489     10488     10486     10489
     10497     10495     10501     10497     10495     10502     10497     10495     10503
     10501     10495     10502     10501     10495     10503     10502     10495     10503
     10495     10497     10499     10495     10497     10500     10499     10497     10500
     10508     10506     10512     10508     10506     10513     10508     10506     10514
     10512     10506     10513     10512     10506     10514     10513     10506     10514
     10506     10508     10510     10506     10508     10511     10510     10508     10511
     10519     10517     10523     10519     10517     10524     10519     10517     10525
     10523     10517     10524     10523     10517     10525     10524     10517     10525
     10517     10519     10521     10517     10519     10522     10521     10519     10522
     10530     10528     10534     10530     10528     10535     10530     10528     10536
     10534     10528     10535     10534     10528     10536     10535     10528     10536
     10528     10530     10532     10528     10530     10533     10532     10530     10533
     10541     10539     10545     10541     10539     10546     10541     10539     10547
     10545     10539     10546     10545     10539     10547     10546     10539     10547
     10539     10541     10543     10539     10541     10544     10543     10541     10544
     10552     10550     10556     10552     10550     10557     10552     10550     10558
     10556     10550     10557     10556     10550     10558     10557     10550     10558
     10550     10552     10554     10550     10552     10555     10554     10552     10555
     10563     10561     10567     10563     10561     10568     10563     10561     10569
     10567     10561     10568     10567     10561     10569     10568     10561     10569
     10561     10563     10565     10561     10563     10566     10565     10563     10566
     10574     10572     10578     10574     10572     10579     10574     10572     10580
     10578     10572     10579     10578     10572     10580     10579     10572     10580
     10572     10574     10576     10572     10574     10577     10576     10574     10577
     10585     10583     10589     10585     10583     10590     10585     10583     10591
     10589     10583     10590     10589     10583     10591     10590     10583     10591
     10583     10585     10587     10583     10585     10588     10587     10585     10588
     10596     10594     10600     10596     10594     10601     10596     10594     10602
     10600     10594     10601     10600     10594     10602     10601     10594     10602
     10594     10596     10598     10594     10596     10599     10598     10596     10599
     10607     10605     10611     10607     10605     10612     10607     10605     10613
     10611     10605     10612     10611     10605     10613     10612     10605     10613
     10605     10607     10609     10605     10607     10610     10609     10607     10610
     10618     10616     10622     10618     10616     10623     10618     10616     10624
     10622     10616     10623     10622     10616     10624     10623     10616     10624
     10616     10618     10620     10616     10618     10621     10620     10618     10621
     10629     10627     10633     10629     10627     10634     10629     10627     10635
     10633     10627     10634     10633     10627     10635     10634     10627     10635
     10627     10629     10631     10627     10629     10632     10631     10629     10632
     10640     10638     10644     10640     10638     10645     10640     10638     10646
     10644     10638     10645     10644     10638     10646     10645     10638     10646
     10638     10640     10642     10638     10640     10643     10642     10640     10643
     10651     10649     10655     10651     10649     10656     10651     10649     10657
     10655     10649     10656     10655     10649     10657     10656     10649     10657
     10649     10651     10653     10649     10651     10654     10653     10651     10654
     10662     10660     10666     10662     10660     10667     10662     10660     10668
     10666     10660     10667     10666     10660     10668     10667     10660     10668
     10660     10662     10664     10660     10662     10665     10664     10662     10665
     10673     10671     10677     10673     10671     10678     10673     10671     10679
     10677     10671     10678     10677     10671     10679     10678     10671     10679
     10671     10673     10675     10671     10673     10676     10675     10673     10676
     10684     10682     10688     10684     10682     10689     10684     10682     10690
     10688     10682     10689     10688     10682     10690     10689     10682     10690
     10682     10684     10686     10682     10684     10687     10686     10684     10687
     10695     10693     10699     10695     10693     10700     10695     10693     10701
     10699     10693     10700     10699     10693     10701     10700     10693     10701
     10693     10695     10697     10693     10695     10698     10697     10695     10698
     10706     10704     10710     10706     10704     10711     10706     10704     10712
     10710     10704     10711     10710     10704     10712     10711     10704     10712
     10704     10706     10708     10704     10706     10709     10708     10706     10709
     10717     10715     10721     10717     10715     10722     10717     10715     10723
     10721     10715     10722     10721     10715     10723     10722     10715     10723
     10715     10717     10719     10715     10717     10720     10719     10717     10720
     10728     10726     10732     10728     10726     10733     10728     10726     10734
     10732     10726     10733     10732     10726     10734     10733     10726     10734
     10726     10728     10730     10726     10728     10731     10730     10728     10731
     10739     10737     10743     10739     10737     10744     10739     10737     10745
     10743     10737     10744     10743     10737     10745     10744     10737     10745
     10737     10739     10741     10737     10739     10742     10741     10739     10742
     10750     10748     10754     10750     10748     10755     10750     10748     10756
     10754     10748     10755     10754     10748     10756     10755     10748     10756
     10748     10750     10752     10748     10750     10753     10752     10750     10753
     10761     10759     10765     10761     10759     10766     10761     10759     10767
     10765     10759     10766     10765     10759     10767     10766     10759     10767
     10759     10761     10763     10759     10761     10764     10763     10761     10764
     10772     10770     10776     10772     10770     10777     10772     10770     10778
     10776     10770     10777     10776     10770     10778     10777     10770     10778
     10770     10772     10774     10770     10772     10775     10774     10772     10775
     10783     10781     10787     10783     10781     10788     10783     10781     10789
     10787     10781     10788     10787     10781     10789     10788     10781     10789
     10781     10783     10785     10781     10783     10786     10785     10783     10786
     10794     10792     10798     10794     10792     10799     10794     10792     10800
     10798     10792     10799     10798     10792     10800     10799     10792     10800
     10792     10794     10796     10792     10794     10797     10796     10794     10797
     10805     10803     10809     10805     10803     10810     10805     10803     10811
     10809     10803     10810     10809     10803     10811     10810     10803     10811
     10803     10805     10807     10803     10805     10808     10807     10805     10808
     10816     10814     10820     10816     10814     10821     10816     10814     10822
     10820     10814     10821     10820     10814     10822     10821     10814     10822
     10814     10816     10818     10814     10816     10819     10818     10816     10819
     10827     10825     10831     10827     10825     10832     10827     10825     10833
     10831     10825     10832     10831     10825     10833     10832     10825     10833
     10825     10827     10829     10825     10827     10830     10829     10827     10830
     10838     10836     10842     10838     10836     10843     10838     10836     10844
     10842     10836     10843     10842     10836     10844     10843     10836     10844
     10836     10838     10840     10836     10838     10841     10840     10838     10841
     10849     10847     10853     10849     10847     10854     10849     10847     10855
     10853     10847     10854     10853     10847     10855     10854     10847     10855
     10847     10849     10851     10847     10849     10852     10851     10849     10852
     10860     10858     10864     10860     10858     10865     10860     10858     10866
     10864     10858     10865     10864     10858     10866     10865     10858     10866
     10858     10860     10862     10858     10860     10863     10862     10860     10863
     10871     10869     10875     10871     10869     10876     10871     10869     10877
     10875     10869     10876     10875     10869     10877     10876     10869     10877
     10869     10871     10873     10869     10871     10874     10873     10871     10874
     10882     10880     10886     10882     10880     10887     10882     10880     10888
     10886     10880     10887     10886     10880     10888     10887     10880     10888
     10880     10882     10884     10880     10882     10885     10884     10882     10885
     10893     10891     10897     10893     10891     10898     10893     10891     10899
     10897     10891     10898     10897     10891     10899     10898     10891     10899
     10891     10893     10895     10891     10893     10896     10895     10893     10896
     10904     10902     10908     10904     10902     10909     10904     10902     10910
     10908     10902     10909     10908     10902     10910     10909     10902     10910
     10902     10904     10906     10902     10904     10907     10906     10904     10907
     10915     10913     10919     10915     10913     10920     10915     10913     10921
     10919     10913     10920     10919     10913     10921     10920     10913     10921
     10913     10915     10917     10913     10915     10918     10917     10915     10918
     10926     10924     10930     10926     10924     10931     10926     10924     10932
     10930     10924     10931     10930     10924     10932     10931     10924     10932
     10924     10926     10928     10924     10926     10929     10928     10926     10929
     10937     10935     10941     10937     10935     10942     10937     10935     10943
     10941     10935     10942     10941     10935     10943     10942     10935     10943
     10935     10937     10939     10935     10937     10940     10939     10937     10940
     10948     10946     10952     10948     10946     10953     10948     10946     10954
     10952     10946     10953     10952     10946     10954     10953     10946     10954
     10946     10948     10950     10946     10948     10951     10950     10948     10951
     10959     10957     10963     10959     10957     10964     10959     10957     10965
     10963     10957     10964     10963     10957     10965     10964     10957     10965
     10957     10959     10961     10957     10959     10962     10961     10959     10962
     10970     10968     10974     10970     10968     10975     10970     10968     10976
     10974     10968     10975     10974     10968     10976     10975     10968     10976
     10968     10970     10972     10968     10970     10973     10972     10970     10973
     10981     10979     10985     10981     10979     10986     10981     10979     10987
     10985     10979     10986     10985     10979     10987     10986     10979     10987
     10979     10981     10983     10979     10981     10984     10983     10981     10984
     10992     10990     10996     10992     10990     10997     10992     10990     10998
     10996     10990     10997     10996     10990     10998     10997     10990     10998
     10990     10992     10994     10990     10992     10995     10994     10992     10995
     11003     11001     11007     11003     11001     11008     11003     11001     11009
     11007     11001     11008     11007     11001     11009     11008     11001     11009
     11001     11003     11005     11001     11003     11006     11005     11003     11006
     11014     11012     11018     11014     11012     11019     11014     11012     11020
     11018     11012     11019     11018     11012     11020     11019     11012     11020
     11012     11014     11016     11012     11014     11017     11016     11014     11017
     11025     11023     11029     11025     11023     11030     11025     11023     11031
     11029     11023     11030     11029     11023     11031     11030     11023     11031
     11023     11025     11027     11023     11025     11028     11027     11025     11028
     11036     11034     11040     11036     11034     11041     11036     11034     11042
     11040     11034     11041     11040     11034     11042     11041     11034     11042
     11034     11036     11038     11034     11036     11039     11038     11036     11039
     11047     11045     11051     11047     11045     11052     11047     11045     11053
     11051     11045     11052     11051     11045     11053     11052     11045     11053
     11045     11047     11049     11045     11047     11050     11049     11047     11050
     11058     11056     11062     11058     11056     11063     11058     11056     11064
     11062     11056     11063     11062     11056     11064     11063     11056     11064
     11056     11058     11060     11056     11058     11061     11060     11058     11061
     11069     11067     11073     11069     11067     11074     11069     11067     11075
     11073     11067     11074     11073     11067     11075     11074     11067     11075
     11067     11069     11071     11067     11069     11072     11071     11069     11072
     11080     11078     11084     11080     11078     11085     11080     11078     11086
     11084     11078     11085     11084     11078     11086     11085     11078     11086
     11078     11080     11082     11078     11080     11083     11082     11080     11083
     11091     11089     11095     11091     11089     11096     11091     11089     11097
     11095     11089     11096     11095     11089     11097     11096     11089     11097
     11089     11091     11093     11089     11091     11094     11093     11091     11094
     11102     11100     11106     11102     11100     11107     11102     11100     11108
     11106     11100     11107     11106     11100     11108     11107     11100     11108
     11100     11102     11104     11100     11102     11105     11104     11102     11105
     11113     11111     11117     11113     11111     11118     11113     11111     11119
     11117     11111     11118     11117     11111     11119     11118     11111     11119
     11111     11113     11115     11111     11113     11116     11115     11113     11116
     11124     11122     11128     11124     11122     11129     11124     11122     11130
     11128     11122     11129     11128     11122     11130     11129     11122     11130
     11122     11124     11126     11122     11124     11127     11126     11124     11127
     11135     11133     11139     11135     11133     11140     11135     11133     11141
     11139     11133     11140     11139     11133     11141     11140     11133     11141
     11133     11135     11137     11133     11135     11138     11137     11135     11138
     11146     11144     11150     11146     11144     11151     11146     11144     11152
     11150     11144     11151     11150     11144     11152     11151     11144     11152
     11144     11146     11148     11144     11146     11149     11148     11146     11149
     11157     11155     11161     11157     11155     11162     11157     11155     11163
     11161     11155     11162     11161     11155     11163     11162     11155     11163
     11155     11157     11159     11155     11157     11160     11159     11157     11160
     11168     11166     11172     11168     11166     11173     11168     11166     11174
     11172     11166     11173     11172     11166     11174     11173     11166     11174
     11166     11168     11170     11166     11168     11171     11170     11168     11171
     11179     11177     11183     11179     11177     11184     11179     11177     11185
     11183     11177     11184     11183     11177     11185     11184     11177     11185
     11177     11179     11181     11177     11179     11182     11181     11179     11182
     11190     11188     11194     11190     11188     11195     11190     11188     11196
     11194     11188     11195     11194     11188     11196     11195     11188     11196
     11188     11190     11192     11188     11190     11193     11192     11190     11193
     11201     11199     11205     11201     11199     11206     11201     11199     11207
     11205     11199     11206     11205     11199     11207     11206     11199     11207
     11199     11201     11203     11199     11201     11204     11203     11201     11204
     11212     11210     11216     11212     11210     11217     11212     11210     11218
     11216     11210     11217     11216     11210     11218     11217     11210     11218
     11210     11212     11214     11210     11212     11215     11214     11212     11215
     11223     11221     11227     11223     11221     11228     11223     11221     11229
     11227     11221     11228     11227     11221     11229     11228     11221     11229
     11221     11223     11225     11221     11223     11226     11225     11223     11226
     11234     11232     11238     11234     11232     11239     11234     11232     11240
     11238     11232     11239     11238     11232     11240     11239     11232     11240
     11232     11234     11236     11232     11234     11237     11236     11234     11237
     11245     11243     11249     11245     11243     11250     11245     11243     11251
     11249     11243     11250     11249     11243     11251     11250     11243     11251
     11243     11245     11247     11243     11245     11248     11247     11245     11248
     11256     11254     11260     11256     11254     11261     11256     11254     11262
     11260     11254     11261     11260     11254     11262     11261     11254     11262
     11254     11256     11258     11254     11256     11259     11258     11256     11259
     11267     11265     11271     11267     11265     11272     11267     11265     11273
     11271     11265     11272     11271     11265     11273     11272     11265     11273
     11265     11267     11269     11265     11267     11270     11269     11267     11270
     11278     11276     11282     11278     11276     11283     11278     11276     11284
     11282     11276     11283     11282     11276     11284     11283     11276     11284
     11276     11278     11280     11276     11278     11281     11280     11278     11281
     11289     11287     11293     11289     11287     11294     11289     11287     11295
     11293     11287     11294     11293     11287     11295     11294     11287     11295
     11287     11289     11291     11287     11289     11292     11291     11289     11292
     11300     11298     11304     11300     11298     11305     11300     11298     11306
     11304     11298     11305     11304     11298     11306     11305     11298     11306
     11298     11300     11302     11298     11300     11303     11302     11300     11303
     11311     11309     11315     11311     11309     11316     11311     11309     11317
     11315     11309     11316     11315     11309     11317     11316     11309     11317
     11309     11311     11313     11309     11311     11314     11313     11311     11314
     11322     11320     11326     11322     11320     11327     11322     11320     11328
     11326     11320     11327     11326     11320     11328     11327     11320     11328
     11320     11322     11324     11320     11322     11325     11324     11322     11325
     11333     11331     11337     11333     11331     11338     11333     11331     11339
     11337     11331     11338     11337     11331     11339     11338     11331     11339
     11331     11333     11335     11331     11333     11336     11335     11333     11336
     11344     11342     11348     11344     11342     11349     11344     11342     11350
     11348     11342     11349     11348     11342     11350     11349     11342     11350
     11342     11344     11346     11342     11344     11347     11346     11344     11347
     11355     11353     11359     11355     11353     11360     11355     11353     11361
     11359     11353     11360     11359     11353     11361     11360     11353     11361
     11353     11355     11357     11353     11355     11358     11357     11355     11358
     11366     11364     11370     11366     11364     11371     11366     11364     11372
     11370     11364     11371     11370     11364     11372     11371     11364     11372
     11364     11366     11368     11364     11366     11369     11368     11366     11369
     11377     11375     11381     11377     11375     11382     11377     11375     11383
     11381     11375     11382     11381     11375     11383     11382     11375     11383
     11375     11377     11379     11375     11377     11380     11379     11377     11380
     11388     11386     11392     11388     11386     11393     11388     11386     11394
     11392     11386     11393     11392     11386     11394     11393     11386     11394
     11386     11388     11390     11386     11388     11391     11390     11388     11391
     11399     11397     11403     11399     11397     11404     11399     11397     11405
     11403     11397     11404     11403     11397     11405     11404     11397     11405
     11397     11399     11401     11397     11399     11402     11401     11399     11402
     11410     11408     11414     11410     11408     11415     11410     11408     11416
     11414     11408     11415     11414     11408     11416     11415     11408     11416
     11408     11410     11412     11408     11410     11413     11412     11410     11413
     11421     11419     11425     11421     11419     11426     11421     11419     11427
     11425     11419     11426     11425     11419     11427     11426     11419     11427
     11419     11421     11423     11419     11421     11424     11423     11421     11424
     11432     11430     11436     11432     11430     11437     11432     11430     11438
     11436     11430     11437     11436     11430     11438     11437     11430     11438
     11430     11432     11434     11430     11432     11435     11434     11432     11435
     11443     11441     11447     11443     11441     11448     11443     11441     11449
     11447     11441     11448     11447     11441     11449     11448     11441     11449
     11441     11443     11445     11441     11443     11446     11445     11443     11446
     11454     11452     11458     11454     11452     11459     11454     11452     11460
     11458     11452     11459     11458     11452     11460     11459     11452     11460
     11452     11454     11456     11452     11454     11457     11456     11454     11457
     11465     11463     11469     11465     11463     11470     11465     11463     11471
     11469     11463     11470     11469     11463     11471     11470     11463     11471
     11463     11465     11467     11463     11465     11468     11467     11465     11468
     11476     11474     11480     11476     11474     11481     11476     11474     11482
     11480     11474     11481     11480     11474     11482     11481     11474     11482
     11474     11476     11478     11474     11476     11479     11478     11476     11479
     11487     11485     11491     11487     11485     11492     11487     11485     11493
     11491     11485     11492     11491     11485     11493     11492     11485     11493
     11485     11487     11489     11485     11487     11490     11489     11487     11490
     11498     11496     11502     11498     11496     11503     11498     11496     11504
     11502     11496     11503     11502     11496     11504     11503     11496     11504
     11496     11498     11500     11496     11498     11501     11500     11498     11501
     11509     11507     11513     11509     11507     11514     11509     11507     11515
     11513     11507     11514     11513     11507     11515     11514     11507     11515
     11507     11509     11511     11507     11509     11512     11511     11509     11512
     11520     11518     11524     11520     11518     11525     11520     11518     11526
     11524     11518     11525     11524     11518     11526     11525     11518     11526
     11518     11520     11522     11518     11520     11523     11522     11520     11523
     11531     11529     11535     11531     11529     11536     11531     11529     11537
     11535     11529     11536     11535     11529     11537     11536     11529     11537
     11529     11531     11533     11529     11531     11534     11533     11531     11534
     11542     11540     11546     11542     11540     11547     11542     11540     11548
     11546     11540     11547     11546     11540     11548     11547     11540     11548
     11540     11542     11544     11540     11542     11545     11544     11542     11545
     11553     11551     11557     11553     11551     11558     11553     11551     11559
     11557     11551     11558     11557     11551     11559     11558     11551     11559
     11551     11553     11555     11551     11553     11556     11555     11553     11556
     11564     11562     11568     11564     11562     11569     11564     11562     11570
     11568     11562     11569     11568     11562     11570     11569     11562     11570
     11562     11564     11566     11562     11564     11567     11566     11564     11567
     11575     11573     11579     11575     11573     11580     11575     11573     11581
     11579     11573     11580     11579     11573     11581     11580     11573     11581
     11573     11575     11577     11573     11575     11578     11577     11575     11578
     11586     11584     11590     11586     11584     11591     11586     11584     11592
     11590     11584     11591     11590     11584     11592     11591     11584     11592
     11584     11586     11588     11584     11586     11589     11588     11586     11589
     11597     11595     11601     11597     11595     11602     11597     11595     11603
     11601     11595     11602     11601     11595     11603     11602     11595     11603
     11595     11597     11599     11595     11597     11600     11599     11597     11600
     11608     11606     11612     11608     11606     11613     11608     11606     11614
     11612     11606     11613     11612     11606     11614     11613     11606     11614
     11606     11608     11610     11606     11608     11611     11610     11608     11611
     11619     11617     11623     11619     11617     11624     11619     11617     11625
     11623     11617     11624     11623     11617     11625     11624     11617     11625
     11617     11619     11621     11617     11619     11622     11621     11619     11622
     11630     11628     11634     11630     11628     11635     11630     11628     11636
     11634     11628     11635     11634     11628     11636     11635     11628     11636
     11628     11630     11632     11628     11630     11633     11632     11630     11633
     11641     11639     11645     11641     11639     11646     11641     11639     11647
     11645     11639     11646     11645     11639     11647     11646     11639     11647
     11639     11641     11643     11639     11641     11644     11643     11641     11644
     11652     11650     11656     11652     11650     11657     11652     11650     11658
     11656     11650     11657     11656     11650     11658     11657     11650     11658
     11650     11652     11654     11650     11652     11655     11654     11652     11655
     11663     11661     11667     11663     11661     11668     11663     11661     11669
     11667     11661     11668     11667     11661     11669     11668     11661     11669
     11661     11663     11665     11661     11663     11666     11665     11663     11666
     11674     11672     11678     11674     11672     11679     11674     11672     11680
     11678     11672     11679     11678     11672     11680     11679     11672     11680
     11672     11674     11676     11672     11674     11677     11676     11674     11677
     11685     11683     11689     11685     11683     11690     11685     11683     11691
     11689     11683     11690     11689     11683     11691     11690     11683     11691
     11683     11685     11687     11683     11685     11688     11687     11685     11688
     11696     11694     11700     11696     11694     11701     11696     11694     11702
     11700     11694     11701     11700     11694     11702     11701     11694     11702
     11694     11696     11698     11694     11696     11699     11698     11696     11699
     11707     11705     11711     11707     11705     11712     11707     11705     11713
     11711     11705     11712     11711     11705     11713     11712     11705     11713
     11705     11707     11709     11705     11707     11710     11709     11707     11710
     11718     11716     11722     11718     11716     11723     11718     11716     11724
     11722     11716     11723     11722     11716     11724     11723     11716     11724
     11716     11718     11720     11716     11718     11721     11720     11718     11721
     11729     11727     11733     11729     11727     11734     11729     11727     11735
     11733     11727     11734     11733     11727     11735     11734     11727     11735
     11727     11729     11731     11727     11729     11732     11731     11729     11732
     11740     11738     11744     11740     11738     11745     11740     11738     11746
     11744     11738     11745     11744     11738     11746     11745     11738     11746
     11738     11740     11742     11738     11740     11743     11742     11740     11743
     11751     11749     11755     11751     11749     11756     11751     11749     11757
     11755     11749     11756     11755     11749     11757     11756     11749     11757
     11749     11751     11753     11749     11751     11754     11753     11751     11754
     11762     11760     11766     11762     11760     11767     11762     11760     11768
     11766     11760     11767     11766     11760     11768     11767     11760     11768
     11760     11762     11764     11760     11762     11765     11764     11762     11765
     11773     11771     11777     11773     11771     11778     11773     11771     11779
     11777     11771     11778     11777     11771     11779     11778     11771     11779
     11771     11773     11775     11771     11773     11776     11775     11773     11776
     11784     11782     11788     11784     11782     11789     11784     11782     11790
     11788     11782     11789     11788     11782     11790     11789     11782     11790
     11782     11784     11786     11782     11784     11787     11786     11784     11787
     11795     11793     11799     11795     11793     11800     11795     11793     11801
     11799     11793     11800     11799     11793     11801     11800     11793     11801
     11793     11795     11797     11793     11795     11798     11797     11795     11798
     11806     11804     11810     11806     11804     11811     11806     11804     11812
     11810     11804     11811     11810     11804     11812     11811     11804     11812
     11804     11806     11808     11804     11806     11809     11808     11806     11809
     11817     11815     11821     11817     11815     11822     11817     11815     11823
     11821     11815     11822     11821     11815     11823     11822     11815     11823
     11815     11817     11819     11815     11817     11820     11819     11817     11820
     11828     11826     11832     11828     11826     11833     11828     11826     11834
     11832     11826     11833     11832     11826     11834     11833     11826     11834
     11826     11828     11830     11826     11828     11831     11830     11828     11831
     11839     11837     11843     11839     11837     11844     11839     11837     11845
     11843     11837     11844     11843     11837     11845     11844     11837     11845
     11837     11839     11841     11837     11839     11842     11841     11839     11842
     11850     11848     11854     11850     11848     11855     11850     11848     11856
     11854     11848     11855     11854     11848     11856     11855     11848     11856
     11848     11850     11852     11848     11850     11853     11852     11850     11853
     11861     11859     11865     11861     11859     11866     11861     11859     11867
     11865     11859     11866     11865     11859     11867     11866     11859     11867
     11859     11861     11863     11859     11861     11864     11863     11861     11864
     11872     11870     11876     11872     11870     11877     11872     11870     11878
     11876     11870     11877     11876     11870     11878     11877     11870     11878
     11870     11872     11874     11870     11872     11875     11874     11872     11875
     11883     11881     11887     11883     11881     11888     11883     11881     11889
     11887     11881     11888     11887     11881     11889     11888     11881     11889
     11881     11883     11885     11881     11883     11886     11885     11883     11886
     11894     11892     11898     11894     11892     11899     11894     11892     11900
     11898     11892     11899     11898     11892     11900     11899     11892     11900
     11892     11894     11896     11892     11894     11897     11896     11894     11897
     11905     11903     11909     11905     11903     11910     11905     11903     11911
     11909     11903     11910     11909     11903     11911     11910     11903     11911
     11903     11905     11907     11903     11905     11908     11907     11905     11908
     11916     11914     11920     11916     11914     11921     11916     11914     11922
     11920     11914     11921     11920     11914     11922     11921     11914     11922
     11914     11916     11918     11914     11916     11919     11918     11916     11919
     11927     11925     11931     11927     11925     11932     11927     11925     11933
     11931     11925     11932     11931     11925     11933     11932     11925     11933
     11925     11927     11929     11925     11927     11930     11929     11927     11930
     11938     11936     11942     11938     11936     11943     11938     11936     11944
     11942     11936     11943     11942     11936     11944     11943     11936     11944
     11936     11938     11940     11936     11938     11941     11940     11938     11941
     11949     11947     11953     11949     11947     11954     11949     11947     11955
     11953     11947     11954     11953     11947     11955     11954     11947     11955
     11947     11949     11951     11947     11949     11952     11951     11949     11952
     11960     11958     11964     11960     11958     11965     11960     11958     11966
     11964     11958     11965     11964     11958     11966     11965     11958     11966
     11958     11960     11962     11958     11960     11963     11962     11960     11963
     11971     11969     11975     11971     11969     11976     11971     11969     11977
     11975     11969     11976     11975     11969     11977     11976     11969     11977
     11969     11971     11973     11969     11971     11974     11973     11971     11974
     11982     11980     11986     11982     11980     11987     11982     11980     11988
     11986     11980     11987     11986     11980     11988     11987     11980     11988
     11980     11982     11984     11980     11982     11985     11984     11982     11985
     11993     11991     11997     11993     11991     11998     11993     11991     11999
     11997     11991     11998     11997     11991     11999     11998     11991     11999
     11991     11993     11995     11991     11993     11996     11995     11993     11996
     12004     12002     12008     12004     12002     12009     12004     12002     12010
     12008     12002     12009     12008     12002     12010     12009     12002     12010
     12002     12004     12006     12002     12004     12007     12006     12004     12007
     12015     12013     12019     12015     12013     12020     12015     12013     12021
     12019     12013     12020     12019     12013     12021     12020     12013     12021
     12013     12015     12017     12013     12015     12018     12017     12015     12018
     12026     12024     12030     12026     12024     12031     12026     12024     12032
     12030     12024     12031     12030     12024     12032     12031     12024     12032
     12024     12026     12028     12024     12026     12029     12028     12026     12029
     12037     12035     12041     12037     12035     12042     12037     12035     12043
     12041     12035     12042     12041     12035     12043     12042     12035     12043
     12035     12037     12039     12035     12037     12040     12039     12037     12040
     12048     12046     12052     12048     12046     12053     12048     12046     12054
     12052     12046     12053     12052     12046     12054     12053     12046     12054
     12046     12048     12050     12046     12048     12051     12050     12048     12051
     12059     12057     12063     12059     12057     12064     12059     12057     12065
     12063     12057     12064     12063     12057     12065     12064     12057     12065
     12057     12059     12061     12057     12059     12062     12061     12059     12062
     12070     12068     12074     12070     12068     12075     12070     12068     12076
     12074     12068     12075     12074     12068     12076     12075     12068     12076
     12068     12070     12072     12068     12070     12073     12072     12070     12073
     12081     12079     12085     12081     12079     12086     12081     12079     12087
     12085     12079     12086     12085     12079     12087     12086     12079     12087
     12079     12081     12083     12079     12081     12084     12083     12081     12084
     12092     12090     12096     12092     12090     12097     12092     12090     12098
     12096     12090     12097     12096     12090     12098     12097     12090     12098
     12090     12092     12094     12090     12092     12095     12094     12092     12095
     12103     12101     12107     12103     12101     12108     12103     12101     12109
     12107     12101     12108     12107     12101     12109     12108     12101     12109
     12101     12103     12105     12101     12103     12106     12105     12103     12106
     12114     12112     12118     12114     12112     12119     12114     12112     12120
     12118     12112     12119     12118     12112     12120     12119     12112     12120
     12112     12114     12116     12112     12114     12117     12116     12114     12117
     12125     12123     12129     12125     12123     12130     12125     12123     12131
     12129     12123     12130     12129     12123     12131     12130     12123     12131
     12123     12125     12127     12123     12125     12128     12127     12125     12128
     12136     12134     12140     12136     12134     12141     12136     12134     12142
     12140     12134     12141     12140     12134     12142     12141     12134     12142
     12134     12136     12138     12134     12136     12139     12138     12136     12139
     12147     12145     12151     12147     12145     12152     12147     12145     12153
     12151     12145     12152     12151     12145     12153     12152     12145     12153
     12145     12147     12149     12145     12147     12150     12149     12147     12150
     12158     12156     12162     12158     12156     12163     12158     12156     12164
     12162     12156     12163     12162     12156     12164     12163     12156     12164
     12156     12158     12160     12156     12158     12161     12160     12158     12161
     12169     12167     12173     12169     12167     12174     12169     12167     12175
     12173     12167     12174     12173     12167     12175     12174     12167     12175
     12167     12169     12171     12167     12169     12172     12171     12169     12172
     12180     12178     12184     12180     12178     12185     12180     12178     12186
     12184     12178     12185     12184     12178     12186     12185     12178     12186
     12178     12180     12182     12178     12180     12183     12182     12180     12183
     12191     12189     12195     12191     12189     12196     12191     12189     12197
     12195     12189     12196     12195     12189     12197     12196     12189     12197
     12189     12191     12193     12189     12191     12194     12193     12191     12194
     12202     12200     12206     12202     12200     12207     12202     12200     12208
     12206     12200     12207     12206     12200     12208     12207     12200     12208
     12200     12202     12204     12200     12202     12205     12204     12202     12205
     12213     12211     12217     12213     12211     12218     12213     12211     12219
     12217     12211     12218     12217     12211     12219     12218     12211     12219
     12211     12213     12215     12211     12213     12216     12215     12213     12216
     12224     12222     12228     12224     12222     12229     12224     12222     12230
     12228     12222     12229     12228     12222     12230     12229     12222     12230
     12222     12224     12226     12222     12224     12227     12226     12224     12227
     12235     12233     12239     12235     12233     12240     12235     12233     12241
     12239     12233     12240     12239     12233     12241     12240     12233     12241
     12233     12235     12237     12233     12235     12238     12237     12235     12238
     12246     12244     12250     12246     12244     12251     12246     12244     12252
     12250     12244     12251     12250     12244     12252     12251     12244     12252
     12244     12246     12248     12244     12246     12249     12248     12246     12249
     12257     12255     12261     12257     12255     12262     12257     12255     12263
     12261     12255     12262     12261     12255     12263     12262     12255     12263
     12255     12257     12259     12255     12257     12260     12259     12257     12260
     12268     12266     12272     12268     12266     12273     12268     12266     12274
     12272     12266     12273     12272     12266     12274     12273     12266     12274
     12266     12268     12270     12266     12268     12271     12270     12268     12271
     12279     12277     12283     12279     12277     12284     12279     12277     12285
     12283     12277     12284     12283     12277     12285     12284     12277     12285
     12277     12279     12281     12277     12279     12282     12281     12279     12282
     12290     12288     12294     12290     12288     12295     12290     12288     12296
     12294     12288     12295     12294     12288     12296     12295     12288     12296
     12288     12290     12292     12288     12290     12293     12292     12290     12293
     12301     12299     12305     12301     12299     12306     12301     12299     12307
     12305     12299     12306     12305     12299     12307     12306     12299     12307
     12299     12301     12303     12299     12301     12304     12303     12301     12304
     12312     12310     12316     12312     12310     12317     12312     12310     12318
     12316     12310     12317     12316     12310     12318     12317     12310     12318
     12310     12312     12314     12310     12312     12315     12314     12312     12315
     12323     12321     12327     12323     12321     12328     12323     12321     12329
     12327     12321     12328     12327     12321     12329     12328     12321     12329
     12321     12323     12325     12321     12323     12326     12325     12323     12326
     12334     12332     12338     12334     12332     12339     12334     12332     12340
     12338     12332     12339     12338     12332     12340     12339     12332     12340
     12332     12334     12336     12332     12334     12337     12336     12334     12337
     12345     12343     12349     12345     12343     12350     12345     12343     12351
     12349     12343     12350     12349     12343     12351     12350     12343     12351
     12343     12345     12347     12343     12345     12348     12347     12345     12348
     12356     12354     12360     12356     12354     12361     12356     12354     12362
     12360     12354     12361     12360     12354     12362     12361     12354     12362
     12354     12356     12358     12354     12356     12359     12358     12356     12359
     12367     12365     12371     12367     12365     12372     12367     12365     12373
     12371     12365     12372     12371     12365     12373     12372     12365     12373
     12365     12367     12369     12365     12367     12370     12369     12367     12370
     12378     12376     12382     12378     12376     12383     12378     12376     12384
     12382     12376     12383     12382     12376     12384     12383     12376     12384
     12376     12378     12380     12376     12378     12381     12380     12378     12381
     12389     12387     12393     12389     12387     12394     12389     12387     12395
     12393     12387     12394     12393     12387     12395     12394     12387     12395
     12387     12389     12391     12387     12389     12392     12391     12389     12392
     12400     12398     12404     12400     12398     12405     12400     12398     12406
     12404     12398     12405     12404     12398     12406     12405     12398     12406
     12398     12400     12402     12398     12400     12403     12402     12400     12403
     12411     12409     12415     12411     12409     12416     12411     12409     12417
     12415     12409     12416     12415     12409     12417     12416     12409     12417
     12409     12411     12413     12409     12411     12414     12413     12411     12414
     12422     12420     12426     12422     12420     12427     12422     12420     12428
     12426     12420     12427     12426     12420     12428     12427     12420     12428
     12420     12422     12424     12420     12422     12425     12424     12422     12425
     12433     12431     12437     12433     12431     12438     12433     12431     12439
     12437     12431     12438     12437     12431     12439     12438     12431     12439
     12431     12433     12435     12431     12433     12436     12435     12433     12436
     12444     12442     12448     12444     12442     12449     12444     12442     12450
     12448     12442     12449     12448     12442     12450     12449     12442     12450
     12442     12444     12446     12442     12444     12447     12446     12444     12447
     12455     12453     12459     12455     12453     12460     12455     12453     12461
     12459     12453     12460     12459     12453     12461     12460     12453     12461
     12453     12455     12457     12453     12455     12458     12457     12455     12458
     12466     12464     12470     12466     12464     12471     12466     12464     12472
     12470     12464     12471     12470     12464     12472     12471     12464     12472
     12464     12466     12468     12464     12466     12469     12468     12466     12469
     12477     12475     12481     12477     12475     12482     12477     12475     12483
     12481     12475     12482     12481     12475     12483     12482     12475     12483
     12475     12477     12479     12475     12477     12480     12479     12477     12480
     12488     12486     12492     12488     12486     12493     12488     12486     12494
     12492     12486     12493     12492     12486     12494     12493     12486     12494
     12486     12488     12490     12486     12488     12491     12490     12488     12491
     12499     12497     12503     12499     12497     12504     12499     12497     12505
     12503     12497     12504     12503     12497     12505     12504     12497     12505
     12497     12499     12501     12497     12499     12502     12501     12499     12502
     12510     12508     12514     12510     12508     12515     12510     12508     12516
     12514     12508     12515     12514     12508     12516     12515     12508     12516
     12508     12510     12512     12508     12510     12513     12512     12510     12513
     12521     12519     12525     12521     12519     12526     12521     12519     12527
     12525     12519     12526     12525     12519     12527     12526     12519     12527
     12519     12521     12523     12519     12521     12524     12523     12521     12524
     12532     12530     12536     12532     12530     12537     12532     12530     12538
     12536     12530     12537     12536     12530     12538     12537     12530     12538
     12530     12532     12534     12530     12532     12535     12534     12532     12535
     12543     12541     12547     12543     12541     12548     12543     12541     12549
     12547     12541     12548     12547     12541     12549     12548     12541     12549
     12541     12543     12545     12541     12543     12546     12545     12543     12546
     12554     12552     12558     12554     12552     12559     12554     12552     12560
     12558     12552     12559     12558     12552     12560     12559     12552     12560
     12552     12554     12556     12552     12554     12557     12556     12554     12557
     12565     12563     12569     12565     12563     12570     12565     12563     12571
     12569     12563     12570     12569     12563     12571     12570     12563     12571
     12563     12565     12567     12563     12565     12568     12567     12565     12568
     12576     12574     12580     12576     12574     12581     12576     12574     12582
     12580     12574     12581     12580     12574     12582     12581     12574     12582
     12574     12576     12578     12574     12576     12579     12578     12576     12579
     12587     12585     12591     12587     12585     12592     12587     12585     12593
     12591     12585     12592     12591     12585     12593     12592     12585     12593
     12585     12587     12589     12585     12587     12590     12589     12587     12590
     12598     12596     12602     12598     12596     12603     12598     12596     12604
     12602     12596     12603     12602     12596     12604     12603     12596     12604
     12596     12598     12600     12596     12598     12601     12600     12598     12601
     12609     12607     12613     12609     12607     12614     12609     12607     12615
     12613     12607     12614     12613     12607     12615     12614     12607     12615
     12607     12609     12611     12607     12609     12612     12611     12609     12612
     12620     12618     12624     12620     12618     12625     12620     12618     12626
     12624     12618     12625     12624     12618     12626     12625     12618     12626
     12618     12620     12622     12618     12620     12623     12622     12620     12623
     12631     12629     12635     12631     12629     12636     12631     12629     12637
     12635     12629     12636     12635     12629     12637     12636     12629     12637
     12629     12631     12633     12629     12631     12634     12633     12631     12634
     12642     12640     12646     12642     12640     12647     12642     12640     12648
     12646     12640     12647     12646     12640     12648     12647     12640     12648
     12640     12642     12644     12640     12642     12645     12644     12642     12645
     12653     12651     12657     12653     12651     12658     12653     12651     12659
     12657     12651     12658     12657     12651     12659     12658     12651     12659
     12651     12653     12655     12651     12653     12656     12655     12653     12656
     12664     12662     12668     12664     12662     12669     12664     12662     12670
     12668     12662     12669     12668     12662     12670     12669     12662     12670
     12662     12664     12666     12662     12664     12667     12666     12664     12667
     12675     12673     12679     12675     12673     12680     12675     12673     12681
     12679     12673     12680     12679     12673     12681     12680     12673     12681
     12673     12675     12677     12673     12675     12678     12677     12675     12678
     12686     12684     12690     12686     12684     12691     12686     12684     12692
     12690     12684     12691     12690     12684     12692     12691     12684     12692
     12684     12686     12688     12684     12686     12689     12688     12686     12689
     12697     12695     12701     12697     12695     12702     12697     12695     12703
     12701     12695     12702     12701     12695     12703     12702     12695     12703
     12695     12697     12699     12695     12697     12700     12699     12697     12700
     12708     12706     12712     12708     12706     12713     12708     12706     12714
     12712     12706     12713     12712     12706     12714     12713     12706     12714
     12706     12708     12710     12706     12708     12711     12710     12708     12711
     12719     12717     12723     12719     12717     12724     12719     12717     12725
     12723     12717     12724     12723     12717     12725     12724     12717     12725
     12717     12719     12721     12717     12719     12722     12721     12719     12722
     12730     12728     12734     12730     12728     12735     12730     12728     12736
     12734     12728     12735     12734     12728     12736     12735     12728     12736
     12728     12730     12732     12728     12730     12733     12732     12730     12733
     12741     12739     12745     12741     12739     12746     12741     12739     12747
     12745     12739     12746     12745     12739     12747     12746     12739     12747
     12739     12741     12743     12739     12741     12744     12743     12741     12744
     12752     12750     12756     12752     12750     12757     12752     12750     12758
     12756     12750     12757     12756     12750     12758     12757     12750     12758
     12750     12752     12754     12750     12752     12755     12754     12752     12755
     12763     12761     12767     12763     12761     12768     12763     12761     12769
     12767     12761     12768     12767     12761     12769     12768     12761     12769
     12761     12763     12765     12761     12763     12766     12765     12763     12766
     12774     12772     12778     12774     12772     12779     12774     12772     12780
     12778     12772     12779     12778     12772     12780     12779     12772     12780
     12772     12774     12776     12772     12774     12777     12776     12774     12777
     12785     12783     12789     12785     12783     12790     12785     12783     12791
     12789     12783     12790     12789     12783     12791     12790     12783     12791
     12783     12785     12787     12783     12785     12788     12787     12785     12788
     12796     12794     12800     12796     12794     12801     12796     12794     12802
     12800     12794     12801     12800     12794     12802     12801     12794     12802
     12794     12796     12798     12794     12796     12799     12798     12796     12799
     12807     12805     12811     12807     12805     12812     12807     12805     12813
     12811     12805     12812     12811     12805     12813     12812     12805     12813
     12805     12807     12809     12805     12807     12810     12809     12807     12810
     12818     12816     12822     12818     12816     12823     12818     12816     12824
     12822     12816     12823     12822     12816     12824     12823     12816     12824
     12816     12818     12820     12816     12818     12821     12820     12818     12821
     12829     12827     12833     12829     12827     12834     12829     12827     12835
     12833     12827     12834     12833     12827     12835     12834     12827     12835
     12827     12829     12831     12827     12829     12832     12831     12829     12832
     12840     12838     12844     12840     12838     12845     12840     12838     12846
     12844     12838     12845     12844     12838     12846     12845     12838     12846
     12838     12840     12842     12838     12840     12843     12842     12840     12843
     12851     12849     12855     12851     12849     12856     12851     12849     12857
     12855     12849     12856     12855     12849     12857     12856     12849     12857
     12849     12851     12853     12849     12851     12854     12853     12851     12854
     12862     12860     12866     12862     12860     12867     12862     12860     12868
     12866     12860     12867     12866     12860     12868     12867     12860     12868
     12860     12862     12864     12860     12862     12865     12864     12862     12865
     12873     12871     12877     12873     12871     12878     12873     12871     12879
     12877     12871     12878     12877     12871     12879     12878     12871     12879
     12871     12873     12875     12871     12873     12876     12875     12873     12876
     12884     12882     12888     12884     12882     12889     12884     12882     12890
     12888     12882     12889     12888     12882     12890     12889     12882     12890
     12882     12884     12886     12882     12884     12887     12886     12884     12887
     12895     12893     12899     12895     12893     12900     12895     12893     12901
     12899     12893     12900     12899     12893     12901     12900     12893     12901
     12893     12895     12897     12893     12895     12898     12897     12895     12898
     12906     12904     12910     12906     12904     12911     12906     12904     12912
     12910     12904     12911     12910     12904     12912     12911     12904     12912
     12904     12906     12908     12904     12906     12909     12908     12906     12909
     12917     12915     12921     12917     12915     12922     12917     12915     12923
     12921     12915     12922     12921     12915     12923     12922     12915     12923
     12915     12917     12919     12915     12917     12920     12919     12917     12920
     12928     12926     12932     12928     12926     12933     12928     12926     12934
     12932     12926     12933     12932     12926     12934     12933     12926     12934
     12926     12928     12930     12926     12928     12931     12930     12928     12931
     12939     12937     12943     12939     12937     12944     12939     12937     12945
     12943     12937     12944     12943     12937     12945     12944     12937     12945
     12937     12939     12941     12937     12939     12942     12941     12939     12942
     12950     12948     12954     12950     12948     12955     12950     12948     12956
     12954     12948     12955     12954     12948     12956     12955     12948     12956
     12948     12950     12952     12948     12950     12953     12952     12950     12953
     12961     12959     12965     12961     12959     12966     12961     12959     12967
     12965     12959     12966     12965     12959     12967     12966     12959     12967
     12959     12961     12963     12959     12961     12964     12963     12961     12964
     12972     12970     12976     12972     12970     12977     12972     12970     12978
     12976     12970     12977     12976     12970     12978     12977     12970     12978
     12970     12972     12974     12970     12972     12975     12974     12972     12975
     12983     12981     12987     12983     12981     12988     12983     12981     12989
     12987     12981     12988     12987     12981     12989     12988     12981     12989
     12981     12983     12985     12981     12983     12986     12985     12983     12986
     12994     12992     12998     12994     12992     12999     12994     12992     13000
     12998     12992     12999     12998     12992     13000     12999     12992     13000
     12992     12994     12996     12992     12994     12997     12996     12994     12997
     13005     13003     13009     13005     13003     13010     13005     13003     13011
     13009     13003     13010     13009     13003     13011     13010     13003     13011
     13003     13005     13007     13003     13005     13008     13007     13005     13008
     13016     13014     13020     13016     13014     13021     13016     13014     13022
     13020     13014     13021     13020     13014     13022     13021     13014     13022
     13014     13016     13018     13014     13016     13019     13018     13016     13019
     13027     13025     13031     13027     13025     13032     13027     13025     13033
     13031     13025     13032     13031     13025     13033     13032     13025     13033
     13025     13027     13029     13025     13027     13030     13029     13027     13030
     13038     13036     13042     13038     13036     13043     13038     13036     13044
     13042     13036     13043     13042     13036     13044     13043     13036     13044
     13036     13038     13040     13036     13038     13041     13040     13038     13041
     13049     13047     13053     13049     13047     13054     13049     13047     13055
     13053     13047     13054     13053     13047     13055     13054     13047     13055
     13047     13049     13051     13047     13049     13052     13051     13049     13052
     13060     13058     13064     13060     13058     13065     13060     13058     13066
     13064     13058     13065     13064     13058     13066     13065     13058     13066
     13058     13060     13062     13058     13060     13063     13062     13060     13063
     13071     13069     13075     13071     13069     13076     13071     13069     13077
     13075     13069     13076     13075     13069     13077     13076     13069     13077
     13069     13071     13073     13069     13071     13074     13073     13071     13074
     13082     13080     13086     13082     13080     13087     13082     13080     13088
     13086     13080     13087     13086     13080     13088     13087     13080     13088
     13080     13082     13084     13080     13082     13085     13084     13082     13085
     13093     13091     13097     13093     13091     13098     13093     13091     13099
     13097     13091     13098     13097     13091     13099     13098     13091     13099
     13091     13093     13095     13091     13093     13096     13095     13093     13096
     13104     13102     13108     13104     13102     13109     13104     13102     13110
     13108     13102     13109     13108     13102     13110     13109     13102     13110
     13102     13104     13106     13102     13104     13107     13106     13104     13107
     13115     13113     13119     13115     13113     13120     13115     13113     13121
     13119     13113     13120     13119     13113     13121     13120     13113     13121
     13113     13115     13117     13113     13115     13118     13117     13115     13118
     13126     13124     13130     13126     13124     13131     13126     13124     13132
     13130     13124     13131     13130     13124     13132     13131     13124     13132
     13124     13126     13128     13124     13126     13129     13128     13126     13129
     13137     13135     13141     13137     13135     13142     13137     13135     13143
     13141     13135     13142     13141     13135     13143     13142     13135     13143
     13135     13137     13139     13135     13137     13140     13139     13137     13140
     13148     13146     13152     13148     13146     13153     13148     13146     13154
     13152     13146     13153     13152     13146     13154     13153     13146     13154
     13146     13148     13150     13146     13148     13151     13150     13148     13151
     13159     13157     13163     13159     13157     13164     13159     13157     13165
     13163     13157     13164     13163     13157     13165     13164     13157     13165
     13157     13159     13161     13157     13159     13162     13161     13159     13162
     13170     13168     13174     13170     13168     13175     13170     13168     13176
     13174     13168     13175     13174     13168     13176     13175     13168     13176
     13168     13170     13172     13168     13170     13173     13172     13170     13173
     13181     13179     13185     13181     13179     13186     13181     13179     13187
     13185     13179     13186     13185     13179     13187     13186     13179     13187
     13179     13181     13183     13179     13181     13184     13183     13181     13184
     13192     13190     13196     13192     13190     13197     13192     13190     13198
     13196     13190     13197     13196     13190     13198     13197     13190     13198
     13190     13192     13194     13190     13192     13195     13194     13192     13195
     13203     13201     13207     13203     13201     13208     13203     13201     13209
     13207     13201     13208     13207     13201     13209     13208     13201     13209
     13201     13203     13205     13201     13203     13206     13205     13203     13206
     13214     13212     13218     13214     13212     13219     13214     13212     13220
     13218     13212     13219     13218     13212     13220     13219     13212     13220
     13212     13214     13216     13212     13214     13217     13216     13214     13217
     13225     13223     13229     13225     13223     13230     13225     13223     13231
     13229     13223     13230     13229     13223     13231     13230     13223     13231
     13223     13225     13227     13223     13225     13228     13227     13225     13228
     13236     13234     13240     13236     13234     13241     13236     13234     13242
     13240     13234     13241     13240     13234     13242     13241     13234     13242
     13234     13236     13238     13234     13236     13239     13238     13236     13239
     13247     13245     13251     13247     13245     13252     13247     13245     13253
     13251     13245     13252     13251     13245     13253     13252     13245     13253
     13245     13247     13249     13245     13247     13250     13249     13247     13250
     13258     13256     13262     13258     13256     13263     13258     13256     13264
     13262     13256     13263     13262     13256     13264     13263     13256     13264
     13256     13258     13260     13256     13258     13261     13260     13258     13261
     13269     13267     13273     13269     13267     13274     13269     13267     13275
     13273     13267     13274     13273     13267     13275     13274     13267     13275
     13267     13269     13271     13267     13269     13272     13271     13269     13272
     13280     13278     13284     13280     13278     13285     13280     13278     13286
     13284     13278     13285     13284     13278     13286     13285     13278     13286
     13278     13280     13282     13278     13280     13283     13282     13280     13283
     13291     13289     13295     13291     13289     13296     13291     13289     13297
     13295     13289     13296     13295     13289     13297     13296     13289     13297
     13289     13291     13293     13289     13291     13294     13293     13291     13294
     13302     13300     13306     13302     13300     13307     13302     13300     13308
     13306     13300     13307     13306     13300     13308     13307     13300     13308
     13300     13302     13304     13300     13302     13305     13304     13302     13305
     13313     13311     13317     13313     13311     13318     13313     13311     13319
     13317     13311     13318     13317     13311     13319     13318     13311     13319
     13311     13313     13315     13311     13313     13316     13315     13313     13316
     13324     13322     13328     13324     13322     13329     13324     13322     13330
     13328     13322     13329     13328     13322     13330     13329     13322     13330
     13322     13324     13326     13322     13324     13327     13326     13324     13327
     13335     13333     13339     13335     13333     13340     13335     13333     13341
     13339     13333     13340     13339     13333     13341     13340     13333     13341
     13333     13335     13337     13333     13335     13338     13337     13335     13338
     13346     13344     13350     13346     13344     13351     13346     13344     13352
     13350     13344     13351     13350     13344     13352     13351     13344     13352
     13344     13346     13348     13344     13346     13349     13348     13346     13349
     13357     13355     13361     13357     13355     13362     13357     13355     13363
     13361     13355     13362     13361     13355     13363     13362     13355     13363
     13355     13357     13359     13355     13357     13360     13359     13357     13360
     13368     13366     13372     13368     13366     13373     13368     13366     13374
     13372     13366     13373     13372     13366     13374     13373     13366     13374
     13366     13368     13370     13366     13368     13371     13370     13368     13371
     13379     13377     13383     13379     13377     13384     13379     13377     13385
     13383     13377     13384     13383     13377     13385     13384     13377     13385
     13377     13379     13381     13377     13379     13382     13381     13379     13382
     13390     13388     13394     13390     13388     13395     13390     13388     13396
     13394     13388     13395     13394     13388     13396     13395     13388     13396
     13388     13390     13392     13388     13390     13393     13392     13390     13393
     13401     13399     13405     13401     13399     13406     13401     13399     13407
     13405     13399     13406     13405     13399     13407     13406     13399     13407
     13399     13401     13403     13399     13401     13404     13403     13401     13404
     13412     13410     13416     13412     13410     13417     13412     13410     13418
     13416     13410     13417     13416     13410     13418     13417     13410     13418
     13410     13412     13414     13410     13412     13415     13414     13412     13415
     13423     13421     13427     13423     13421     13428     13423     13421     13429
     13427     13421     13428     13427     13421     13429     13428     13421     13429
     13421     13423     13425     13421     13423     13426     13425     13423     13426
     13434     13432     13438     13434     13432     13439     13434     13432     13440
     13438     13432     13439     13438     13432     13440     13439     13432     13440
     13432     13434     13436     13432     13434     13437     13436     13434     13437
     13445     13443     13449     13445     13443     13450     13445     13443     13451
     13449     13443     13450     13449     13443     13451     13450     13443     13451
     13443     13445     13447     13443     13445     13448     13447     13445     13448
     13456     13454     13460     13456     13454     13461     13456     13454     13462
     13460     13454     13461     13460     13454     13462     13461     13454     13462
     13454     13456     13458     13454     13456     13459     13458     13456     13459
     13467     13465     13471     13467     13465     13472     13467     13465     13473
     13471     13465     13472     13471     13465     13473     13472     13465     13473
     13465     13467     13469     13465     13467     13470     13469     13467     13470
     13478     13476     13482     13478     13476     13483     13478     13476     13484
     13482     13476     13483     13482     13476     13484     13483     13476     13484
     13476     13478     13480     13476     13478     13481     13480     13478     13481
     13489     13487     13493     13489     13487     13494     13489     13487     13495
     13493     13487     13494     13493     13487     13495     13494     13487     13495
     13487     13489     13491     13487     13489     13492     13491     13489     13492
     13500     13498     13504     13500     13498     13505     13500     13498     13506
     13504     13498     13505     13504     13498     13506     13505     13498     13506
     13498     13500     13502     13498     13500     13503     13502     13500     13503
     13511     13509     13515     13511     13509     13516     13511     13509     13517
     13515     13509     13516     13515     13509     13517     13516     13509     13517
     13509     13511     13513     13509     13511     13514     13513     13511     13514
     13522     13520     13526     13522     13520     13527     13522     13520     13528
     13526     13520     13527     13526     13520     13528     13527     13520     13528
     13520     13522     13524     13520     13522     13525     13524     13522     13525
     13533     13531     13537     13533     13531     13538     13533     13531     13539
     13537     13531     13538     13537     13531     13539     13538     13531     13539
     13531     13533     13535     13531     13533     13536     13535     13533     13536
     13544     13542     13548     13544     13542     13549     13544     13542     13550
     13548     13542     13549     13548     13542     13550     13549     13542     13550
     13542     13544     13546     13542     13544     13547     13546     13544     13547
     13555     13553     13559     13555     13553     13560     13555     13553     13561
     13559     13553     13560     13559     13553     13561     13560     13553     13561
     13553     13555     13557     13553     13555     13558     13557     13555     13558
     13566     13564     13570     13566     13564     13571     13566     13564     13572
     13570     13564     13571     13570     13564     13572     13571     13564     13572
     13564     13566     13568     13564     13566     13569     13568     13566     13569
     13577     13575     13581     13577     13575     13582     13577     13575     13583
     13581     13575     13582     13581     13575     13583     13582     13575     13583
     13575     13577     13579     13575     13577     13580     13579     13577     13580
     13588     13586     13592     13588     13586     13593     13588     13586     13594
     13592     13586     13593     13592     13586     13594     13593     13586     13594
     13586     13588     13590     13586     13588     13591     13590     13588     13591
     13599     13597     13603     13599     13597     13604     13599     13597     13605
     13603     13597     13604     13603     13597     13605     13604     13597     13605
     13597     13599     13601     13597     13599     13602     13601     13599     13602
     13610     13608     13614     13610     13608     13615     13610     13608     13616
     13614     13608     13615     13614     13608     13616     13615     13608     13616
     13608     13610     13612     13608     13610     13613     13612     13610     13613
     13621     13619     13625     13621     13619     13626     13621     13619     13627
     13625     13619     13626     13625     13619     13627     13626     13619     13627
     13619     13621     13623     13619     13621     13624     13623     13621     13624
     13632     13630     13636     13632     13630     13637     13632     13630     13638
     13636     13630     13637     13636     13630     13638     13637     13630     13638
     13630     13632     13634     13630     13632     13635     13634     13632     13635
     13643     13641     13647     13643     13641     13648     13643     13641     13649
     13647     13641     13648     13647     13641     13649     13648     13641     13649
     13641     13643     13645     13641     13643     13646     13645     13643     13646
     13654     13652     13658     13654     13652     13659     13654     13652     13660
     13658     13652     13659     13658     13652     13660     13659     13652     13660
     13652     13654     13656     13652     13654     13657     13656     13654     13657
     13665     13663     13669     13665     13663     13670     13665     13663     13671
     13669     13663     13670     13669     13663     13671     13670     13663     13671
     13663     13665     13667     13663     13665     13668     13667     13665     13668
     13676     13674     13680     13676     13674     13681     13676     13674     13682
     13680     13674     13681     13680     13674     13682     13681     13674     13682
     13674     13676     13678     13674     13676     13679     13678     13676     13679
     13687     13685     13691     13687     13685     13692     13687     13685     13693
     13691     13685     13692     13691     13685     13693     13692     13685     13693
     13685     13687     13689     13685     13687     13690     13689     13687     13690
     13698     13696     13702     13698     13696     13703     13698     13696     13704
     13702     13696     13703     13702     13696     13704     13703     13696     13704
     13696     13698     13700     13696     13698     13701     13700     13698     13701
     13709     13707     13713     13709     13707     13714     13709     13707     13715
     13713     13707     13714     13713     13707     13715     13714     13707     13715
     13707     13709     13711     13707     13709     13712     13711     13709     13712
     13720     13718     13724     13720     13718     13725     13720     13718     13726
     13724     13718     13725     13724     13718     13726     13725     13718     13726
     13718     13720     13722     13718     13720     13723     13722     13720     13723
     13731     13729     13735     13731     13729     13736     13731     13729     13737
     13735     13729     13736     13735     13729     13737     13736     13729     13737
     13729     13731     13733     13729     13731     13734     13733     13731     13734
     13742     13740     13746     13742     13740     13747     13742     13740     13748
     13746     13740     13747     13746     13740     13748     13747     13740     13748
     13740     13742     13744     13740     13742     13745     13744     13742     13745
     13753     13751     13757     13753     13751     13758     13753     13751     13759
     13757     13751     13758     13757     13751     13759     13758     13751     13759
     13751     13753     13755     13751     13753     13756     13755     13753     13756
     13764     13762     13768     13764     13762     13769     13764     13762     13770
     13768     13762     13769     13768     13762     13770     13769     13762     13770
     13762     13764     13766     13762     13764     13767     13766     13764     13767
     13775     13773     13779     13775     13773     13780     13775     13773     13781
     13779     13773     13780     13779     13773     13781     13780     13773     13781
     13773     13775     13777     13773     13775     13778     13777     13775     13778
     13786     13784     13790     13786     13784     13791     13786     13784     13792
     13790     13784     13791     13790     13784     13792     13791     13784     13792
     13784     13786     13788     13784     13786     13789     13788     13786     13789
     13797     13795     13801     13797     13795     13802     13797     13795     13803
     13801     13795     13802     13801     13795     13803     13802     13795     13803
     13795     13797     13799     13795     13797     13800     13799     13797     13800
     13808     13806     13812     13808     13806     13813     13808     13806     13814
     13812     13806     13813     13812     13806     13814     13813     13806     13814
     13806     13808     13810     13806     13808     13811     13810     13808     13811
     13819     13817     13823     13819     13817     13824     13819     13817     13825
     13823     13817     13824     13823     13817     13825     13824     13817     13825
     13817     13819     13821     13817     13819     13822     13821     13819     13822
     13830     13828     13834     13830     13828     13835     13830     13828     13836
     13834     13828     13835     13834     13828     13836     13835     13828     13836
     13828     13830     13832     13828     13830     13833     13832     13830     13833
     13841     13839     13845     13841     13839     13846     13841     13839     13847
     13845     13839     13846     13845     13839     13847     13846     13839     13847
     13839     13841     13843     13839     13841     13844     13843     13841     13844
     13852     13850     13856     13852     13850     13857     13852     13850     13858
     13856     13850     13857     13856     13850     13858     13857     13850     13858
     13850     13852     13854     13850     13852     13855     13854     13852     13855
     13863     13861     13867     13863     13861     13868     13863     13861     13869
     13867     13861     13868     13867     13861     13869     13868     13861     13869
     13861     13863     13865     13861     13863     13866     13865     13863     13866
     13874     13872     13878     13874     13872     13879     13874     13872     13880
     13878     13872     13879     13878     13872     13880     13879     13872     13880
     13872     13874     13876     13872     13874     13877     13876     13874     13877
     13885     13883     13889     13885     13883     13890     13885     13883     13891
     13889     13883     13890     13889     13883     13891     13890     13883     13891
     13883     13885     13887     13883     13885     13888     13887     13885     13888
     13896     13894     13900     13896     13894     13901     13896     13894     13902
     13900     13894     13901     13900     13894     13902     13901     13894     13902
     13894     13896     13898     13894     13896     13899     13898     13896     13899
     13907     13905     13911     13907     13905     13912     13907     13905     13913
     13911     13905     13912     13911     13905     13913     13912     13905     13913
     13905     13907     13909     13905     13907     13910     13909     13907     13910
     13918     13916     13922     13918     13916     13923     13918     13916     13924
     13922     13916     13923     13922     13916     13924     13923     13916     13924
     13916     13918     13920     13916     13918     13921     13920     13918     13921
     13929     13927     13933     13929     13927     13934     13929     13927     13935
     13933     13927     13934     13933     13927     13935     13934     13927     13935
     13927     13929     13931     13927     13929     13932     13931     13929     13932
     13940     13938     13944     13940     13938     13945     13940     13938     13946
     13944     13938     13945     13944     13938     13946     13945     13938     13946
     13938     13940     13942     13938     13940     13943     13942     13940     13943
     13951     13949     13955     13951     13949     13956     13951     13949     13957
     13955     13949     13956     13955     13949     13957     13956     13949     13957
     13949     13951     13953     13949     13951     13954     13953     13951     13954
     13962     13960     13966     13962     13960     13967     13962     13960     13968
     13966     13960     13967     13966     13960     13968     13967     13960     13968
     13960     13962     13964     13960     13962     13965     13964     13962     13965
     13973     13971     13977     13973     13971     13978     13973     13971     13979
     13977     13971     13978     13977     13971     13979     13978     13971     13979
     13971     13973     13975     13971     13973     13976     13975     13973     13976
     13984     13982     13988     13984     13982     13989     13984     13982     13990
     13988     13982     13989     13988     13982     13990     13989     13982     13990
     13982     13984     13986     13982     13984     13987     13986     13984     13987
     13995     13993     13999     13995     13993     14000     13995     13993     14001
     13999     13993     14000     13999     13993     14001     14000     13993     14001
     13993     13995     13997     13993     13995     13998     13997     13995     13998
     14006     14004     14010     14006     14004     14011     14006     14004     14012
     14010     14004     14011     14010     14004     14012     14011     14004     14012
     14004     14006     14008     14004     14006     14009     14008     14006     14009
     14017     14015     14021     14017     14015     14022     14017     14015     14023
     14021     14015     14022     14021     14015     14023     14022     14015     14023
     14015     14017     14019     14015     14017     14020     14019     14017     14020
     14028     14026     14032     14028     14026     14033     14028     14026     14034
     14032     14026     14033     14032     14026     14034     14033     14026     14034
     14026     14028     14030     14026     14028     14031     14030     14028     14031
     14039     14037     14043     14039     14037     14044     14039     14037     14045
     14043     14037     14044     14043     14037     14045     14044     14037     14045
     14037     14039     14041     14037     14039     14042     14041     14039     14042
     14050     14048     14054     14050     14048     14055     14050     14048     14056
     14054     14048     14055     14054     14048     14056     14055     14048     14056
     14048     14050     14052     14048     14050     14053     14052     14050     14053
     14061     14059     14065     14061     14059     14066     14061     14059     14067
     14065     14059     14066     14065     14059     14067     14066     14059     14067
     14059     14061     14063     14059     14061     14064     14063     14061     14064
     14072     14070     14076     14072     14070     14077     14072     14070     14078
     14076     14070     14077     14076     14070     14078     14077     14070     14078
     14070     14072     14074     14070     14072     14075     14074     14072     14075
     14083     14081     14087     14083     14081     14088     14083     14081     14089
     14087     14081     14088     14087     14081     14089     14088     14081     14089
     14081     14083     14085     14081     14083     14086     14085     14083     14086
     14094     14092     14098     14094     14092     14099     14094     14092     14100
     14098     14092     14099     14098     14092     14100     14099     14092     14100
     14092     14094     14096     14092     14094     14097     14096     14094     14097
     14105     14103     14109     14105     14103     14110     14105     14103     14111
     14109     14103     14110     14109     14103     14111     14110     14103     14111
     14103     14105     14107     14103     14105     14108     14107     14105     14108
     14116     14114     14120     14116     14114     14121     14116     14114     14122
     14120     14114     14121     14120     14114     14122     14121     14114     14122
     14114     14116     14118     14114     14116     14119     14118     14116     14119
     14127     14125     14131     14127     14125     14132     14127     14125     14133
     14131     14125     14132     14131     14125     14133     14132     14125     14133
     14125     14127     14129     14125     14127     14130     14129     14127     14130
     14138     14136     14142     14138     14136     14143     14138     14136     14144
     14142     14136     14143     14142     14136     14144     14143     14136     14144
     14136     14138     14140     14136     14138     14141     14140     14138     14141
     14149     14147     14153     14149     14147     14154     14149     14147     14155
     14153     14147     14154     14153     14147     14155     14154     14147     14155
     14147     14149     14151     14147     14149     14152     14151     14149     14152
     14160     14158     14164     14160     14158     14165     14160     14158     14166
     14164     14158     14165     14164     14158     14166     14165     14158     14166
     14158     14160     14162     14158     14160     14163     14162     14160     14163
     14171     14169     14175     14171     14169     14176     14171     14169     14177
     14175     14169     14176     14175     14169     14177     14176     14169     14177
     14169     14171     14173     14169     14171     14174     14173     14171     14174
     14182     14180     14186     14182     14180     14187     14182     14180     14188
     14186     14180     14187     14186     14180     14188     14187     14180     14188
     14180     14182     14184     14180     14182     14185     14184     14182     14185
     14193     14191     14197     14193     14191     14198     14193     14191     14199
     14197     14191     14198     14197     14191     14199     14198     14191     14199
     14191     14193     14195     14191     14193     14196     14195     14193     14196
     14204     14202     14208     14204     14202     14209     14204     14202     14210
     14208     14202     14209     14208     14202     14210     14209     14202     14210
     14202     14204     14206     14202     14204     14207     14206     14204     14207
     14215     14213     14219     14215     14213     14220     14215     14213     14221
     14219     14213     14220     14219     14213     14221     14220     14213     14221
     14213     14215     14217     14213     14215     14218     14217     14215     14218
     14226     14224     14230     14226     14224     14231     14226     14224     14232
     14230     14224     14231     14230     14224     14232     14231     14224     14232
     14224     14226     14228     14224     14226     14229     14228     14226     14229
     14237     14235     14241     14237     14235     14242     14237     14235     14243
     14241     14235     14242     14241     14235     14243     14242     14235     14243
     14235     14237     14239     14235     14237     14240     14239     14237     14240
     14248     14246     14252     14248     14246     14253     14248     14246     14254
     14252     14246     14253     14252     14246     14254     14253     14246     14254
     14246     14248     14250     14246     14248     14251     14250     14248     14251
     14259     14257     14263     14259     14257     14264     14259     14257     14265
     14263     14257     14264     14263     14257     14265     14264     14257     14265
     14257     14259     14261     14257     14259     14262     14261     14259     14262
     14270     14268     14274     14270     14268     14275     14270     14268     14276
     14274     14268     14275     14274     14268     14276     14275     14268     14276
     14268     14270     14272     14268     14270     14273     14272     14270     14273
     14281     14279     14285     14281     14279     14286     14281     14279     14287
     14285     14279     14286     14285     14279     14287     14286     14279     14287
     14279     14281     14283     14279     14281     14284     14283     14281     14284
     14292     14290     14296     14292     14290     14297     14292     14290     14298
     14296     14290     14297     14296     14290     14298     14297     14290     14298
     14290     14292     14294     14290     14292     14295     14294     14292     14295
     14303     14301     14307     14303     14301     14308     14303     14301     14309
     14307     14301     14308     14307     14301     14309     14308     14301     14309
     14301     14303     14305     14301     14303     14306     14305     14303     14306
     14314     14312     14318     14314     14312     14319     14314     14312     14320
     14318     14312     14319     14318     14312     14320     14319     14312     14320
     14312     14314     14316     14312     14314     14317     14316     14314     14317
     14325     14323     14329     14325     14323     14330     14325     14323     14331
     14329     14323     14330     14329     14323     14331     14330     14323     14331
     14323     14325     14327     14323     14325     14328     14327     14325     14328
     14336     14334     14340     14336     14334     14341     14336     14334     14342
     14340     14334     14341     14340     14334     14342     14341     14334     14342
     14334     14336     14338     14334     14336     14339     14338     14336     14339
     14347     14345     14351     14347     14345     14352     14347     14345     14353
     14351     14345     14352     14351     14345     14353     14352     14345     14353
     14345     14347     14349     14345     14347     14350     14349     14347     14350
     14358     14356     14362     14358     14356     14363     14358     14356     14364
     14362     14356     14363     14362     14356     14364     14363     14356     14364
     14356     14358     14360     14356     14358     14361     14360     14358     14361
     14369     14367     14373     14369     14367     14374     14369     14367     14375
     14373     14367     14374     14373     14367     14375     14374     14367     14375
     14367     14369     14371     14367     14369     14372     14371     14369     14372
     14380     14378     14384     14380     14378     14385     14380     14378     14386
     14384     14378     14385     14384     14378     14386     14385     14378     14386
     14378     14380     14382     14378     14380     14383     14382     14380     14383
     14391     14389     14395     14391     14389     14396     14391     14389     14397
     14395     14389     14396     14395     14389     14397     14396     14389     14397
     14389     14391     14393     14389     14391     14394     14393     14391     14394
     14402     14400     14406     14402     14400     14407     14402     14400     14408
     14406     14400     14407     14406     14400     14408     14407     14400     14408
     14400     14402     14404     14400     14402     14405     14404     14402     14405
     14413     14411     14417     14413     14411     14418     14413     14411     14419
     14417     14411     14418     14417     14411     14419     14418     14411     14419
     14411     14413     14415     14411     14413     14416     14415     14413     14416
     14424     14422     14428     14424     14422     14429     14424     14422     14430
     14428     14422     14429     14428     14422     14430     14429     14422     14430
     14422     14424     14426     14422     14424     14427     14426     14424     14427
     14435     14433     14439     14435     14433     14440     14435     14433     14441
     14439     14433     14440     14439     14433     14441     14440     14433     14441
     14433     14435     14437     14433     14435     14438     14437     14435     14438
     14446     14444     14450     14446     14444     14451     14446     14444     14452
     14450     14444     14451     14450     14444     14452     14451     14444     14452
     14444     14446     14448     14444     14446     14449     14448     14446     14449
     14457     14455     14461     14457     14455     14462     14457     14455     14463
     14461     14455     14462     14461     14455     14463     14462     14455     14463
     14455     14457     14459     14455     14457     14460     14459     14457     14460
     14468     14466     14472     14468     14466     14473     14468     14466     14474
     14472     14466     14473     14472     14466     14474     14473     14466     14474
     14466     14468     14470     14466     14468     14471     14470     14468     14471
     14479     14477     14483     14479     14477     14484     14479     14477     14485
     14483     14477     14484     14483     14477     14485     14484     14477     14485
     14477     14479     14481     14477     14479     14482     14481     14479     14482
     14490     14488     14494     14490     14488     14495     14490     14488     14496
     14494     14488     14495     14494     14488     14496     14495     14488     14496
     14488     14490     14492     14488     14490     14493     14492     14490     14493
     14501     14499     14505     14501     14499     14506     14501     14499     14507
     14505     14499     14506     14505     14499     14507     14506     14499     14507
     14499     14501     14503     14499     14501     14504     14503     14501     14504
     14512     14510     14516     14512     14510     14517     14512     14510     14518
     14516     14510     14517     14516     14510     14518     14517     14510     14518
     14510     14512     14514     14510     14512     14515     14514     14512     14515
     14523     14521     14527     14523     14521     14528     14523     14521     14529
     14527     14521     14528     14527     14521     14529     14528     14521     14529
     14521     14523     14525     14521     14523     14526     14525     14523     14526
     14534     14532     14538     14534     14532     14539     14534     14532     14540
     14538     14532     14539     14538     14532     14540     14539     14532     14540
     14532     14534     14536     14532     14534     14537     14536     14534     14537
     14545     14543     14549     14545     14543     14550     14545     14543     14551
     14549     14543     14550     14549     14543     14551     14550     14543     14551
     14543     14545     14547     14543     14545     14548     14547     14545     14548
     14556     14554     14560     14556     14554     14561     14556     14554     14562
     14560     14554     14561     14560     14554     14562     14561     14554     14562
     14554     14556     14558     14554     14556     14559     14558     14556     14559
     14567     14565     14571     14567     14565     14572     14567     14565     14573
     14571     14565     14572     14571     14565     14573     14572     14565     14573
     14565     14567     14569     14565     14567     14570     14569     14567     14570
     14578     14576     14582     14578     14576     14583     14578     14576     14584
     14582     14576     14583     14582     14576     14584     14583     14576     14584
     14576     14578     14580     14576     14578     14581     14580     14578     14581
     14589     14587     14593     14589     14587     14594     14589     14587     14595
     14593     14587     14594     14593     14587     14595     14594     14587     14595
     14587     14589     14591     14587     14589     14592     14591     14589     14592
     14600     14598     14604     14600     14598     14605     14600     14598     14606
     14604     14598     14605     14604     14598     14606     14605     14598     14606
     14598     14600     14602     14598     14600     14603     14602     14600     14603
     14611     14609     14615     14611     14609     14616     14611     14609     14617
     14615     14609     14616     14615     14609     14617     14616     14609     14617
     14609     14611     14613     14609     14611     14614     14613     14611     14614
     14622     14620     14626     14622     14620     14627     14622     14620     14628
     14626     14620     14627     14626     14620     14628     14627     14620     14628
     14620     14622     14624     14620     14622     14625     14624     14622     14625
     14633     14631     14637     14633     14631     14638     14633     14631     14639
     14637     14631     14638     14637     14631     14639     14638     14631     14639
     14631     14633     14635     14631     14633     14636     14635     14633     14636
     14644     14642     14648     14644     14642     14649     14644     14642     14650
     14648     14642     14649     14648     14642     14650     14649     14642     14650
     14642     14644     14646     14642     14644     14647     14646     14644     14647
     14655     14653     14659     14655     14653     14660     14655     14653     14661
     14659     14653     14660     14659     14653     14661     14660     14653     14661
     14653     14655     14657     14653     14655     14658     14657     14655     14658
     14666     14664     14670     14666     14664     14671     14666     14664     14672
     14670     14664     14671     14670     14664     14672     14671     14664     14672
     14664     14666     14668     14664     14666     14669     14668     14666     14669
     14677     14675     14681     14677     14675     14682     14677     14675     14683
     14681     14675     14682     14681     14675     14683     14682     14675     14683
     14675     14677     14679     14675     14677     14680     14679     14677     14680
     14688     14686     14692     14688     14686     14693     14688     14686     14694
     14692     14686     14693     14692     14686     14694     14693     14686     14694
     14686     14688     14690     14686     14688     14691     14690     14688     14691
     14699     14697     14703     14699     14697     14704     14699     14697     14705
     14703     14697     14704     14703     14697     14705     14704     14697     14705
     14697     14699     14701     14697     14699     14702     14701     14699     14702
     14710     14708     14714     14710     14708     14715     14710     14708     14716
     14714     14708     14715     14714     14708     14716     14715     14708     14716
     14708     14710     14712     14708     14710     14713     14712     14710     14713
     14721     14719     14725     14721     14719     14726     14721     14719     14727
     14725     14719     14726     14725     14719     14727     14726     14719     14727
     14719     14721     14723     14719     14721     14724     14723     14721     14724
     14732     14730     14736     14732     14730     14737     14732     14730     14738
     14736     14730     14737     14736     14730     14738     14737     14730     14738
     14730     14732     14734     14730     14732     14735     14734     14732     14735
     14743     14741     14747     14743     14741     14748     14743     14741     14749
     14747     14741     14748     14747     14741     14749     14748     14741     14749
     14741     14743     14745     14741     14743     14746     14745     14743     14746
     14754     14752     14758     14754     14752     14759     14754     14752     14760
     14758     14752     14759     14758     14752     14760     14759     14752     14760
     14752     14754     14756     14752     14754     14757     14756     14754     14757
     14765     14763     14769     14765     14763     14770     14765     14763     14771
     14769     14763     14770     14769     14763     14771     14770     14763     14771
     14763     14765     14767     14763     14765     14768     14767     14765     14768
     14776     14774     14780     14776     14774     14781     14776     14774     14782
     14780     14774     14781     14780     14774     14782     14781     14774     14782
     14774     14776     14778     14774     14776     14779     14778     14776     14779
     14787     14785     14791     14787     14785     14792     14787     14785     14793
     14791     14785     14792     14791     14785     14793     14792     14785     14793
     14785     14787     14789     14785     14787     14790     14789     14787     14790
     14798     14796     14802     14798     14796     14803     14798     14796     14804
     14802     14796     14803     14802     14796     14804     14803     14796     14804
     14796     14798     14800     14796     14798     14801     14800     14798     14801
     14809     14807     14813     14809     14807     14814     14809     14807     14815
     14813     14807     14814     14813     14807     14815     14814     14807     14815
     14807     14809     14811     14807     14809     14812     14811     14809     14812
     14820     14818     14824     14820     14818     14825     14820     14818     14826
     14824     14818     14825     14824     14818     14826     14825     14818     14826
     14818     14820     14822     14818     14820     14823     14822     14820     14823
     14831     14829     14835     14831     14829     14836     14831     14829     14837
     14835     14829     14836     14835     14829     14837     14836     14829     14837
     14829     14831     14833     14829     14831     14834     14833     14831     14834
     14842     14840     14846     14842     14840     14847     14842     14840     14848
     14846     14840     14847     14846     14840     14848     14847     14840     14848
     14840     14842     14844     14840     14842     14845     14844     14842     14845
     14853     14851     14857     14853     14851     14858     14853     14851     14859
     14857     14851     14858     14857     14851     14859     14858     14851     14859
     14851     14853     14855     14851     14853     14856     14855     14853     14856
     14864     14862     14868     14864     14862     14869     14864     14862     14870
     14868     14862     14869     14868     14862     14870     14869     14862     14870
     14862     14864     14866     14862     14864     14867     14866     14864     14867
     14875     14873     14879     14875     14873     14880     14875     14873     14881
     14879     14873     14880     14879     14873     14881     14880     14873     14881
     14873     14875     14877     14873     14875     14878     14877     14875     14878
     14886     14884     14890     14886     14884     14891     14886     14884     14892
     14890     14884     14891     14890     14884     14892     14891     14884     14892
     14884     14886     14888     14884     14886     14889     14888     14886     14889
     14897     14895     14901     14897     14895     14902     14897     14895     14903
     14901     14895     14902     14901     14895     14903     14902     14895     14903
     14895     14897     14899     14895     14897     14900     14899     14897     14900
     14908     14906     14912     14908     14906     14913     14908     14906     14914
     14912     14906     14913     14912     14906     14914     14913     14906     14914
     14906     14908     14910     14906     14908     14911     14910     14908     14911
     14919     14917     14923     14919     14917     14924     14919     14917     14925
     14923     14917     14924     14923     14917     14925     14924     14917     14925
     14917     14919     14921     14917     14919     14922     14921     14919     14922
     14930     14928     14934     14930     14928     14935     14930     14928     14936
     14934     14928     14935     14934     14928     14936     14935     14928     14936
     14928     14930     14932     14928     14930     14933     14932     14930     14933
     14941     14939     14945     14941     14939     14946     14941     14939     14947
     14945     14939     14946     14945     14939     14947     14946     14939     14947
     14939     14941     14943     14939     14941     14944     14943     14941     14944
     14952     14950     14956     14952     14950     14957     14952     14950     14958
     14956     14950     14957     14956     14950     14958     14957     14950     14958
     14950     14952     14954     14950     14952     14955     14954     14952     14955
     14963     14961     14967     14963     14961     14968     14963     14961     14969
     14967     14961     14968     14967     14961     14969     14968     14961     14969
     14961     14963     14965     14961     14963     14966     14965     14963     14966
     14974     14972     14978     14974     14972     14979     14974     14972     14980
     14978     14972     14979     14978     14972     14980     14979     14972     14980
     14972     14974     14976     14972     14974     14977     14976     14974     14977
     14985     14983     14989     14985     14983     14990     14985     14983     14991
     14989     14983     14990     14989     14983     14991     14990     14983     14991
     14983     14985     14987     14983     14985     14988     14987     14985     14988
     14996     14994     15000     14996     14994     15001     14996     14994     15002
     15000     14994     15001     15000     14994     15002     15001     14994     15002
     14994     14996     14998     14994     14996     14999     14998     14996     14999
     15007     15005     15011     15007     15005     15012     15007     15005     15013
     15011     15005     15012     15011     15005     15013     15012     15005     15013
     15005     15007     15009     15005     15007     15010     15009     15007     15010
     15018     15016     15022     15018     15016     15023     15018     15016     15024
     15022     15016     15023     15022     15016     15024     15023     15016     15024
     15016     15018     15020     15016     15018     15021     15020     15018     15021
     15029     15027     15033     15029     15027     15034     15029     15027     15035
     15033     15027     15034     15033     15027     15035     15034     15027     15035
     15027     15029     15031     15027     15029     15032     15031     15029     15032
     15040     15038     15044     15040     15038     15045     15040     15038     15046
     15044     15038     15045     15044     15038     15046     15045     15038     15046
     15038     15040     15042     15038     15040     15043     15042     15040     15043
     15051     15049     15055     15051     15049     15056     15051     15049     15057
     15055     15049     15056     15055     15049     15057     15056     15049     15057
     15049     15051     15053     15049     15051     15054     15053     15051     15054
     15062     15060     15066     15062     15060     15067     15062     15060     15068
     15066     15060     15067     15066     15060     15068     15067     15060     15068
     15060     15062     15064     15060     15062     15065     15064     15062     15065
     15073     15071     15077     15073     15071     15078     15073     15071     15079
     15077     15071     15078     15077     15071     15079     15078     15071     15079
     15071     15073     15075     15071     15073     15076     15075     15073     15076
     15084     15082     15088     15084     15082     15089     15084     15082     15090
     15088     15082     15089     15088     15082     15090     15089     15082     15090
     15082     15084     15086     15082     15084     15087     15086     15084     15087
     15095     15093     15099     15095     15093     15100     15095     15093     15101
     15099     15093     15100     15099     15093     15101     15100     15093     15101
     15093     15095     15097     15093     15095     15098     15097     15095     15098
     15106     15104     15110     15106     15104     15111     15106     15104     15112
     15110     15104     15111     15110     15104     15112     15111     15104     15112
     15104     15106     15108     15104     15106     15109     15108     15106     15109
     15117     15115     15121     15117     15115     15122     15117     15115     15123
     15121     15115     15122     15121     15115     15123     15122     15115     15123
     15115     15117     15119     15115     15117     15120     15119     15117     15120
     15128     15126     15132     15128     15126     15133     15128     15126     15134
     15132     15126     15133     15132     15126     15134     15133     15126     15134
     15126     15128     15130     15126     15128     15131     15130     15128     15131
     15139     15137     15143     15139     15137     15144     15139     15137     15145
     15143     15137     15144     15143     15137     15145     15144     15137     15145
     15137     15139     15141     15137     15139     15142     15141     15139     15142
     15150     15148     15154     15150     15148     15155     15150     15148     15156
     15154     15148     15155     15154     15148     15156     15155     15148     15156
     15148     15150     15152     15148     15150     15153     15152     15150     15153
     15161     15159     15165     15161     15159     15166     15161     15159     15167
     15165     15159     15166     15165     15159     15167     15166     15159     15167
     15159     15161     15163     15159     15161     15164     15163     15161     15164
     15172     15170     15176     15172     15170     15177     15172     15170     15178
     15176     15170     15177     15176     15170     15178     15177     15170     15178
     15170     15172     15174     15170     15172     15175     15174     15172     15175
     15183     15181     15187     15183     15181     15188     15183     15181     15189
     15187     15181     15188     15187     15181     15189     15188     15181     15189
     15181     15183     15185     15181     15183     15186     15185     15183     15186
     15194     15192     15198     15194     15192     15199     15194     15192     15200
     15198     15192     15199     15198     15192     15200     15199     15192     15200
     15192     15194     15196     15192     15194     15197     15196     15194     15197
     15205     15203     15209     15205     15203     15210     15205     15203     15211
     15209     15203     15210     15209     15203     15211     15210     15203     15211
     15203     15205     15207     15203     15205     15208     15207     15205     15208
     15216     15214     15220     15216     15214     15221     15216     15214     15222
     15220     15214     15221     15220     15214     15222     15221     15214     15222
     15214     15216     15218     15214     15216     15219     15218     15216     15219
     15227     15225     15231     15227     15225     15232     15227     15225     15233
     15231     15225     15232     15231     15225     15233     15232     15225     15233
     15225     15227     15229     15225     15227     15230     15229     15227     15230
     15238     15236     15242     15238     15236     15243     15238     15236     15244
     15242     15236     15243     15242     15236     15244     15243     15236     15244
     15236     15238     15240     15236     15238     15241     15240     15238     15241
     15249     15247     15253     15249     15247     15254     15249     15247     15255
     15253     15247     15254     15253     15247     15255     15254     15247     15255
     15247     15249     15251     15247     15249     15252     15251     15249     15252
     15260     15258     15264     15260     15258     15265     15260     15258     15266
     15264     15258     15265     15264     15258     15266     15265     15258     15266
     15258     15260     15262     15258     15260     15263     15262     15260     15263
     15271     15269     15275     15271     15269     15276     15271     15269     15277
     15275     15269     15276     15275     15269     15277     15276     15269     15277
     15269     15271     15273     15269     15271     15274     15273     15271     15274
     15282     15280     15286     15282     15280     15287     15282     15280     15288
     15286     15280     15287     15286     15280     15288     15287     15280     15288
     15280     15282     15284     15280     15282     15285     15284     15282     15285
     15293     15291     15297     15293     15291     15298     15293     15291     15299
     15297     15291     15298     15297     15291     15299     15298     15291     15299
     15291     15293     15295     15291     15293     15296     15295     15293     15296
     15304     15302     15308     15304     15302     15309     15304     15302     15310
     15308     15302     15309     15308     15302     15310     15309     15302     15310
     15302     15304     15306     15302     15304     15307     15306     15304     15307
     15315     15313     15319     15315     15313     15320     15315     15313     15321
     15319     15313     15320     15319     15313     15321     15320     15313     15321
     15313     15315     15317     15313     15315     15318     15317     15315     15318
     15326     15324     15330     15326     15324     15331     15326     15324     15332
     15330     15324     15331     15330     15324     15332     15331     15324     15332
     15324     15326     15328     15324     15326     15329     15328     15326     15329
     15337     15335     15341     15337     15335     15342     15337     15335     15343
     15341     15335     15342     15341     15335     15343     15342     15335     15343
     15335     15337     15339     15335     15337     15340     15339     15337     15340
     15348     15346     15352     15348     15346     15353     15348     15346     15354
     15352     15346     15353     15352     15346     15354     15353     15346     15354
     15346     15348     15350     15346     15348     15351     15350     15348     15351
     15359     15357     15363     15359     15357     15364     15359     15357     15365
     15363     15357     15364     15363     15357     15365     15364     15357     15365
     15357     15359     15361     15357     15359     15362     15361     15359     15362
     15370     15368     15374     15370     15368     15375     15370     15368     15376
     15374     15368     15375     15374     15368     15376     15375     15368     15376
     15368     15370     15372     15368     15370     15373     15372     15370     15373
     15381     15379     15385     15381     15379     15386     15381     15379     15387
     15385     15379     15386     15385     15379     15387     15386     15379     15387
     15379     15381     15383     15379     15381     15384     15383     15381     15384
     15392     15390     15396     15392     15390     15397     15392     15390     15398
     15396     15390     15397     15396     15390     15398     15397     15390     15398
     15390     15392     15394     15390     15392     15395     15394     15392     15395
     15403     15401     15407     15403     15401     15408     15403     15401     15409
     15407     15401     15408     15407     15401     15409     15408     15401     15409
     15401     15403     15405     15401     15403     15406     15405     15403     15406
     15414     15412     15418     15414     15412     15419     15414     15412     15420
     15418     15412     15419     15418     15412     15420     15419     15412     15420
     15412     15414     15416     15412     15414     15417     15416     15414     15417
     15425     15423     15429     15425     15423     15430     15425     15423     15431
     15429     15423     15430     15429     15423     15431     15430     15423     15431
     15423     15425     15427     15423     15425     15428     15427     15425     15428
     15436     15434     15440     15436     15434     15441     15436     15434     15442
     15440     15434     15441     15440     15434     15442     15441     15434     15442
     15434     15436     15438     15434     15436     15439     15438     15436     15439
     15447     15445     15451     15447     15445     15452     15447     15445     15453
     15451     15445     15452     15451     15445     15453     15452     15445     15453
     15445     15447     15449     15445     15447     15450     15449     15447     15450
     15458     15456     15462     15458     15456     15463     15458     15456     15464
     15462     15456     15463     15462     15456     15464     15463     15456     15464
     15456     15458     15460     15456     15458     15461     15460     15458     15461
     15469     15467     15473     15469     15467     15474     15469     15467     15475
     15473     15467     15474     15473     15467     15475     15474     15467     15475
     15467     15469     15471     15467     15469     15472     15471     15469     15472
     15480     15478     15484     15480     15478     15485     15480     15478     15486
     15484     15478     15485     15484     15478     15486     15485     15478     15486
     15478     15480     15482     15478     15480     15483     15482     15480     15483
     15491     15489     15495     15491     15489     15496     15491     15489     15497
     15495     15489     15496     15495     15489     15497     15496     15489     15497
     15489     15491     15493     15489     15491     15494     15493     15491     15494
     15502     15500     15506     15502     15500     15507     15502     15500     15508
     15506     15500     15507     15506     15500     15508     15507     15500     15508
     15500     15502     15504     15500     15502     15505     15504     15502     15505
     15513     15511     15517     15513     15511     15518     15513     15511     15519
     15517     15511     15518     15517     15511     15519     15518     15511     15519
     15511     15513     15515     15511     15513     15516     15515     15513     15516
     15524     15522     15528     15524     15522     15529     15524     15522     15530
     15528     15522     15529     15528     15522     15530     15529     15522     15530
     15522     15524     15526     15522     15524     15527     15526     15524     15527
     15535     15533     15539     15535     15533     15540     15535     15533     15541
     15539     15533     15540     15539     15533     15541     15540     15533     15541
     15533     15535     15537     15533     15535     15538     15537     15535     15538
     15546     15544     15550     15546     15544     15551     15546     15544     15552
     15550     15544     15551     15550     15544     15552     15551     15544     15552
     15544     15546     15548     15544     15546     15549     15548     15546     15549
     15557     15555     15561     15557     15555     15562     15557     15555     15563
     15561     15555     15562     15561     15555     15563     15562     15555     15563
     15555     15557     15559     15555     15557     15560     15559     15557     15560
     15568     15566     15572     15568     15566     15573     15568     15566     15574
     15572     15566     15573     15572     15566     15574     15573     15566     15574
     15566     15568     15570     15566     15568     15571     15570     15568     15571
     15579     15577     15583     15579     15577     15584     15579     15577     15585
     15583     15577     15584     15583     15577     15585     15584     15577     15585
     15577     15579     15581     15577     15579     15582     15581     15579     15582
     15590     15588     15594     15590     15588     15595     15590     15588     15596
     15594     15588     15595     15594     15588     15596     15595     15588     15596
     15588     15590     15592     15588     15590     15593     15592     15590     15593
     15601     15599     15605     15601     15599     15606     15601     15599     15607
     15605     15599     15606     15605     15599     15607     15606     15599     15607
     15599     15601     15603     15599     15601     15604     15603     15601     15604
     15612     15610     15616     15612     15610     15617     15612     15610     15618
     15616     15610     15617     15616     15610     15618     15617     15610     15618
     15610     15612     15614     15610     15612     15615     15614     15612     15615
     15623     15621     15627     15623     15621     15628     15623     15621     15629
     15627     15621     15628     15627     15621     15629     15628     15621     15629
     15621     15623     15625     15621     15623     15626     15625     15623     15626
     15634     15632     15638     15634     15632     15639     15634     15632     15640
     15638     15632     15639     15638     15632     15640     15639     15632     15640
     15632     15634     15636     15632     15634     15637     15636     15634     15637
     15645     15643     15649     15645     15643     15650     15645     15643     15651
     15649     15643     15650     15649     15643     15651     15650     15643     15651
     15643     15645     15647     15643     15645     15648     15647     15645     15648
     15656     15654     15660     15656     15654     15661     15656     15654     15662
     15660     15654     15661     15660     15654     15662     15661     15654     15662
     15654     15656     15658     15654     15656     15659     15658     15656     15659
     15667     15665     15671     15667     15665     15672     15667     15665     15673
     15671     15665     15672     15671     15665     15673     15672     15665     15673
     15665     15667     15669     15665     15667     15670     15669     15667     15670
     15678     15676     15682     15678     15676     15683     15678     15676     15684
     15682     15676     15683     15682     15676     15684     15683     15676     15684
     15676     15678     15680     15676     15678     15681     15680     15678     15681
     15689     15687     15693     15689     15687     15694     15689     15687     15695
     15693     15687     15694     15693     15687     15695     15694     15687     15695
     15687     15689     15691     15687     15689     15692     15691     15689     15692
     15700     15698     15704     15700     15698     15705     15700     15698     15706
     15704     15698     15705     15704     15698     15706     15705     15698     15706
     15698     15700     15702     15698     15700     15703     15702     15700     15703
     15711     15709     15715     15711     15709     15716     15711     15709     15717
     15715     15709     15716     15715     15709     15717     15716     15709     15717
     15709     15711     15713     15709     15711     15714     15713     15711     15714
     15722     15720     15726     15722     15720     15727     15722     15720     15728
     15726     15720     15727     15726     15720     15728     15727     15720     15728
     15720     15722     15724     15720     15722     15725     15724     15722     15725
     15733     15731     15737     15733     15731     15738     15733     15731     15739
     15737     15731     15738     15737     15731     15739     15738     15731     15739
     15731     15733     15735     15731     15733     15736     15735     15733     15736
     15744     15742     15748     15744     15742     15749     15744     15742     15750
     15748     15742     15749     15748     15742     15750     15749     15742     15750
     15742     15744     15746     15742     15744     15747     15746     15744     15747
     15755     15753     15759     15755     15753     15760     15755     15753     15761
     15759     15753     15760     15759     15753     15761     15760     15753     15761
     15753     15755     15757     15753     15755     15758     15757     15755     15758
     15766     15764     15770     15766     15764     15771     15766     15764     15772
     15770     15764     15771     15770     15764     15772     15771     15764     15772
     15764     15766     15768     15764     15766     15769     15768     15766     15769
     15777     15775     15781     15777     15775     15782     15777     15775     15783
     15781     15775     15782     15781     15775     15783     15782     15775     15783
     15775     15777     15779     15775     15777     15780     15779     15777     15780
     15788     15786     15792     15788     15786     15793     15788     15786     15794
     15792     15786     15793     15792     15786     15794     15793     15786     15794
     15786     15788     15790     15786     15788     15791     15790     15788     15791
     15799     15797     15803     15799     15797     15804     15799     15797     15805
     15803     15797     15804     15803     15797     15805     15804     15797     15805
     15797     15799     15801     15797     15799     15802     15801     15799     15802
     15810     15808     15814     15810     15808     15815     15810     15808     15816
     15814     15808     15815     15814     15808     15816     15815     15808     15816
     15808     15810     15812     15808     15810     15813     15812     15810     15813
     15821     15819     15825     15821     15819     15826     15821     15819     15827
     15825     15819     15826     15825     15819     15827     15826     15819     15827
     15819     15821     15823     15819     15821     15824     15823     15821     15824
     15832     15830     15836     15832     15830     15837     15832     15830     15838
     15836     15830     15837     15836     15830     15838     15837     15830     15838
     15830     15832     15834     15830     15832     15835     15834     15832     15835
     15843     15841     15847     15843     15841     15848     15843     15841     15849
     15847     15841     15848     15847     15841     15849     15848     15841     15849
     15841     15843     15845     15841     15843     15846     15845     15843     15846
     15854     15852     15858     15854     15852     15859     15854     15852     15860
     15858     15852     15859     15858     15852     15860     15859     15852     15860
     15852     15854     15856     15852     15854     15857     15856     15854     15857
     15865     15863     15869     15865     15863     15870     15865     15863     15871
     15869     15863     15870     15869     15863     15871     15870     15863     15871
     15863     15865     15867     15863     15865     15868     15867     15865     15868
     15876     15874     15880     15876     15874     15881     15876     15874     15882
     15880     15874     15881     15880     15874     15882     15881     15874     15882
     15874     15876     15878     15874     15876     15879     15878     15876     15879
     15887     15885     15891     15887     15885     15892     15887     15885     15893
     15891     15885     15892     15891     15885     15893     15892     15885     15893
     15885     15887     15889     15885     15887     15890     15889     15887     15890
     15898     15896     15902     15898     15896     15903     15898     15896     15904
     15902     15896     15903     15902     15896     15904     15903     15896     15904
     15896     15898     15900     15896     15898     15901     15900     15898     15901
     15909     15907     15913     15909     15907     15914     15909     15907     15915
     15913     15907     15914     15913     15907     15915     15914     15907     15915
     15907     15909     15911     15907     15909     15912     15911     15909     15912
     15920     15918     15924     15920     15918     15925     15920     15918     15926
     15924     15918     15925     15924     15918     15926     15925     15918     15926
     15918     15920     15922     15918     15920     15923     15922     15920     15923
     15931     15929     15935     15931     15929     15936     15931     15929     15937
     15935     15929     15936     15935     15929     15937     15936     15929     15937
     15929     15931     15933     15929     15931     15934     15933     15931     15934
     15942     15940     15946     15942     15940     15947     15942     15940     15948
     15946     15940     15947     15946     15940     15948     15947     15940     15948
     15940     15942     15944     15940     15942     15945     15944     15942     15945
     15953     15951     15957     15953     15951     15958     15953     15951     15959
     15957     15951     15958     15957     15951     15959     15958     15951     15959
     15951     15953     15955     15951     15953     15956     15955     15953     15956
     15964     15962     15968     15964     15962     15969     15964     15962     15970
     15968     15962     15969     15968     15962     15970     15969     15962     15970
     15962     15964     15966     15962     15964     15967     15966     15964     15967
     15975     15973     15979     15975     15973     15980     15975     15973     15981
     15979     15973     15980     15979     15973     15981     15980     15973     15981
     15973     15975     15977     15973     15975     15978     15977     15975     15978
     15986     15984     15990     15986     15984     15991     15986     15984     15992
     15990     15984     15991     15990     15984     15992     15991     15984     15992
     15984     15986     15988     15984     15986     15989     15988     15986     15989
     15997     15995     16001     15997     15995     16002     15997     15995     16003
     16001     15995     16002     16001     15995     16003     16002     15995     16003
     15995     15997     15999     15995     15997     16000     15999     15997     16000
     16008     16006     16012     16008     16006     16013     16008     16006     16014
     16012     16006     16013     16012     16006     16014     16013     16006     16014
     16006     16008     16010     16006     16008     16011     16010     16008     16011
     16019     16017     16023     16019     16017     16024     16019     16017     16025
     16023     16017     16024     16023     16017     16025     16024     16017     16025
     16017     16019     16021     16017     16019     16022     16021     16019     16022
     16030     16028     16034     16030     16028     16035     16030     16028     16036
     16034     16028     16035     16034     16028     16036     16035     16028     16036
     16028     16030     16032     16028     16030     16033     16032     16030     16033
     16041     16039     16045     16041     16039     16046     16041     16039     16047
     16045     16039     16046     16045     16039     16047     16046     16039     16047
     16039     16041     16043     16039     16041     16044     16043     16041     16044
     16052     16050     16056     16052     16050     16057     16052     16050     16058
     16056     16050     16057     16056     16050     16058     16057     16050     16058
     16050     16052     16054     16050     16052     16055     16054     16052     16055
     16063     16061     16067     16063     16061     16068     16063     16061     16069
     16067     16061     16068     16067     16061     16069     16068     16061     16069
     16061     16063     16065     16061     16063     16066     16065     16063     16066
     16074     16072     16078     16074     16072     16079     16074     16072     16080
     16078     16072     16079     16078     16072     16080     16079     16072     16080
     16072     16074     16076     16072     16074     16077     16076     16074     16077
     16085     16083     16089     16085     16083     16090     16085     16083     16091
     16089     16083     16090     16089     16083     16091     16090     16083     16091
     16083     16085     16087     16083     16085     16088     16087     16085     16088
     16096     16094     16100     16096     16094     16101     16096     16094     16102
     16100     16094     16101     16100     16094     16102     16101     16094     16102
     16094     16096     16098     16094     16096     16099     16098     16096     16099
     16107     16105     16111     16107     16105     16112     16107     16105     16113
     16111     16105     16112     16111     16105     16113     16112     16105     16113
     16105     16107     16109     16105     16107     16110     16109     16107     16110
     16118     16116     16122     16118     16116     16123     16118     16116     16124
     16122     16116     16123     16122     16116     16124     16123     16116     16124
     16116     16118     16120     16116     16118     16121     16120     16118     16121
     16129     16127     16133     16129     16127     16134     16129     16127     16135
     16133     16127     16134     16133     16127     16135     16134     16127     16135
     16127     16129     16131     16127     16129     16132     16131     16129     16132
     16140     16138     16144     16140     16138     16145     16140     16138     16146
     16144     16138     16145     16144     16138     16146     16145     16138     16146
     16138     16140     16142     16138     16140     16143     16142     16140     16143
     16151     16149     16155     16151     16149     16156     16151     16149     16157
     16155     16149     16156     16155     16149     16157     16156     16149     16157
     16149     16151     16153     16149     16151     16154     16153     16151     16154
     16162     16160     16166     16162     16160     16167     16162     16160     16168
     16166     16160     16167     16166     16160     16168     16167     16160     16168
     16160     16162     16164     16160     16162     16165     16164     16162     16165
     16173     16171     16177     16173     16171     16178     16173     16171     16179
     16177     16171     16178     16177     16171     16179     16178     16171     16179
     16171     16173     16175     16171     16173     16176     16175     16173     16176
     16184     16182     16188     16184     16182     16189     16184     16182     16190
     16188     16182     16189     16188     16182     16190     16189     16182     16190
     16182     16184     16186     16182     16184     16187     16186     16184     16187
     16195     16193     16199     16195     16193     16200     16195     16193     16201
     16199     16193     16200     16199     16193     16201     16200     16193     16201
     16193     16195     16197     16193     16195     16198     16197     16195     16198
     16206     16204     16210     16206     16204     16211     16206     16204     16212
     16210     16204     16211     16210     16204     16212     16211     16204     16212
     16204     16206     16208     16204     16206     16209     16208     16206     16209
     16217     16215     16221     16217     16215     16222     16217     16215     16223
     16221     16215     16222     16221     16215     16223     16222     16215     16223
     16215     16217     16219     16215     16217     16220     16219     16217     16220
     16228     16226     16232     16228     16226     16233     16228     16226     16234
     16232     16226     16233     16232     16226     16234     16233     16226     16234
     16226     16228     16230     16226     16228     16231     16230     16228     16231
     16239     16237     16243     16239     16237     16244     16239     16237     16245
     16243     16237     16244     16243     16237     16245     16244     16237     16245
     16237     16239     16241     16237     16239     16242     16241     16239     16242
     16250     16248     16254     16250     16248     16255     16250     16248     16256
     16254     16248     16255     16254     16248     16256     16255     16248     16256
     16248     16250     16252     16248     16250     16253     16252     16250     16253
     16261     16259     16265     16261     16259     16266     16261     16259     16267
     16265     16259     16266     16265     16259     16267     16266     16259     16267
     16259     16261     16263     16259     16261     16264     16263     16261     16264
     16272     16270     16276     16272     16270     16277     16272     16270     16278
     16276     16270     16277     16276     16270     16278     16277     16270     16278
     16270     16272     16274     16270     16272     16275     16274     16272     16275
     16283     16281     16287     16283     16281     16288     16283     16281     16289
     16287     16281     16288     16287     16281     16289     16288     16281     16289
     16281     16283     16285     16281     16283     16286     16285     16283     16286
     16294     16292     16298     16294     16292     16299     16294     16292     16300
     16298     16292     16299     16298     16292     16300     16299     16292     16300
     16292     16294     16296     16292     16294     16297     16296     16294     16297
     16305     16303     16309     16305     16303     16310     16305     16303     16311
     16309     16303     16310     16309     16303     16311     16310     16303     16311
     16303     16305     16307     16303     16305     16308     16307     16305     16308
     16316     16314     16320     16316     16314     16321     16316     16314     16322
     16320     16314     16321     16320     16314     16322     16321     16314     16322
     16314     16316     16318     16314     16316     16319     16318     16316     16319
     16327     16325     16331     16327     16325     16332     16327     16325     16333
     16331     16325     16332     16331     16325     16333     16332     16325     16333
     16325     16327     16329     16325     16327     16330     16329     16327     16330
     16338     16336     16342     16338     16336     16343     16338     16336     16344
     16342     16336     16343     16342     16336     16344     16343     16336     16344
     16336     16338     16340     16336     16338     16341     16340     16338     16341
     16349     16347     16353     16349     16347     16354     16349     16347     16355
     16353     16347     16354     16353     16347     16355     16354     16347     16355
     16347     16349     16351     16347     16349     16352     16351     16349     16352
     16360     16358     16364     16360     16358     16365     16360     16358     16366
     16364     16358     16365     16364     16358     16366     16365     16358     16366
     16358     16360     16362     16358     16360     16363     16362     16360     16363
     16371     16369     16375     16371     16369     16376     16371     16369     16377
     16375     16369     16376     16375     16369     16377     16376     16369     16377
     16369     16371     16373     16369     16371     16374     16373     16371     16374
     16382     16380     16386     16382     16380     16387     16382     16380     16388
     16386     16380     16387     16386     16380     16388     16387     16380     16388
     16380     16382     16384     16380     16382     16385     16384     16382     16385
     16393     16391     16397     16393     16391     16398     16393     16391     16399
     16397     16391     16398     16397     16391     16399     16398     16391     16399
     16391     16393     16395     16391     16393     16396     16395     16393     16396
     16404     16402     16408     16404     16402     16409     16404     16402     16410
     16408     16402     16409     16408     16402     16410     16409     16402     16410
     16402     16404     16406     16402     16404     16407     16406     16404     16407
     16415     16413     16419     16415     16413     16420     16415     16413     16421
     16419     16413     16420     16419     16413     16421     16420     16413     16421
     16413     16415     16417     16413     16415     16418     16417     16415     16418
     16426     16424     16430     16426     16424     16431     16426     16424     16432
     16430     16424     16431     16430     16424     16432     16431     16424     16432
     16424     16426     16428     16424     16426     16429     16428     16426     16429
     16437     16435     16441     16437     16435     16442     16437     16435     16443
     16441     16435     16442     16441     16435     16443     16442     16435     16443
     16435     16437     16439     16435     16437     16440     16439     16437     16440
     16448     16446     16452     16448     16446     16453     16448     16446     16454
     16452     16446     16453     16452     16446     16454     16453     16446     16454
     16446     16448     16450     16446     16448     16451     16450     16448     16451
     16459     16457     16463     16459     16457     16464     16459     16457     16465
     16463     16457     16464     16463     16457     16465     16464     16457     16465
     16457     16459     16461     16457     16459     16462     16461     16459     16462
     16470     16468     16474     16470     16468     16475     16470     16468     16476
     16474     16468     16475     16474     16468     16476     16475     16468     16476
     16468     16470     16472     16468     16470     16473     16472     16470     16473
     16481     16479     16485     16481     16479     16486     16481     16479     16487
     16485     16479     16486     16485     16479     16487     16486     16479     16487
     16479     16481     16483     16479     16481     16484     16483     16481     16484
     16492     16490     16496     16492     16490     16497     16492     16490     16498
     16496     16490     16497     16496     16490     16498     16497     16490     16498
     16490     16492     16494     16490     16492     16495     16494     16492     16495
     16503     16501     16507     16503     16501     16508     16503     16501     16509
     16507     16501     16508     16507     16501     16509     16508     16501     16509
     16501     16503     16505     16501     16503     16506     16505     16503     16506
     16514     16512     16518     16514     16512     16519     16514     16512     16520
     16518     16512     16519     16518     16512     16520     16519     16512     16520
     16512     16514     16516     16512     16514     16517     16516     16514     16517
     16525     16523     16529     16525     16523     16530     16525     16523     16531
     16529     16523     16530     16529     16523     16531     16530     16523     16531
     16523     16525     16527     16523     16525     16528     16527     16525     16528
     16536     16534     16540     16536     16534     16541     16536     16534     16542
     16540     16534     16541     16540     16534     16542     16541     16534     16542
     16534     16536     16538     16534     16536     16539     16538     16536     16539
     16547     16545     16551     16547     16545     16552     16547     16545     16553
     16551     16545     16552     16551     16545     16553     16552     16545     16553
     16545     16547     16549     16545     16547     16550     16549     16547     16550
     16558     16556     16562     16558     16556     16563     16558     16556     16564
     16562     16556     16563     16562     16556     16564     16563     16556     16564
     16556     16558     16560     16556     16558     16561     16560     16558     16561
     16569     16567     16573     16569     16567     16574     16569     16567     16575
     16573     16567     16574     16573     16567     16575     16574     16567     16575
     16567     16569     16571     16567     16569     16572     16571     16569     16572
     16580     16578     16584     16580     16578     16585     16580     16578     16586
     16584     16578     16585     16584     16578     16586     16585     16578     16586
     16578     16580     16582     16578     16580     16583     16582     16580     16583
     16591     16589     16595     16591     16589     16596     16591     16589     16597
     16595     16589     16596     16595     16589     16597     16596     16589     16597
     16589     16591     16593     16589     16591     16594     16593     16591     16594
     16602     16600     16606     16602     16600     16607     16602     16600     16608
     16606     16600     16607     16606     16600     16608     16607     16600     16608
     16600     16602     16604     16600     16602     16605     16604     16602     16605
     16613     16611     16617     16613     16611     16618     16613     16611     16619
     16617     16611     16618     16617     16611     16619     16618     16611     16619
     16611     16613     16615     16611     16613     16616     16615     16613     16616
     16624     16622     16628     16624     16622     16629     16624     16622     16630
     16628     16622     16629     16628     16622     16630     16629     16622     16630
     16622     16624     16626     16622     16624     16627     16626     16624     16627
     16635     16633     16639     16635     16633     16640     16635     16633     16641
     16639     16633     16640     16639     16633     16641     16640     16633     16641
     16633     16635     16637     16633     16635     16638     16637     16635     16638
     16646     16644     16650     16646     16644     16651     16646     16644     16652
     16650     16644     16651     16650     16644     16652     16651     16644     16652
     16644     16646     16648     16644     16646     16649     16648     16646     16649
     16657     16655     16661     16657     16655     16662     16657     16655     16663
     16661     16655     16662     16661     16655     16663     16662     16655     16663
     16655     16657     16659     16655     16657     16660     16659     16657     16660
     16668     16666     16672     16668     16666     16673     16668     16666     16674
     16672     16666     16673     16672     16666     16674     16673     16666     16674
     16666     16668     16670     16666     16668     16671     16670     16668     16671
     16679     16677     16683     16679     16677     16684     16679     16677     16685
     16683     16677     16684     16683     16677     16685     16684     16677     16685
     16677     16679     16681     16677     16679     16682     16681     16679     16682
     16690     16688     16694     16690     16688     16695     16690     16688     16696
     16694     16688     16695     16694     16688     16696     16695     16688     16696
     16688     16690     16692     16688     16690     16693     16692     16690     16693
     16701     16699     16705     16701     16699     16706     16701     16699     16707
     16705     16699     16706     16705     16699     16707     16706     16699     16707
     16699     16701     16703     16699     16701     16704     16703     16701     16704
     16712     16710     16716     16712     16710     16717     16712     16710     16718
     16716     16710     16717     16716     16710     16718     16717     16710     16718
     16710     16712     16714     16710     16712     16715     16714     16712     16715
     16723     16721     16727     16723     16721     16728     16723     16721     16729
     16727     16721     16728     16727     16721     16729     16728     16721     16729
     16721     16723     16725     16721     16723     16726     16725     16723     16726
     16734     16732     16738     16734     16732     16739     16734     16732     16740
     16738     16732     16739     16738     16732     16740     16739     16732     16740
     16732     16734     16736     16732     16734     16737     16736     16734     16737
     16745     16743     16749     16745     16743     16750     16745     16743     16751
     16749     16743     16750     16749     16743     16751     16750     16743     16751
     16743     16745     16747     16743     16745     16748     16747     16745     16748
     16756     16754     16760     16756     16754     16761     16756     16754     16762
     16760     16754     16761     16760     16754     16762     16761     16754     16762
     16754     16756     16758     16754     16756     16759     16758     16756     16759
     16767     16765     16771     16767     16765     16772     16767     16765     16773
     16771     16765     16772     16771     16765     16773     16772     16765     16773
     16765     16767     16769     16765     16767     16770     16769     16767     16770
     16778     16776     16782     16778     16776     16783     16778     16776     16784
     16782     16776     16783     16782     16776     16784     16783     16776     16784
     16776     16778     16780     16776     16778     16781     16780     16778     16781
     16789     16787     16793     16789     16787     16794     16789     16787     16795
     16793     16787     16794     16793     16787     16795     16794     16787     16795
     16787     16789     16791     16787     16789     16792     16791     16789     16792
     16800     16798     16804     16800     16798     16805     16800     16798     16806
     16804     16798     16805     16804     16798     16806     16805     16798     16806
     16798     16800     16802     16798     16800     16803     16802     16800     16803
     16811     16809     16815     16811     16809     16816     16811     16809     16817
     16815     16809     16816     16815     16809     16817     16816     16809     16817
     16809     16811     16813     16809     16811     16814     16813     16811     16814
     16822     16820     16826     16822     16820     16827     16822     16820     16828
     16826     16820     16827     16826     16820     16828     16827     16820     16828
     16820     16822     16824     16820     16822     16825     16824     16822     16825
     16833     16831     16837     16833     16831     16838     16833     16831     16839
     16837     16831     16838     16837     16831     16839     16838     16831     16839
     16831     16833     16835     16831     16833     16836     16835     16833     16836
     16844     16842     16848     16844     16842     16849     16844     16842     16850
     16848     16842     16849     16848     16842     16850     16849     16842     16850
     16842     16844     16846     16842     16844     16847     16846     16844     16847
     16855     16853     16859     16855     16853     16860     16855     16853     16861
     16859     16853     16860     16859     16853     16861     16860     16853     16861
     16853     16855     16857     16853     16855     16858     16857     16855     16858
     16866     16864     16870     16866     16864     16871     16866     16864     16872
     16870     16864     16871     16870     16864     16872     16871     16864     16872
     16864     16866     16868     16864     16866     16869     16868     16866     16869
     16877     16875     16881     16877     16875     16882     16877     16875     16883
     16881     16875     16882     16881     16875     16883     16882     16875     16883
     16875     16877     16879     16875     16877     16880     16879     16877     16880
     16888     16886     16892     16888     16886     16893     16888     16886     16894
     16892     16886     16893     16892     16886     16894     16893     16886     16894
     16886     16888     16890     16886     16888     16891     16890     16888     16891
     16899     16897     16903     16899     16897     16904     16899     16897     16905
     16903     16897     16904     16903     16897     16905     16904     16897     16905
     16897     16899     16901     16897     16899     16902     16901     16899     16902
     16910     16908     16914     16910     16908     16915     16910     16908     16916
     16914     16908     16915     16914     16908     16916     16915     16908     16916
     16908     16910     16912     16908     16910     16913     16912     16910     16913
     16921     16919     16925     16921     16919     16926     16921     16919     16927
     16925     16919     16926     16925     16919     16927     16926     16919     16927
     16919     16921     16923     16919     16921     16924     16923     16921     16924
     16932     16930     16936     16932     16930     16937     16932     16930     16938
     16936     16930     16937     16936     16930     16938     16937     16930     16938
     16930     16932     16934     16930     16932     16935     16934     16932     16935
     16943     16941     16947     16943     16941     16948     16943     16941     16949
     16947     16941     16948     16947     16941     16949     16948     16941     16949
     16941     16943     16945     16941     16943     16946     16945     16943     16946
     16954     16952     16958     16954     16952     16959     16954     16952     16960
     16958     16952     16959     16958     16952     16960     16959     16952     16960
     16952     16954     16956     16952     16954     16957     16956     16954     16957
     16965     16963     16969     16965     16963     16970     16965     16963     16971
     16969     16963     16970     16969     16963     16971     16970     16963     16971
     16963     16965     16967     16963     16965     16968     16967     16965     16968
     16976     16974     16980     16976     16974     16981     16976     16974     16982
     16980     16974     16981     16980     16974     16982     16981     16974     16982
     16974     16976     16978     16974     16976     16979     16978     16976     16979
     16987     16985     16991     16987     16985     16992     16987     16985     16993
     16991     16985     16992     16991     16985     16993     16992     16985     16993
     16985     16987     16989     16985     16987     16990     16989     16987     16990
     16998     16996     17002     16998     16996     17003     16998     16996     17004
     17002     16996     17003     17002     16996     17004     17003     16996     17004
     16996     16998     17000     16996     16998     17001     17000     16998     17001
     17009     17007     17013     17009     17007     17014     17009     17007     17015
     17013     17007     17014     17013     17007     17015     17014     17007     17015
     17007     17009     17011     17007     17009     17012     17011     17009     17012
     17020     17018     17024     17020     17018     17025     17020     17018     17026
     17024     17018     17025     17024     17018     17026     17025     17018     17026
     17018     17020     17022     17018     17020     17023     17022     17020     17023
     17031     17029     17035     17031     17029     17036     17031     17029     17037
     17035     17029     17036     17035     17029     17037     17036     17029     17037
     17029     17031     17033     17029     17031     17034     17033     17031     17034
     17042     17040     17046     17042     17040     17047     17042     17040     17048
     17046     17040     17047     17046     17040     17048     17047     17040     17048
     17040     17042     17044     17040     17042     17045     17044     17042     17045
     17053     17051     17057     17053     17051     17058     17053     17051     17059
     17057     17051     17058     17057     17051     17059     17058     17051     17059
     17051     17053     17055     17051     17053     17056     17055     17053     17056
     17064     17062     17068     17064     17062     17069     17064     17062     17070
     17068     17062     17069     17068     17062     17070     17069     17062     17070
     17062     17064     17066     17062     17064     17067     17066     17064     17067
     17075     17073     17079     17075     17073     17080     17075     17073     17081
     17079     17073     17080     17079     17073     17081     17080     17073     17081
     17073     17075     17077     17073     17075     17078     17077     17075     17078
     17086     17084     17090     17086     17084     17091     17086     17084     17092
     17090     17084     17091     17090     17084     17092     17091     17084     17092
     17084     17086     17088     17084     17086     17089     17088     17086     17089
     17097     17095     17101     17097     17095     17102     17097     17095     17103
     17101     17095     17102     17101     17095     17103     17102     17095     17103
     17095     17097     17099     17095     17097     17100     17099     17097     17100
     17108     17106     17112     17108     17106     17113     17108     17106     17114
     17112     17106     17113     17112     17106     17114     17113     17106     17114
     17106     17108     17110     17106     17108     17111     17110     17108     17111
     17119     17117     17123     17119     17117     17124     17119     17117     17125
     17123     17117     17124     17123     17117     17125     17124     17117     17125
     17117     17119     17121     17117     17119     17122     17121     17119     17122
     17130     17128     17134     17130     17128     17135     17130     17128     17136
     17134     17128     17135     17134     17128     17136     17135     17128     17136
     17128     17130     17132     17128     17130     17133     17132     17130     17133
     17141     17139     17145     17141     17139     17146     17141     17139     17147
     17145     17139     17146     17145     17139     17147     17146     17139     17147
     17139     17141     17143     17139     17141     17144     17143     17141     17144
     17152     17150     17156     17152     17150     17157     17152     17150     17158
     17156     17150     17157     17156     17150     17158     17157     17150     17158
     17150     17152     17154     17150     17152     17155     17154     17152     17155
     17163     17161     17167     17163     17161     17168     17163     17161     17169
     17167     17161     17168     17167     17161     17169     17168     17161     17169
     17161     17163     17165     17161     17163     17166     17165     17163     17166
     17174     17172     17178     17174     17172     17179     17174     17172     17180
     17178     17172     17179     17178     17172     17180     17179     17172     17180
     17172     17174     17176     17172     17174     17177     17176     17174     17177
     17185     17183     17189     17185     17183     17190     17185     17183     17191
     17189     17183     17190     17189     17183     17191     17190     17183     17191
     17183     17185     17187     17183     17185     17188     17187     17185     17188
     17196     17194     17200     17196     17194     17201     17196     17194     17202
     17200     17194     17201     17200     17194     17202     17201     17194     17202
     17194     17196     17198     17194     17196     17199     17198     17196     17199
     17207     17205     17211     17207     17205     17212     17207     17205     17213
     17211     17205     17212     17211     17205     17213     17212     17205     17213
     17205     17207     17209     17205     17207     17210     17209     17207     17210
     17218     17216     17222     17218     17216     17223     17218     17216     17224
     17222     17216     17223     17222     17216     17224     17223     17216     17224
     17216     17218     17220     17216     17218     17221     17220     17218     17221
     17229     17227     17233     17229     17227     17234     17229     17227     17235
     17233     17227     17234     17233     17227     17235     17234     17227     17235
     17227     17229     17231     17227     17229     17232     17231     17229     17232
     17240     17238     17244     17240     17238     17245     17240     17238     17246
     17244     17238     17245     17244     17238     17246     17245     17238     17246
     17238     17240     17242     17238     17240     17243     17242     17240     17243
     17251     17249     17255     17251     17249     17256     17251     17249     17257
     17255     17249     17256     17255     17249     17257     17256     17249     17257
     17249     17251     17253     17249     17251     17254     17253     17251     17254
     17262     17260     17266     17262     17260     17267     17262     17260     17268
     17266     17260     17267     17266     17260     17268     17267     17260     17268
     17260     17262     17264     17260     17262     17265     17264     17262     17265
     17273     17271     17277     17273     17271     17278     17273     17271     17279
     17277     17271     17278     17277     17271     17279     17278     17271     17279
     17271     17273     17275     17271     17273     17276     17275     17273     17276
     17284     17282     17288     17284     17282     17289     17284     17282     17290
     17288     17282     17289     17288     17282     17290     17289     17282     17290
     17282     17284     17286     17282     17284     17287     17286     17284     17287
     17295     17293     17299     17295     17293     17300     17295     17293     17301
     17299     17293     17300     17299     17293     17301     17300     17293     17301
     17293     17295     17297     17293     17295     17298     17297     17295     17298
     17306     17304     17310     17306     17304     17311     17306     17304     17312
     17310     17304     17311     17310     17304     17312     17311     17304     17312
     17304     17306     17308     17304     17306     17309     17308     17306     17309
     17317     17315     17321     17317     17315     17322     17317     17315     17323
     17321     17315     17322     17321     17315     17323     17322     17315     17323
     17315     17317     17319     17315     17317     17320     17319     17317     17320
     17328     17326     17332     17328     17326     17333     17328     17326     17334
     17332     17326     17333     17332     17326     17334     17333     17326     17334
     17326     17328     17330     17326     17328     17331     17330     17328     17331
     17339     17337     17343     17339     17337     17344     17339     17337     17345
     17343     17337     17344     17343     17337     17345     17344     17337     17345
     17337     17339     17341     17337     17339     17342     17341     17339     17342
     17350     17348     17354     17350     17348     17355     17350     17348     17356
     17354     17348     17355     17354     17348     17356     17355     17348     17356
     17348     17350     17352     17348     17350     17353     17352     17350     17353
     17361     17359     17365     17361     17359     17366     17361     17359     17367
     17365     17359     17366     17365     17359     17367     17366     17359     17367
     17359     17361     17363     17359     17361     17364     17363     17361     17364
     17372     17370     17376     17372     17370     17377     17372     17370     17378
     17376     17370     17377     17376     17370     17378     17377     17370     17378
     17370     17372     17374     17370     17372     17375     17374     17372     17375
     17383     17381     17387     17383     17381     17388     17383     17381     17389
     17387     17381     17388     17387     17381     17389     17388     17381     17389
     17381     17383     17385     17381     17383     17386     17385     17383     17386
     17394     17392     17398     17394     17392     17399     17394     17392     17400
     17398     17392     17399     17398     17392     17400     17399     17392     17400
     17392     17394     17396     17392     17394     17397     17396     17394     17397
     17405     17403     17409     17405     17403     17410     17405     17403     17411
     17409     17403     17410     17409     17403     17411     17410     17403     17411
     17403     17405     17407     17403     17405     17408     17407     17405     17408
     17416     17414     17420     17416     17414     17421     17416     17414     17422
     17420     17414     17421     17420     17414     17422     17421     17414     17422
     17414     17416     17418     17414     17416     17419     17418     17416     17419
     17427     17425     17431     17427     17425     17432     17427     17425     17433
     17431     17425     17432     17431     17425     17433     17432     17425     17433
     17425     17427     17429     17425     17427     17430     17429     17427     17430
     17438     17436     17442     17438     17436     17443     17438     17436     17444
     17442     17436     17443     17442     17436     17444     17443     17436     17444
     17436     17438     17440     17436     17438     17441     17440     17438     17441
     17449     17447     17453     17449     17447     17454     17449     17447     17455
     17453     17447     17454     17453     17447     17455     17454     17447     17455
     17447     17449     17451     17447     17449     17452     17451     17449     17452
     17460     17458     17464     17460     17458     17465     17460     17458     17466
     17464     17458     17465     17464     17458     17466     17465     17458     17466
     17458     17460     17462     17458     17460     17463     17462     17460     17463
     17471     17469     17475     17471     17469     17476     17471     17469     17477
     17475     17469     17476     17475     17469     17477     17476     17469     17477
     17469     17471     17473     17469     17471     17474     17473     17471     17474
     17482     17480     17486     17482     17480     17487     17482     17480     17488
     17486     17480     17487     17486     17480     17488     17487     17480     17488
     17480     17482     17484     17480     17482     17485     17484     17482     17485
     17493     17491     17497     17493     17491     17498     17493     17491     17499
     17497     17491     17498     17497     17491     17499     17498     17491     17499
     17491     17493     17495     17491     17493     17496     17495     17493     17496
     17504     17502     17508     17504     17502     17509     17504     17502     17510
     17508     17502     17509     17508     17502     17510     17509     17502     17510
     17502     17504     17506     17502     17504     17507     17506     17504     17507
     17515     17513     17519     17515     17513     17520     17515     17513     17521
     17519     17513     17520     17519     17513     17521     17520     17513     17521
     17513     17515     17517     17513     17515     17518     17517     17515     17518
     17526     17524     17530     17526     17524     17531     17526     17524     17532
     17530     17524     17531     17530     17524     17532     17531     17524     17532
     17524     17526     17528     17524     17526     17529     17528     17526     17529
     17537     17535     17541     17537     17535     17542     17537     17535     17543
     17541     17535     17542     17541     17535     17543     17542     17535     17543
     17535     17537     17539     17535     17537     17540     17539     17537     17540
     17548     17546     17552     17548     17546     17553     17548     17546     17554
     17552     17546     17553     17552     17546     17554     17553     17546     17554
     17546     17548     17550     17546     17548     17551     17550     17548     17551
     17559     17557     17563     17559     17557     17564     17559     17557     17565
     17563     17557     17564     17563     17557     17565     17564     17557     17565
     17557     17559     17561     17557     17559     17562     17561     17559     17562
     17570     17568     17574     17570     17568     17575     17570     17568     17576
     17574     17568     17575     17574     17568     17576     17575     17568     17576
     17568     17570     17572     17568     17570     17573     17572     17570     17573
     17581     17579     17585     17581     17579     17586     17581     17579     17587
     17585     17579     17586     17585     17579     17587     17586     17579     17587
     17579     17581     17583     17579     17581     17584     17583     17581     17584
     17592     17590     17596     17592     17590     17597     17592     17590     17598
     17596     17590     17597     17596     17590     17598     17597     17590     17598
     17590     17592     17594     17590     17592     17595     17594     17592     17595
     17603     17601     17607     17603     17601     17608     17603     17601     17609
     17607     17601     17608     17607     17601     17609     17608     17601     17609
     17601     17603     17605     17601     17603     17606     17605     17603     17606
     17614     17612     17618     17614     17612     17619     17614     17612     17620
     17618     17612     17619     17618     17612     17620     17619     17612     17620
     17612     17614     17616     17612     17614     17617     17616     17614     17617
     17625     17623     17629     17625     17623     17630     17625     17623     17631
     17629     17623     17630     17629     17623     17631     17630     17623     17631
     17623     17625     17627     17623     17625     17628     17627     17625     17628
     17636     17634     17640     17636     17634     17641     17636     17634     17642
     17640     17634     17641     17640     17634     17642     17641     17634     17642
     17634     17636     17638     17634     17636     17639     17638     17636     17639
     17647     17645     17651     17647     17645     17652     17647     17645     17653
     17651     17645     17652     17651     17645     17653     17652     17645     17653
     17645     17647     17649     17645     17647     17650     17649     17647     17650
     17658     17656     17662     17658     17656     17663     17658     17656     17664
     17662     17656     17663     17662     17656     17664     17663     17656     17664
     17656     17658     17660     17656     17658     17661     17660     17658     17661
     17669     17667     17673     17669     17667     17674     17669     17667     17675
     17673     17667     17674     17673     17667     17675     17674     17667     17675
     17667     17669     17671     17667     17669     17672     17671     17669     17672
     17680     17678     17684     17680     17678     17685     17680     17678     17686
     17684     17678     17685     17684     17678     17686     17685     17678     17686
     17678     17680     17682     17678     17680     17683     17682     17680     17683
     17691     17689     17695     17691     17689     17696     17691     17689     17697
     17695     17689     17696     17695     17689     17697     17696     17689     17697
     17689     17691     17693     17689     17691     17694     17693     17691     17694
     17702     17700     17706     17702     17700     17707     17702     17700     17708
     17706     17700     17707     17706     17700     17708     17707     17700     17708
     17700     17702     17704     17700     17702     17705     17704     17702     17705
     17713     17711     17717     17713     17711     17718     17713     17711     17719
     17717     17711     17718     17717     17711     17719     17718     17711     17719
     17711     17713     17715     17711     17713     17716     17715     17713     17716
     17724     17722     17728     17724     17722     17729     17724     17722     17730
     17728     17722     17729     17728     17722     17730     17729     17722     17730
     17722     17724     17726     17722     17724     17727     17726     17724     17727
     17735     17733     17739     17735     17733     17740     17735     17733     17741
     17739     17733     17740     17739     17733     17741     17740     17733     17741
     17733     17735     17737     17733     17735     17738     17737     17735     17738
     17746     17744     17750     17746     17744     17751     17746     17744     17752
     17750     17744     17751     17750     17744     17752     17751     17744     17752
     17744     17746     17748     17744     17746     17749     17748     17746     17749
     17757     17755     17761     17757     17755     17762     17757     17755     17763
     17761     17755     17762     17761     17755     17763     17762     17755     17763
     17755     17757     17759     17755     17757     17760     17759     17757     17760
     17768     17766     17772     17768     17766     17773     17768     17766     17774
     17772     17766     17773     17772     17766     17774     17773     17766     17774
     17766     17768     17770     17766     17768     17771     17770     17768     17771
     17779     17777     17783     17779     17777     17784     17779     17777     17785
     17783     17777     17784     17783     17777     17785     17784     17777     17785
     17777     17779     17781     17777     17779     17782     17781     17779     17782
     17790     17788     17794     17790     17788     17795     17790     17788     17796
     17794     17788     17795     17794     17788     17796     17795     17788     17796
     17788     17790     17792     17788     17790     17793     17792     17790     17793
     17801     17799     17805     17801     17799     17806     17801     17799     17807
     17805     17799     17806     17805     17799     17807     17806     17799     17807
     17799     17801     17803     17799     17801     17804     17803     17801     17804
     17812     17810     17816     17812     17810     17817     17812     17810     17818
     17816     17810     17817     17816     17810     17818     17817     17810     17818
     17810     17812     17814     17810     17812     17815     17814     17812     17815
     17823     17821     17827     17823     17821     17828     17823     17821     17829
     17827     17821     17828     17827     17821     17829     17828     17821     17829
     17821     17823     17825     17821     17823     17826     17825     17823     17826
     17834     17832     17838     17834     17832     17839     17834     17832     17840
     17838     17832     17839     17838     17832     17840     17839     17832     17840
     17832     17834     17836     17832     17834     17837     17836     17834     17837
     17845     17843     17849     17845     17843     17850     17845     17843     17851
     17849     17843     17850     17849     17843     17851     17850     17843     17851
     17843     17845     17847     17843     17845     17848     17847     17845     17848
     17856     17854     17860     17856     17854     17861     17856     17854     17862
     17860     17854     17861     17860     17854     17862     17861     17854     17862
     17854     17856     17858     17854     17856     17859     17858     17856     17859
     17867     17865     17871     17867     17865     17872     17867     17865     17873
     17871     17865     17872     17871     17865     17873     17872     17865     17873
     17865     17867     17869     17865     17867     17870     17869     17867     17870
     17878     17876     17882     17878     17876     17883     17878     17876     17884
     17882     17876     17883     17882     17876     17884     17883     17876     17884
     17876     17878     17880     17876     17878     17881     17880     17878     17881
     17889     17887     17893     17889     17887     17894     17889     17887     17895
     17893     17887     17894     17893     17887     17895     17894     17887     17895
     17887     17889     17891     17887     17889     17892     17891     17889     17892
     17900     17898     17904     17900     17898     17905     17900     17898     17906
     17904     17898     17905     17904     17898     17906     17905     17898     17906
     17898     17900     17902     17898     17900     17903     17902     17900     17903
     17911     17909     17915     17911     17909     17916     17911     17909     17917
     17915     17909     17916     17915     17909     17917     17916     17909     17917
     17909     17911     17913     17909     17911     17914     17913     17911     17914
     17922     17920     17926     17922     17920     17927     17922     17920     17928
     17926     17920     17927     17926     17920     17928     17927     17920     17928
     17920     17922     17924     17920     17922     17925     17924     17922     17925
     17933     17931     17937     17933     17931     17938     17933     17931     17939
     17937     17931     17938     17937     17931     17939     17938     17931     17939
     17931     17933     17935     17931     17933     17936     17935     17933     17936
     17944     17942     17948     17944     17942     17949     17944     17942     17950
     17948     17942     17949     17948     17942     17950     17949     17942     17950
     17942     17944     17946     17942     17944     17947     17946     17944     17947
     17955     17953     17959     17955     17953     17960     17955     17953     17961
     17959     17953     17960     17959     17953     17961     17960     17953     17961
     17953     17955     17957     17953     17955     17958     17957     17955     17958
     17966     17964     17970     17966     17964     17971     17966     17964     17972
     17970     17964     17971     17970     17964     17972     17971     17964     17972
     17964     17966     17968     17964     17966     17969     17968     17966     17969
     17977     17975     17981     17977     17975     17982     17977     17975     17983
     17981     17975     17982     17981     17975     17983     17982     17975     17983
     17975     17977     17979     17975     17977     17980     17979     17977     17980
     17988     17986     17992     17988     17986     17993     17988     17986     17994
     17992     17986     17993     17992     17986     17994     17993     17986     17994
     17986     17988     17990     17986     17988     17991     17990     17988     17991
     17999     17997     18003     17999     17997     18004     17999     17997     18005
     18003     17997     18004     18003     17997     18005     18004     17997     18005
     17997     17999     18001     17997     17999     18002     18001     17999     18002
     18010     18008     18014     18010     18008     18015     18010     18008     18016
     18014     18008     18015     18014     18008     18016     18015     18008     18016
     18008     18010     18012     18008     18010     18013     18012     18010     18013
     18021     18019     18025     18021     18019     18026     18021     18019     18027
     18025     18019     18026     18025     18019     18027     18026     18019     18027
     18019     18021     18023     18019     18021     18024     18023     18021     18024
     18032     18030     18036     18032     18030     18037     18032     18030     18038
     18036     18030     18037     18036     18030     18038     18037     18030     18038
     18030     18032     18034     18030     18032     18035     18034     18032     18035
     18043     18041     18047     18043     18041     18048     18043     18041     18049
     18047     18041     18048     18047     18041     18049     18048     18041     18049
     18041     18043     18045     18041     18043     18046     18045     18043     18046
     18054     18052     18058     18054     18052     18059     18054     18052     18060
     18058     18052     18059     18058     18052     18060     18059     18052     18060
     18052     18054     18056     18052     18054     18057     18056     18054     18057
     18065     18063     18069     18065     18063     18070     18065     18063     18071
     18069     18063     18070     18069     18063     18071     18070     18063     18071
     18063     18065     18067     18063     18065     18068     18067     18065     18068
     18076     18074     18080     18076     18074     18081     18076     18074     18082
     18080     18074     18081     18080     18074     18082     18081     18074     18082
     18074     18076     18078     18074     18076     18079     18078     18076     18079
     18087     18085     18091     18087     18085     18092     18087     18085     18093
     18091     18085     18092     18091     18085     18093     18092     18085     18093
     18085     18087     18089     18085     18087     18090     18089     18087     18090
     18098     18096     18102     18098     18096     18103     18098     18096     18104
     18102     18096     18103     18102     18096     18104     18103     18096     18104
     18096     18098     18100     18096     18098     18101     18100     18098     18101
     18109     18107     18113     18109     18107     18114     18109     18107     18115
     18113     18107     18114     18113     18107     18115     18114     18107     18115
     18107     18109     18111     18107     18109     18112     18111     18109     18112
     18120     18118     18124     18120     18118     18125     18120     18118     18126
     18124     18118     18125     18124     18118     18126     18125     18118     18126
     18118     18120     18122     18118     18120     18123     18122     18120     18123
     18131     18129     18135     18131     18129     18136     18131     18129     18137
     18135     18129     18136     18135     18129     18137     18136     18129     18137
     18129     18131     18133     18129     18131     18134     18133     18131     18134
     18142     18140     18146     18142     18140     18147     18142     18140     18148
     18146     18140     18147     18146     18140     18148     18147     18140     18148
     18140     18142     18144     18140     18142     18145     18144     18142     18145
     18153     18151     18157     18153     18151     18158     18153     18151     18159
     18157     18151     18158     18157     18151     18159     18158     18151     18159
     18151     18153     18155     18151     18153     18156     18155     18153     18156
     18164     18162     18168     18164     18162     18169     18164     18162     18170
     18168     18162     18169     18168     18162     18170     18169     18162     18170
     18162     18164     18166     18162     18164     18167     18166     18164     18167
     18175     18173     18179     18175     18173     18180     18175     18173     18181
     18179     18173     18180     18179     18173     18181     18180     18173     18181
     18173     18175     18177     18173     18175     18178     18177     18175     18178
     18186     18184     18190     18186     18184     18191     18186     18184     18192
     18190     18184     18191     18190     18184     18192     18191     18184     18192
     18184     18186     18188     18184     18186     18189     18188     18186     18189
     18197     18195     18201     18197     18195     18202     18197     18195     18203
     18201     18195     18202     18201     18195     18203     18202     18195     18203
     18195     18197     18199     18195     18197     18200     18199     18197     18200
     18208     18206     18212     18208     18206     18213     18208     18206     18214
     18212     18206     18213     18212     18206     18214     18213     18206     18214
     18206     18208     18210     18206     18208     18211     18210     18208     18211
     18219     18217     18223     18219     18217     18224     18219     18217     18225
     18223     18217     18224     18223     18217     18225     18224     18217     18225
     18217     18219     18221     18217     18219     18222     18221     18219     18222
     18230     18228     18234     18230     18228     18235     18230     18228     18236
     18234     18228     18235     18234     18228     18236     18235     18228     18236
     18228     18230     18232     18228     18230     18233     18232     18230     18233
     18241     18239     18245     18241     18239     18246     18241     18239     18247
     18245     18239     18246     18245     18239     18247     18246     18239     18247
     18239     18241     18243     18239     18241     18244     18243     18241     18244
     18252     18250     18256     18252     18250     18257     18252     18250     18258
     18256     18250     18257     18256     18250     18258     18257     18250     18258
     18250     18252     18254     18250     18252     18255     18254     18252     18255
     18263     18261     18267     18263     18261     18268     18263     18261     18269
     18267     18261     18268     18267     18261     18269     18268     18261     18269
     18261     18263     18265     18261     18263     18266     18265     18263     18266
     18274     18272     18278     18274     18272     18279     18274     18272     18280
     18278     18272     18279     18278     18272     18280     18279     18272     18280
     18272     18274     18276     18272     18274     18277     18276     18274     18277
     18285     18283     18289     18285     18283     18290     18285     18283     18291
     18289     18283     18290     18289     18283     18291     18290     18283     18291
     18283     18285     18287     18283     18285     18288     18287     18285     18288
     18296     18294     18300     18296     18294     18301     18296     18294     18302
     18300     18294     18301     18300     18294     18302     18301     18294     18302
     18294     18296     18298     18294     18296     18299     18298     18296     18299
     18307     18305     18311     18307     18305     18312     18307     18305     18313
     18311     18305     18312     18311     18305     18313     18312     18305     18313
     18305     18307     18309     18305     18307     18310     18309     18307     18310
     18318     18316     18322     18318     18316     18323     18318     18316     18324
     18322     18316     18323     18322     18316     18324     18323     18316     18324
     18316     18318     18320     18316     18318     18321     18320     18318     18321
     18329     18327     18333     18329     18327     18334     18329     18327     18335
     18333     18327     18334     18333     18327     18335     18334     18327     18335
     18327     18329     18331     18327     18329     18332     18331     18329     18332
     18340     18338     18344     18340     18338     18345     18340     18338     18346
     18344     18338     18345     18344     18338     18346     18345     18338     18346
     18338     18340     18342     18338     18340     18343     18342     18340     18343
     18351     18349     18355     18351     18349     18356     18351     18349     18357
     18355     18349     18356     18355     18349     18357     18356     18349     18357
     18349     18351     18353     18349     18351     18354     18353     18351     18354
     18362     18360     18366     18362     18360     18367     18362     18360     18368
     18366     18360     18367     18366     18360     18368     18367     18360     18368
     18360     18362     18364     18360     18362     18365     18364     18362     18365
     18373     18371     18377     18373     18371     18378     18373     18371     18379
     18377     18371     18378     18377     18371     18379     18378     18371     18379
     18371     18373     18375     18371     18373     18376     18375     18373     18376
     18384     18382     18388     18384     18382     18389     18384     18382     18390
     18388     18382     18389     18388     18382     18390     18389     18382     18390
     18382     18384     18386     18382     18384     18387     18386     18384     18387
     18395     18393     18399     18395     18393     18400     18395     18393     18401
     18399     18393     18400     18399     18393     18401     18400     18393     18401
     18393     18395     18397     18393     18395     18398     18397     18395     18398
     18406     18404     18410     18406     18404     18411     18406     18404     18412
     18410     18404     18411     18410     18404     18412     18411     18404     18412
     18404     18406     18408     18404     18406     18409     18408     18406     18409
     18417     18415     18421     18417     18415     18422     18417     18415     18423
     18421     18415     18422     18421     18415     18423     18422     18415     18423
     18415     18417     18419     18415     18417     18420     18419     18417     18420
     18428     18426     18432     18428     18426     18433     18428     18426     18434
     18432     18426     18433     18432     18426     18434     18433     18426     18434
     18426     18428     18430     18426     18428     18431     18430     18428     18431
     18439     18437     18443     18439     18437     18444     18439     18437     18445
     18443     18437     18444     18443     18437     18445     18444     18437     18445
     18437     18439     18441     18437     18439     18442     18441     18439     18442
     18450     18448     18454     18450     18448     18455     18450     18448     18456
     18454     18448     18455     18454     18448     18456     18455     18448     18456
     18448     18450     18452     18448     18450     18453     18452     18450     18453
     18461     18459     18465     18461     18459     18466     18461     18459     18467
     18465     18459     18466     18465     18459     18467     18466     18459     18467
     18459     18461     18463     18459     18461     18464     18463     18461     18464
     18472     18470     18476     18472     18470     18477     18472     18470     18478
     18476     18470     18477     18476     18470     18478     18477     18470     18478
     18470     18472     18474     18470     18472     18475     18474     18472     18475
     18483     18481     18487     18483     18481     18488     18483     18481     18489
     18487     18481     18488     18487     18481     18489     18488     18481     18489
     18481     18483     18485     18481     18483     18486     18485     18483     18486
     18494     18492     18498     18494     18492     18499     18494     18492     18500
     18498     18492     18499     18498     18492     18500     18499     18492     18500
     18492     18494     18496     18492     18494     18497     18496     18494     18497
     18505     18503     18509     18505     18503     18510     18505     18503     18511
     18509     18503     18510     18509     18503     18511     18510     18503     18511
     18503     18505     18507     18503     18505     18508     18507     18505     18508
     18516     18514     18520     18516     18514     18521     18516     18514     18522
     18520     18514     18521     18520     18514     18522     18521     18514     18522
     18514     18516     18518     18514     18516     18519     18518     18516     18519
     18527     18525     18531     18527     18525     18532     18527     18525     18533
     18531     18525     18532     18531     18525     18533     18532     18525     18533
     18525     18527     18529     18525     18527     18530     18529     18527     18530
     18538     18536     18542     18538     18536     18543     18538     18536     18544
     18542     18536     18543     18542     18536     18544     18543     18536     18544
     18536     18538     18540     18536     18538     18541     18540     18538     18541
     18549     18547     18553     18549     18547     18554     18549     18547     18555
     18553     18547     18554     18553     18547     18555     18554     18547     18555
     18547     18549     18551     18547     18549     18552     18551     18549     18552
     18560     18558     18564     18560     18558     18565     18560     18558     18566
     18564     18558     18565     18564     18558     18566     18565     18558     18566
     18558     18560     18562     18558     18560     18563     18562     18560     18563
     18571     18569     18575     18571     18569     18576     18571     18569     18577
     18575     18569     18576     18575     18569     18577     18576     18569     18577
     18569     18571     18573     18569     18571     18574     18573     18571     18574
     18582     18580     18586     18582     18580     18587     18582     18580     18588
     18586     18580     18587     18586     18580     18588     18587     18580     18588
     18580     18582     18584     18580     18582     18585     18584     18582     18585
     18593     18591     18597     18593     18591     18598     18593     18591     18599
     18597     18591     18598     18597     18591     18599     18598     18591     18599
     18591     18593     18595     18591     18593     18596     18595     18593     18596
     18604     18602     18608     18604     18602     18609     18604     18602     18610
     18608     18602     18609     18608     18602     18610     18609     18602     18610
     18602     18604     18606     18602     18604     18607     18606     18604     18607
     18615     18613     18619     18615     18613     18620     18615     18613     18621
     18619     18613     18620     18619     18613     18621     18620     18613     18621
     18613     18615     18617     18613     18615     18618     18617     18615     18618
     18626     18624     18630     18626     18624     18631     18626     18624     18632
     18630     18624     18631     18630     18624     18632     18631     18624     18632
     18624     18626     18628     18624     18626     18629     18628     18626     18629
     18637     18635     18641     18637     18635     18642     18637     18635     18643
     18641     18635     18642     18641     18635     18643     18642     18635     18643
     18635     18637     18639     18635     18637     18640     18639     18637     18640
     18648     18646     18652     18648     18646     18653     18648     18646     18654
     18652     18646     18653     18652     18646     18654     18653     18646     18654
     18646     18648     18650     18646     18648     18651     18650     18648     18651
     18659     18657     18663     18659     18657     18664     18659     18657     18665
     18663     18657     18664     18663     18657     18665     18664     18657     18665
     18657     18659     18661     18657     18659     18662     18661     18659     18662
     18670     18668     18674     18670     18668     18675     18670     18668     18676
     18674     18668     18675     18674     18668     18676     18675     18668     18676
     18668     18670     18672     18668     18670     18673     18672     18670     18673
     18681     18679     18685     18681     18679     18686     18681     18679     18687
     18685     18679     18686     18685     18679     18687     18686     18679     18687
     18679     18681     18683     18679     18681     18684     18683     18681     18684
     18692     18690     18696     18692     18690     18697     18692     18690     18698
     18696     18690     18697     18696     18690     18698     18697     18690     18698
     18690     18692     18694     18690     18692     18695     18694     18692     18695
     18703     18701     18707     18703     18701     18708     18703     18701     18709
     18707     18701     18708     18707     18701     18709     18708     18701     18709
     18701     18703     18705     18701     18703     18706     18705     18703     18706
     18714     18712     18718     18714     18712     18719     18714     18712     18720
     18718     18712     18719     18718     18712     18720     18719     18712     18720
     18712     18714     18716     18712     18714     18717     18716     18714     18717
     18725     18723     18729     18725     18723     18730     18725     18723     18731
     18729     18723     18730     18729     18723     18731     18730     18723     18731
     18723     18725     18727     18723     18725     18728     18727     18725     18728
     18736     18734     18740     18736     18734     18741     18736     18734     18742
     18740     18734     18741     18740     18734     18742     18741     18734     18742
     18734     18736     18738     18734     18736     18739     18738     18736     18739
     18747     18745     18751     18747     18745     18752     18747     18745     18753
     18751     18745     18752     18751     18745     18753     18752     18745     18753
     18745     18747     18749     18745     18747     18750     18749     18747     18750
     18758     18756     18762     18758     18756     18763     18758     18756     18764
     18762     18756     18763     18762     18756     18764     18763     18756     18764
     18756     18758     18760     18756     18758     18761     18760     18758     18761
     18769     18767     18773     18769     18767     18774     18769     18767     18775
     18773     18767     18774     18773     18767     18775     18774     18767     18775
     18767     18769     18771     18767     18769     18772     18771     18769     18772
     18780     18778     18784     18780     18778     18785     18780     18778     18786
     18784     18778     18785     18784     18778     18786     18785     18778     18786
     18778     18780     18782     18778     18780     18783     18782     18780     18783
     18791     18789     18795     18791     18789     18796     18791     18789     18797
     18795     18789     18796     18795     18789     18797     18796     18789     18797
     18789     18791     18793     18789     18791     18794     18793     18791     18794
     18802     18800     18806     18802     18800     18807     18802     18800     18808
     18806     18800     18807     18806     18800     18808     18807     18800     18808
     18800     18802     18804     18800     18802     18805     18804     18802     18805
     18813     18811     18817     18813     18811     18818     18813     18811     18819
     18817     18811     18818     18817     18811     18819     18818     18811     18819
     18811     18813     18815     18811     18813     18816     18815     18813     18816
     18824     18822     18828     18824     18822     18829     18824     18822     18830
     18828     18822     18829     18828     18822     18830     18829     18822     18830
     18822     18824     18826     18822     18824     18827     18826     18824     18827
     18835     18833     18839     18835     18833     18840     18835     18833     18841
     18839     18833     18840     18839     18833     18841     18840     18833     18841
     18833     18835     18837     18833     18835     18838     18837     18835     18838
     18846     18844     18850     18846     18844     18851     18846     18844     18852
     18850     18844     18851     18850     18844     18852     18851     18844     18852
     18844     18846     18848     18844     18846     18849     18848     18846     18849
     18857     18855     18861     18857     18855     18862     18857     18855     18863
     18861     18855     18862     18861     18855     18863     18862     18855     18863
     18855     18857     18859     18855     18857     18860     18859     18857     18860
     18868     18866     18872     18868     18866     18873     18868     18866     18874
     18872     18866     18873     18872     18866     18874     18873     18866     18874
     18866     18868     18870     18866     18868     18871     18870     18868     18871
     18879     18877     18883     18879     18877     18884     18879     18877     18885
     18883     18877     18884     18883     18877     18885     18884     18877     18885
     18877     18879     18881     18877     18879     18882     18881     18879     18882
     18890     18888     18894     18890     18888     18895     18890     18888     18896
     18894     18888     18895     18894     18888     18896     18895     18888     18896
     18888     18890     18892     18888     18890     18893     18892     18890     18893
     18901     18899     18905     18901     18899     18906     18901     18899     18907
     18905     18899     18906     18905     18899     18907     18906     18899     18907
     18899     18901     18903     18899     18901     18904     18903     18901     18904
     18912     18910     18916     18912     18910     18917     18912     18910     18918
     18916     18910     18917     18916     18910     18918     18917     18910     18918
     18910     18912     18914     18910     18912     18915     18914     18912     18915
     18923     18921     18927     18923     18921     18928     18923     18921     18929
     18927     18921     18928     18927     18921     18929     18928     18921     18929
     18921     18923     18925     18921     18923     18926     18925     18923     18926
     18934     18932     18938     18934     18932     18939     18934     18932     18940
     18938     18932     18939     18938     18932     18940     18939     18932     18940
     18932     18934     18936     18932     18934     18937     18936     18934     18937
     18945     18943     18949     18945     18943     18950     18945     18943     18951
     18949     18943     18950     18949     18943     18951     18950     18943     18951
     18943     18945     18947     18943     18945     18948     18947     18945     18948
     18956     18954     18960     18956     18954     18961     18956     18954     18962
     18960     18954     18961     18960     18954     18962     18961     18954     18962
     18954     18956     18958     18954     18956     18959     18958     18956     18959
     18967     18965     18971     18967     18965     18972     18967     18965     18973
     18971     18965     18972     18971     18965     18973     18972     18965     18973
     18965     18967     18969     18965     18967     18970     18969     18967     18970
     18978     18976     18982     18978     18976     18983     18978     18976     18984
     18982     18976     18983     18982     18976     18984     18983     18976     18984
     18976     18978     18980     18976     18978     18981     18980     18978     18981
     18989     18987     18993     18989     18987     18994     18989     18987     18995
     18993     18987     18994     18993     18987     18995     18994     18987     18995
     18987     18989     18991     18987     18989     18992     18991     18989     18992
     19000     18998     19004     19000     18998     19005     19000     18998     19006
     19004     18998     19005     19004     18998     19006     19005     18998     19006
     18998     19000     19002     18998     19000     19003     19002     19000     19003
     19011     19009     19015     19011     19009     19016     19011     19009     19017
     19015     19009     19016     19015     19009     19017     19016     19009     19017
     19009     19011     19013     19009     19011     19014     19013     19011     19014
     19022     19020     19026     19022     19020     19027     19022     19020     19028
     19026     19020     19027     19026     19020     19028     19027     19020     19028
     19020     19022     19024     19020     19022     19025     19024     19022     19025
     19033     19031     19037     19033     19031     19038     19033     19031     19039
     19037     19031     19038     19037     19031     19039     19038     19031     19039
     19031     19033     19035     19031     19033     19036     19035     19033     19036
     19044     19042     19048     19044     19042     19049     19044     19042     19050
     19048     19042     19049     19048     19042     19050     19049     19042     19050
     19042     19044     19046     19042     19044     19047     19046     19044     19047
     19055     19053     19059     19055     19053     19060     19055     19053     19061
     19059     19053     19060     19059     19053     19061     19060     19053     19061
     19053     19055     19057     19053     19055     19058     19057     19055     19058
     19066     19064     19070     19066     19064     19071     19066     19064     19072
     19070     19064     19071     19070     19064     19072     19071     19064     19072
     19064     19066     19068     19064     19066     19069     19068     19066     19069
     19077     19075     19081     19077     19075     19082     19077     19075     19083
     19081     19075     19082     19081     19075     19083     19082     19075     19083
     19075     19077     19079     19075     19077     19080     19079     19077     19080
     19088     19086     19092     19088     19086     19093     19088     19086     19094
     19092     19086     19093     19092     19086     19094     19093     19086     19094
     19086     19088     19090     19086     19088     19091     19090     19088     19091
     19099     19097     19103     19099     19097     19104     19099     19097     19105
     19103     19097     19104     19103     19097     19105     19104     19097     19105
     19097     19099     19101     19097     19099     19102     19101     19099     19102
     19110     19108     19114     19110     19108     19115     19110     19108     19116
     19114     19108     19115     19114     19108     19116     19115     19108     19116
     19108     19110     19112     19108     19110     19113     19112     19110     19113
     19121     19119     19125     19121     19119     19126     19121     19119     19127
     19125     19119     19126     19125     19119     19127     19126     19119     19127
     19119     19121     19123     19119     19121     19124     19123     19121     19124
     19132     19130     19136     19132     19130     19137     19132     19130     19138
     19136     19130     19137     19136     19130     19138     19137     19130     19138
     19130     19132     19134     19130     19132     19135     19134     19132     19135
     19143     19141     19147     19143     19141     19148     19143     19141     19149
     19147     19141     19148     19147     19141     19149     19148     19141     19149
     19141     19143     19145     19141     19143     19146     19145     19143     19146
     19154     19152     19158     19154     19152     19159     19154     19152     19160
     19158     19152     19159     19158     19152     19160     19159     19152     19160
     19152     19154     19156     19152     19154     19157     19156     19154     19157
     19165     19163     19169     19165     19163     19170     19165     19163     19171
     19169     19163     19170     19169     19163     19171     19170     19163     19171
     19163     19165     19167     19163     19165     19168     19167     19165     19168
     19176     19174     19180     19176     19174     19181     19176     19174     19182
     19180     19174     19181     19180     19174     19182     19181     19174     19182
     19174     19176     19178     19174     19176     19179     19178     19176     19179
     19187     19185     19191     19187     19185     19192     19187     19185     19193
     19191     19185     19192     19191     19185     19193     19192     19185     19193
     19185     19187     19189     19185     19187     19190     19189     19187     19190
     19198     19196     19202     19198     19196     19203     19198     19196     19204
     19202     19196     19203     19202     19196     19204     19203     19196     19204
     19196     19198     19200     19196     19198     19201     19200     19198     19201
     19209     19207     19213     19209     19207     19214     19209     19207     19215
     19213     19207     19214     19213     19207     19215     19214     19207     19215
     19207     19209     19211     19207     19209     19212     19211     19209     19212
     19220     19218     19224     19220     19218     19225     19220     19218     19226
     19224     19218     19225     19224     19218     19226     19225     19218     19226
     19218     19220     19222     19218     19220     19223     19222     19220     19223
     19231     19229     19235     19231     19229     19236     19231     19229     19237
     19235     19229     19236     19235     19229     19237     19236     19229     19237
     19229     19231     19233     19229     19231     19234     19233     19231     19234
     19242     19240     19246     19242     19240     19247     19242     19240     19248
     19246     19240     19247     19246     19240     19248     19247     19240     19248
     19240     19242     19244     19240     19242     19245     19244     19242     19245
     19253     19251     19257     19253     19251     19258     19253     19251     19259
     19257     19251     19258     19257     19251     19259     19258     19251     19259
     19251     19253     19255     19251     19253     19256     19255     19253     19256
     19264     19262     19268     19264     19262     19269     19264     19262     19270
     19268     19262     19269     19268     19262     19270     19269     19262     19270
     19262     19264     19266     19262     19264     19267     19266     19264     19267
     19275     19273     19279     19275     19273     19280     19275     19273     19281
     19279     19273     19280     19279     19273     19281     19280     19273     19281
     19273     19275     19277     19273     19275     19278     19277     19275     19278
     19286     19284     19290     19286     19284     19291     19286     19284     19292
     19290     19284     19291     19290     19284     19292     19291     19284     19292
     19284     19286     19288     19284     19286     19289     19288     19286     19289
     19297     19295     19301     19297     19295     19302     19297     19295     19303
     19301     19295     19302     19301     19295     19303     19302     19295     19303
     19295     19297     19299     19295     19297     19300     19299     19297     19300
     19308     19306     19312     19308     19306     19313     19308     19306     19314
     19312     19306     19313     19312     19306     19314     19313     19306     19314
     19306     19308     19310     19306     19308     19311     19310     19308     19311
     19319     19317     19323     19319     19317     19324     19319     19317     19325
     19323     19317     19324     19323     19317     19325     19324     19317     19325
     19317     19319     19321     19317     19319     19322     19321     19319     19322
     19330     19328     19334     19330     19328     19335     19330     19328     19336
     19334     19328     19335     19334     19328     19336     19335     19328     19336
     19328     19330     19332     19328     19330     19333     19332     19330     19333
     19341     19339     19345     19341     19339     19346     19341     19339     19347
     19345     19339     19346     19345     19339     19347     19346     19339     19347
     19339     19341     19343     19339     19341     19344     19343     19341     19344
     19352     19350     19356     19352     19350     19357     19352     19350     19358
     19356     19350     19357     19356     19350     19358     19357     19350     19358
     19350     19352     19354     19350     19352     19355     19354     19352     19355
     19363     19361     19367     19363     19361     19368     19363     19361     19369
     19367     19361     19368     19367     19361     19369     19368     19361     19369
     19361     19363     19365     19361     19363     19366     19365     19363     19366
     19374     19372     19378     19374     19372     19379     19374     19372     19380
     19378     19372     19379     19378     19372     19380     19379     19372     19380
     19372     19374     19376     19372     19374     19377     19376     19374     19377
     19385     19383     19389     19385     19383     19390     19385     19383     19391
     19389     19383     19390     19389     19383     19391     19390     19383     19391
     19383     19385     19387     19383     19385     19388     19387     19385     19388
     19396     19394     19400     19396     19394     19401     19396     19394     19402
     19400     19394     19401     19400     19394     19402     19401     19394     19402
     19394     19396     19398     19394     19396     19399     19398     19396     19399
     19407     19405     19411     19407     19405     19412     19407     19405     19413
     19411     19405     19412     19411     19405     19413     19412     19405     19413
     19405     19407     19409     19405     19407     19410     19409     19407     19410
     19418     19416     19422     19418     19416     19423     19418     19416     19424
     19422     19416     19423     19422     19416     19424     19423     19416     19424
     19416     19418     19420     19416     19418     19421     19420     19418     19421
     19429     19427     19433     19429     19427     19434     19429     19427     19435
     19433     19427     19434     19433     19427     19435     19434     19427     19435
     19427     19429     19431     19427     19429     19432     19431     19429     19432
     19440     19438     19444     19440     19438     19445     19440     19438     19446
     19444     19438     19445     19444     19438     19446     19445     19438     19446
     19438     19440     19442     19438     19440     19443     19442     19440     19443
     19451     19449     19455     19451     19449     19456     19451     19449     19457
     19455     19449     19456     19455     19449     19457     19456     19449     19457
     19449     19451     19453     19449     19451     19454     19453     19451     19454
     19462     19460     19466     19462     19460     19467     19462     19460     19468
     19466     19460     19467     19466     19460     19468     19467     19460     19468
     19460     19462     19464     19460     19462     19465     19464     19462     19465
     19473     19471     19477     19473     19471     19478     19473     19471     19479
     19477     19471     19478     19477     19471     19479     19478     19471     19479
     19471     19473     19475     19471     19473     19476     19475     19473     19476
     19484     19482     19488     19484     19482     19489     19484     19482     19490
     19488     19482     19489     19488     19482     19490     19489     19482     19490
     19482     19484     19486     19482     19484     19487     19486     19484     19487
     19495     19493     19499     19495     19493     19500     19495     19493     19501
     19499     19493     19500     19499     19493     19501     19500     19493     19501
     19493     19495     19497     19493     19495     19498     19497     19495     19498
     19506     19504     19510     19506     19504     19511     19506     19504     19512
     19510     19504     19511     19510     19504     19512     19511     19504     19512
     19504     19506     19508     19504     19506     19509     19508     19506     19509
     19517     19515     19521     19517     19515     19522     19517     19515     19523
     19521     19515     19522     19521     19515     19523     19522     19515     19523
     19515     19517     19519     19515     19517     19520     19519     19517     19520
     19528     19526     19532     19528     19526     19533     19528     19526     19534
     19532     19526     19533     19532     19526     19534     19533     19526     19534
     19526     19528     19530     19526     19528     19531     19530     19528     19531
     19539     19537     19543     19539     19537     19544     19539     19537     19545
     19543     19537     19544     19543     19537     19545     19544     19537     19545
     19537     19539     19541     19537     19539     19542     19541     19539     19542
     19550     19548     19554     19550     19548     19555     19550     19548     19556
     19554     19548     19555     19554     19548     19556     19555     19548     19556
     19548     19550     19552     19548     19550     19553     19552     19550     19553
     19561     19559     19565     19561     19559     19566     19561     19559     19567
     19565     19559     19566     19565     19559     19567     19566     19559     19567
     19559     19561     19563     19559     19561     19564     19563     19561     19564
     19572     19570     19576     19572     19570     19577     19572     19570     19578
     19576     19570     19577     19576     19570     19578     19577     19570     19578
     19570     19572     19574     19570     19572     19575     19574     19572     19575
     19583     19581     19587     19583     19581     19588     19583     19581     19589
     19587     19581     19588     19587     19581     19589     19588     19581     19589
     19581     19583     19585     19581     19583     19586     19585     19583     19586
     19594     19592     19598     19594     19592     19599     19594     19592     19600
     19598     19592     19599     19598     19592     19600     19599     19592     19600
     19592     19594     19596     19592     19594     19597     19596     19594     19597
     19605     19603     19609     19605     19603     19610     19605     19603     19611
     19609     19603     19610     19609     19603     19611     19610     19603     19611
     19603     19605     19607     19603     19605     19608     19607     19605     19608
     19616     19614     19620     19616     19614     19621     19616     19614     19622
     19620     19614     19621     19620     19614     19622     19621     19614     19622
     19614     19616     19618     19614     19616     19619     19618     19616     19619
     19627     19625     19631     19627     19625     19632     19627     19625     19633
     19631     19625     19632     19631     19625     19633     19632     19625     19633
     19625     19627     19629     19625     19627     19630     19629     19627     19630
     19638     19636     19642     19638     19636     19643     19638     19636     19644
     19642     19636     19643     19642     19636     19644     19643     19636     19644
     19636     19638     19640     19636     19638     19641     19640     19638     19641
     19649     19647     19653     19649     19647     19654     19649     19647     19655
     19653     19647     19654     19653     19647     19655     19654     19647     19655
     19647     19649     19651     19647     19649     19652     19651     19649     19652
     19660     19658     19664     19660     19658     19665     19660     19658     19666
     19664     19658     19665     19664     19658     19666     19665     19658     19666
     19658     19660     19662     19658     19660     19663     19662     19660     19663
     19671     19669     19675     19671     19669     19676     19671     19669     19677
     19675     19669     19676     19675     19669     19677     19676     19669     19677
     19669     19671     19673     19669     19671     19674     19673     19671     19674
     19682     19680     19686     19682     19680     19687     19682     19680     19688
     19686     19680     19687     19686     19680     19688     19687     19680     19688
     19680     19682     19684     19680     19682     19685     19684     19682     19685
     19693     19691     19697     19693     19691     19698     19693     19691     19699
     19697     19691     19698     19697     19691     19699     19698     19691     19699
     19691     19693     19695     19691     19693     19696     19695     19693     19696
     19704     19702     19708     19704     19702     19709     19704     19702     19710
     19708     19702     19709     19708     19702     19710     19709     19702     19710
     19702     19704     19706     19702     19704     19707     19706     19704     19707
     19715     19713     19719     19715     19713     19720     19715     19713     19721
     19719     19713     19720     19719     19713     19721     19720     19713     19721
     19713     19715     19717     19713     19715     19718     19717     19715     19718
     19726     19724     19730     19726     19724     19731     19726     19724     19732
     19730     19724     19731     19730     19724     19732     19731     19724     19732
     19724     19726     19728     19724     19726     19729     19728     19726     19729
     19737     19735     19741     19737     19735     19742     19737     19735     19743
     19741     19735     19742     19741     19735     19743     19742     19735     19743
     19735     19737     19739     19735     19737     19740     19739     19737     19740
     19748     19746     19752     19748     19746     19753     19748     19746     19754
     19752     19746     19753     19752     19746     19754     19753     19746     19754
     19746     19748     19750     19746     19748     19751     19750     19748     19751
     19759     19757     19763     19759     19757     19764     19759     19757     19765
     19763     19757     19764     19763     19757     19765     19764     19757     19765
     19757     19759     19761     19757     19759     19762     19761     19759     19762
     19770     19768     19774     19770     19768     19775     19770     19768     19776
     19774     19768     19775     19774     19768     19776     19775     19768     19776
     19768     19770     19772     19768     19770     19773     19772     19770     19773
     19781     19779     19785     19781     19779     19786     19781     19779     19787
     19785     19779     19786     19785     19779     19787     19786     19779     19787
     19779     19781     19783     19779     19781     19784     19783     19781     19784
     19792     19790     19796     19792     19790     19797     19792     19790     19798
     19796     19790     19797     19796     19790     19798     19797     19790     19798
     19790     19792     19794     19790     19792     19795     19794     19792     19795
     19803     19801     19807     19803     19801     19808     19803     19801     19809
     19807     19801     19808     19807     19801     19809     19808     19801     19809
     19801     19803     19805     19801     19803     19806     19805     19803     19806
     19814     19812     19818     19814     19812     19819     19814     19812     19820
     19818     19812     19819     19818     19812     19820     19819     19812     19820
     19812     19814     19816     19812     19814     19817     19816     19814     19817
     19825     19823     19829     19825     19823     19830     19825     19823     19831
     19829     19823     19830     19829     19823     19831     19830     19823     19831
     19823     19825     19827     19823     19825     19828     19827     19825     19828
     19836     19834     19840     19836     19834     19841     19836     19834     19842
     19840     19834     19841     19840     19834     19842     19841     19834     19842
     19834     19836     19838     19834     19836     19839     19838     19836     19839
     19847     19845     19851     19847     19845     19852     19847     19845     19853
     19851     19845     19852     19851     19845     19853     19852     19845     19853
     19845     19847     19849     19845     19847     19850     19849     19847     19850
     19858     19856     19862     19858     19856     19863     19858     19856     19864
     19862     19856     19863     19862     19856     19864     19863     19856     19864
     19856     19858     19860     19856     19858     19861     19860     19858     19861

     12894 !NPHI: dihedrals
         1         6         8        10         1         6         8        11
         1         6        14        16         1         6        14        17
         3         1         6         8         3         1         6        14
         4         1         6         8         4         1         6        14
         5         1         6         8         5         1         6        14
         6         8        11        13         6         8        11        17
         6        14        17        11         6        14        17        19
         8         6        14        16         8         6        14        17
         8        11        17        14         8        11        17        19
        10         8         6        14        10         8        11        13
        10         8        11        17        11         8         6        14
        11        17        14        16        13        11        17        14
        13        11        17        19        16        14        17        19
        21        26        28        30        21        26        28        31
        21        26        34        36        21        26        34        37
        23        21        26        28        23        21        26        34
        24        21        26        28        24        21        26        34
        25        21        26        28        25        21        26        34
        26        28        31        33        26        28        31        37
        26        34        37        31        26        34        37        39
        28        26        34        36        28        26        34        37
        28        31        37        34        28        31        37        39
        30        28        26        34        30        28        31        33
        30        28        31        37        31        28        26        34
        31        37        34        36        33        31        37        34
        33        31        37        39        36        34        37        39
        41        46        48        50        41        46        48        51
        41        46        54        56        41        46        54        57
        43        41        46        48        43        41        46        54
        44        41        46        48        44        41        46        54
        45        41        46        48        45        41        46        54
        46        48        51        53        46        48        51        57
        46        54        57        51        46        54        57        59
        48        46        54        56        48        46        54        57
        48        51        57        54        48        51        57        59
        50        48        46        54        50        48        51        53
        50        48        51        57        51        48        46        54
        51        57        54        56        53        51        57        54
        53        51        57        59        56        54        57        59
        61        66        68        70        61        66        68        71
        61        66        74        76        61        66        74        77
        63        61        66        68        63        61        66        74
        64        61        66        68        64        61        66        74
        65        61        66        68        65        61        66        74
        66        68        71        73        66        68        71        77
        66        74        77        71        66        74        77        79
        68        66        74        76        68        66        74        77
        68        71        77        74        68        71        77        79
        70        68        66        74        70        68        71        73
        70        68        71        77        71        68        66        74
        71        77        74        76        73        71        77        74
        73        71        77        79        76        74        77        79
        81        86        88        90        81        86        88        91
        81        86        94        96        81        86        94        97
        83        81        86        88        83        81        86        94
        84        81        86        88        84        81        86        94
        85        81        86        88        85        81        86        94
        86        88        91        93        86        88        91        97
        86        94        97        91        86        94        97        99
        88        86        94        96        88        86        94        97
        88        91        97        94        88        91        97        99
        90        88        86        94        90        88        91        93
        90        88        91        97        91        88        86        94
        91        97        94        96        93        91        97        94
        93        91        97        99        96        94        97        99
       101       106       108       110       101       106       108       111
       101       106       114       116       101       106       114       117
       103       101       106       108       103       101       106       114
       104       101       106       108       104       101       106       114
       105       101       106       108       105       101       106       114
       106       108       111       113       106       108       111       117
       106       114       117       111       106       114       117       119
       108       106       114       116       108       106       114       117
       108       111       117       114       108       111       117       119
       110       108       106       114       110       108       111       113
       110       108       111       117       111       108       106       114
       111       117       114       116       113       111       117       114
       113       111       117       119       116       114       117       119
       121       126       128       130       121       126       128       131
       121       126       134       136       121       126       134       137
       123       121       126       128       123       121       126       134
       124       121       126       128       124       121       126       134
       125       121       126       128       125       121       126       134
       126       128       131       133       126       128       131       137
       126       134       137       131       126       134       137       139
       128       126       134       136       128       126       134       137
       128       131       137       134       128       131       137       139
       130       128       126       134       130       128       131       133
       130       128       131       137       131       128       126       134
       131       137       134       136       133       131       137       134
       133       131       137       139       136       134       137       139
       141       146       148       150       141       146       148       151
       141       146       154       156       141       146       154       157
       143       141       146       148       143       141       146       154
       144       141       146       148       144       141       146       154
       145       141       146       148       145       141       146       154
       146       148       151       153       146       148       151       157
       146       154       157       151       146       154       157       159
       148       146       154       156       148       146       154       157
       148       151       157       154       148       151       157       159
       150       148       146       154       150       148       151       153
       150       148       151       157       151       148       146       154
       151       157       154       156       153       151       157       154
       153       151       157       159       156       154       157       159
       161       166       168       170       161       166       168       171
       161       166       174       176       161       166       174       177
       163       161       166       168       163       161       166       174
       164       161       166       168       164       161       166       174
       165       161       166       168       165       161       166       174
       166       168       171       173       166       168       171       177
       166       174       177       171       166       174       177       179
       168       166       174       176       168       166       174       177
       168       171       177       174       168       171       177       179
       170       168       166       174       170       168       171       173
       170       168       171       177       171       168       166       174
       171       177       174       176       173       171       177       174
       173       171       177       179       176       174       177       179
       181       186       188       190       181       186       188       191
       181       186       194       196       181       186       194       197
       183       181       186       188       183       181       186       194
       184       181       186       188       184       181       186       194
       185       181       186       188       185       181       186       194
       186       188       191       193       186       188       191       197
       186       194       197       191       186       194       197       199
       188       186       194       196       188       186       194       197
       188       191       197       194       188       191       197       199
       190       188       186       194       190       188       191       193
       190       188       191       197       191       188       186       194
       191       197       194       196       193       191       197       194
       193       191       197       199       196       194       197       199
       201       206       208       210       201       206       208       211
       201       206       214       216       201       206       214       217
       203       201       206       208       203       201       206       214
       204       201       206       208       204       201       206       214
       205       201       206       208       205       201       206       214
       206       208       211       213       206       208       211       217
       206       214       217       211       206       214       217       219
       208       206       214       216       208       206       214       217
       208       211       217       214       208       211       217       219
       210       208       206       214       210       208       211       213
       210       208       211       217       211       208       206       214
       211       217       214       216       213       211       217       214
       213       211       217       219       216       214       217       219
       221       226       228       230       221       226       228       231
       221       226       234       236       221       226       234       237
       223       221       226       228       223       221       226       234
       224       221       226       228       224       221       226       234
       225       221       226       228       225       221       226       234
       226       228       231       233       226       228       231       237
       226       234       237       231       226       234       237       239
       228       226       234       236       228       226       234       237
       228       231       237       234       228       231       237       239
       230       228       226       234       230       228       231       233
       230       228       231       237       231       228       226       234
       231       237       234       236       233       231       237       234
       233       231       237       239       236       234       237       239
       241       246       248       250       241       246       248       251
       241       246       254       256       241       246       254       257
       243       241       246       248       243       241       246       254
       244       241       246       248       244       241       246       254
       245       241       246       248       245       241       246       254
       246       248       251       253       246       248       251       257
       246       254       257       251       246       254       257       259
       248       246       254       256       248       246       254       257
       248       251       257       254       248       251       257       259
       250       248       246       254       250       248       251       253
       250       248       251       257       251       248       246       254
       251       257       254       256       253       251       257       254
       253       251       257       259       256       254       257       259
       261       266       268       270       261       266       268       271
       261       266       274       276       261       266       274       277
       263       261       266       268       263       261       266       274
       264       261       266       268       264       261       266       274
       265       261       266       268       265       261       266       274
       266       268       271       273       266       268       271       277
       266       274       277       271       266       274       277       279
       268       266       274       276       268       266       274       277
       268       271       277       274       268       271       277       279
       270       268       266       274       270       268       271       273
       270       268       271       277       271       268       266       274
       271       277       274       276       273       271       277       274
       273       271       277       279       276       274       277       279
       281       286       288       290       281       286       288       291
       281       286       294       296       281       286       294       297
       283       281       286       288       283       281       286       294
       284       281       286       288       284       281       286       294
       285       281       286       288       285       281       286       294
       286       288       291       293       286       288       291       297
       286       294       297       291       286       294       297       299
       288       286       294       296       288       286       294       297
       288       291       297       294       288       291       297       299
       290       288       286       294       290       288       291       293
       290       288       291       297       291       288       286       294
       291       297       294       296       293       291       297       294
       293       291       297       299       296       294       297       299
       301       306       308       310       301       306       308       311
       301       306       314       316       301       306       314       317
       303       301       306       308       303       301       306       314
       304       301       306       308       304       301       306       314
       305       301       306       308       305       301       306       314
       306       308       311       313       306       308       311       317
       306       314       317       311       306       314       317       319
       308       306       314       316       308       306       314       317
       308       311       317       314       308       311       317       319
       310       308       306       314       310       308       311       313
       310       308       311       317       311       308       306       314
       311       317       314       316       313       311       317       314
       313       311       317       319       316       314       317       319
       321       326       328       330       321       326       328       331
       321       326       334       336       321       326       334       337
       323       321       326       328       323       321       326       334
       324       321       326       328       324       321       326       334
       325       321       326       328       325       321       326       334
       326       328       331       333       326       328       331       337
       326       334       337       331       326       334       337       339
       328       326       334       336       328       326       334       337
       328       331       337       334       328       331       337       339
       330       328       326       334       330       328       331       333
       330       328       331       337       331       328       326       334
       331       337       334       336       333       331       337       334
       333       331       337       339       336       334       337       339
       341       346       348       350       341       346       348       351
       341       346       354       356       341       346       354       357
       343       341       346       348       343       341       346       354
       344       341       346       348       344       341       346       354
       345       341       346       348       345       341       346       354
       346       348       351       353       346       348       351       357
       346       354       357       351       346       354       357       359
       348       346       354       356       348       346       354       357
       348       351       357       354       348       351       357       359
       350       348       346       354       350       348       351       353
       350       348       351       357       351       348       346       354
       351       357       354       356       353       351       357       354
       353       351       357       359       356       354       357       359
       361       366       368       370       361       366       368       371
       361       366       374       376       361       366       374       377
       363       361       366       368       363       361       366       374
       364       361       366       368       364       361       366       374
       365       361       366       368       365       361       366       374
       366       368       371       373       366       368       371       377
       366       374       377       371       366       374       377       379
       368       366       374       376       368       366       374       377
       368       371       377       374       368       371       377       379
       370       368       366       374       370       368       371       373
       370       368       371       377       371       368       366       374
       371       377       374       376       373       371       377       374
       373       371       377       379       376       374       377       379
       381       386       388       390       381       386       388       391
       381       386       394       396       381       386       394       397
       383       381       386       388       383       381       386       394
       384       381       386       388       384       381       386       394
       385       381       386       388       385       381       386       394
       386       388       391       393       386       388       391       397
       386       394       397       391       386       394       397       399
       388       386       394       396       388       386       394       397
       388       391       397       394       388       391       397       399
       390       388       386       394       390       388       391       393
       390       388       391       397       391       388       386       394
       391       397       394       396       393       391       397       394
       393       391       397       399       396       394       397       399
       401       406       408       410       401       406       408       411
       401       406       414       416       401       406       414       417
       403       401       406       408       403       401       406       414
       404       401       406       408       404       401       406       414
       405       401       406       408       405       401       406       414
       406       408       411       413       406       408       411       417
       406       414       417       411       406       414       417       419
       408       406       414       416       408       406       414       417
       408       411       417       414       408       411       417       419
       410       408       406       414       410       408       411       413
       410       408       411       417       411       408       406       414
       411       417       414       416       413       411       417       414
       413       411       417       419       416       414       417       419
       421       426       428       430       421       426       428       431
       421       426       434       436       421       426       434       437
       423       421       426       428       423       421       426       434
       424       421       426       428       424       421       426       434
       425       421       426       428       425       421       426       434
       426       428       431       433       426       428       431       437
       426       434       437       431       426       434       437       439
       428       426       434       436       428       426       434       437
       428       431       437       434       428       431       437       439
       430       428       426       434       430       428       431       433
       430       428       431       437       431       428       426       434
       431       437       434       436       433       431       437       434
       433       431       437       439       436       434       437       439
       441       446       448       450       441       446       448       451
       441       446       454       456       441       446       454       457
       443       441       446       448       443       441       446       454
       444       441       446       448       444       441       446       454
       445       441       446       448       445       441       446       454
       446       448       451       453       446       448       451       457
       446       454       457       451       446       454       457       459
       448       446       454       456       448       446       454       457
       448       451       457       454       448       451       457       459
       450       448       446       454       450       448       451       453
       450       448       451       457       451       448       446       454
       451       457       454       456       453       451       457       454
       453       451       457       459       456       454       457       459
       461       466       468       470       461       466       468       471
       461       466       474       476       461       466       474       477
       463       461       466       468       463       461       466       474
       464       461       466       468       464       461       466       474
       465       461       466       468       465       461       466       474
       466       468       471       473       466       468       471       477
       466       474       477       471       466       474       477       479
       468       466       474       476       468       466       474       477
       468       471       477       474       468       471       477       479
       470       468       466       474       470       468       471       473
       470       468       471       477       471       468       466       474
       471       477       474       476       473       471       477       474
       473       471       477       479       476       474       477       479
       481       486       488       490       481       486       488       491
       481       486       494       496       481       486       494       497
       483       481       486       488       483       481       486       494
       484       481       486       488       484       481       486       494
       485       481       486       488       485       481       486       494
       486       488       491       493       486       488       491       497
       486       494       497       491       486       494       497       499
       488       486       494       496       488       486       494       497
       488       491       497       494       488       491       497       499
       490       488       486       494       490       488       491       493
       490       488       491       497       491       488       486       494
       491       497       494       496       493       491       497       494
       493       491       497       499       496       494       497       499
       501       506       508       510       501       506       508       511
       501       506       514       516       501       506       514       517
       503       501       506       508       503       501       506       514
       504       501       506       508       504       501       506       514
       505       501       506       508       505       501       506       514
       506       508       511       513       506       508       511       517
       506       514       517       511       506       514       517       519
       508       506       514       516       508       506       514       517
       508       511       517       514       508       511       517       519
       510       508       506       514       510       508       511       513
       510       508       511       517       511       508       506       514
       511       517       514       516       513       511       517       514
       513       511       517       519       516       514       517       519
       521       526       528       530       521       526       528       531
       521       526       534       536       521       526       534       537
       523       521       526       528       523       521       526       534
       524       521       526       528       524       521       526       534
       525       521       526       528       525       521       526       534
       526       528       531       533       526       528       531       537
       526       534       537       531       526       534       537       539
       528       526       534       536       528       526       534       537
       528       531       537       534       528       531       537       539
       530       528       526       534       530       528       531       533
       530       528       531       537       531       528       526       534
       531       537       534       536       533       531       537       534
       533       531       537       539       536       534       537       539
       541       546       548       550       541       546       548       551
       541       546       554       556       541       546       554       557
       543       541       546       548       543       541       546       554
       544       541       546       548       544       541       546       554
       545       541       546       548       545       541       546       554
       546       548       551       553       546       548       551       557
       546       554       557       551       546       554       557       559
       548       546       554       556       548       546       554       557
       548       551       557       554       548       551       557       559
       550       548       546       554       550       548       551       553
       550       548       551       557       551       548       546       554
       551       557       554       556       553       551       557       554
       553       551       557       559       556       554       557       559
       561       566       568       570       561       566       568       571
       561       566       574       576       561       566       574       577
       563       561       566       568       563       561       566       574
       564       561       566       568       564       561       566       574
       565       561       566       568       565       561       566       574
       566       568       571       573       566       568       571       577
       566       574       577       571       566       574       577       579
       568       566       574       576       568       566       574       577
       568       571       577       574       568       571       577       579
       570       568       566       574       570       568       571       573
       570       568       571       577       571       568       566       574
       571       577       574       576       573       571       577       574
       573       571       577       579       576       574       577       579
       581       586       588       590       581       586       588       591
       581       586       594       596       581       586       594       597
       583       581       586       588       583       581       586       594
       584       581       586       588       584       581       586       594
       585       581       586       588       585       581       586       594
       586       588       591       593       586       588       591       597
       586       594       597       591       586       594       597       599
       588       586       594       596       588       586       594       597
       588       591       597       594       588       591       597       599
       590       588       586       594       590       588       591       593
       590       588       591       597       591       588       586       594
       591       597       594       596       593       591       597       594
       593       591       597       599       596       594       597       599
       601       606       608       610       601       606       608       611
       601       606       614       616       601       606       614       617
       603       601       606       608       603       601       606       614
       604       601       606       608       604       601       606       614
       605       601       606       608       605       601       606       614
       606       608       611       613       606       608       611       617
       606       614       617       611       606       614       617       619
       608       606       614       616       608       606       614       617
       608       611       617       614       608       611       617       619
       610       608       606       614       610       608       611       613
       610       608       611       617       611       608       606       614
       611       617       614       616       613       611       617       614
       613       611       617       619       616       614       617       619
       621       626       628       630       621       626       628       631
       621       626       634       636       621       626       634       637
       623       621       626       628       623       621       626       634
       624       621       626       628       624       621       626       634
       625       621       626       628       625       621       626       634
       626       628       631       633       626       628       631       637
       626       634       637       631       626       634       637       639
       628       626       634       636       628       626       634       637
       628       631       637       634       628       631       637       639
       630       628       626       634       630       628       631       633
       630       628       631       637       631       628       626       634
       631       637       634       636       633       631       637       634
       633       631       637       639       636       634       637       639
       641       646       648       650       641       646       648       651
       641       646       654       656       641       646       654       657
       643       641       646       648       643       641       646       654
       644       641       646       648       644       641       646       654
       645       641       646       648       645       641       646       654
       646       648       651       653       646       648       651       657
       646       654       657       651       646       654       657       659
       648       646       654       656       648       646       654       657
       648       651       657       654       648       651       657       659
       650       648       646       654       650       648       651       653
       650       648       651       657       651       648       646       654
       651       657       654       656       653       651       657       654
       653       651       657       659       656       654       657       659
       663       661       668       673       663       661       670       672
       665       663       661       668       665       663       661       670
       666       663       661       668       666       663       661       670
       667       663       661       668       667       663       661       670
       668       661       670       672       670       661       668       673
       680       678       685       690       680       678       687       689
       682       680       678       685       682       680       678       687
       683       680       678       685       683       680       678       687
       684       680       678       685       684       680       678       687
       685       678       687       689       687       678       685       690
       697       695       702       707       697       695       704       706
       699       697       695       702       699       697       695       704
       700       697       695       702       700       697       695       704
       701       697       695       702       701       697       695       704
       702       695       704       706       704       695       702       707
       714       712       719       724       714       712       721       723
       716       714       712       719       716       714       712       721
       717       714       712       719       717       714       712       721
       718       714       712       719       718       714       712       721
       719       712       721       723       721       712       719       724
       731       729       736       741       731       729       738       740
       733       731       729       736       733       731       729       738
       734       731       729       736       734       731       729       738
       735       731       729       736       735       731       729       738
       736       729       738       740       738       729       736       741
       748       746       753       758       748       746       755       757
       750       748       746       753       750       748       746       755
       751       748       746       753       751       748       746       755
       752       748       746       753       752       748       746       755
       753       746       755       757       755       746       753       758
       765       763       770       775       765       763       772       774
       767       765       763       770       767       765       763       772
       768       765       763       770       768       765       763       772
       769       765       763       770       769       765       763       772
       770       763       772       774       772       763       770       775
       782       780       787       792       782       780       789       791
       784       782       780       787       784       782       780       789
       785       782       780       787       785       782       780       789
       786       782       780       787       786       782       780       789
       787       780       789       791       789       780       787       792
       799       797       804       809       799       797       806       808
       801       799       797       804       801       799       797       806
       802       799       797       804       802       799       797       806
       803       799       797       804       803       799       797       806
       804       797       806       808       806       797       804       809
       816       814       821       826       816       814       823       825
       818       816       814       821       818       816       814       823
       819       816       814       821       819       816       814       823
       820       816       814       821       820       816       814       823
       821       814       823       825       823       814       821       826
       833       831       838       843       833       831       840       842
       835       833       831       838       835       833       831       840
       836       833       831       838       836       833       831       840
       837       833       831       838       837       833       831       840
       838       831       840       842       840       831       838       843
       850       848       855       860       850       848       857       859
       852       850       848       855       852       850       848       857
       853       850       848       855       853       850       848       857
       854       850       848       855       854       850       848       857
       855       848       857       859       857       848       855       860
       867       865       872       877       867       865       874       876
       869       867       865       872       869       867       865       874
       870       867       865       872       870       867       865       874
       871       867       865       872       871       867       865       874
       872       865       874       876       874       865       872       877
       884       882       889       894       884       882       891       893
       886       884       882       889       886       884       882       891
       887       884       882       889       887       884       882       891
       888       884       882       889       888       884       882       891
       889       882       891       893       891       882       889       894
       901       899       906       911       901       899       908       910
       903       901       899       906       903       901       899       908
       904       901       899       906       904       901       899       908
       905       901       899       906       905       901       899       908
       906       899       908       910       908       899       906       911
       918       916       923       928       918       916       925       927
       920       918       916       923       920       918       916       925
       921       918       916       923       921       918       916       925
       922       918       916       923       922       918       916       925
       923       916       925       927       925       916       923       928
       935       933       940       945       935       933       942       944
       937       935       933       940       937       935       933       942
       938       935       933       940       938       935       933       942
       939       935       933       940       939       935       933       942
       940       933       942       944       942       933       940       945
       952       950       957       962       952       950       959       961
       954       952       950       957       954       952       950       959
       955       952       950       957       955       952       950       959
       956       952       950       957       956       952       950       959
       957       950       959       961       959       950       957       962
       969       967       974       979       969       967       976       978
       971       969       967       974       971       969       967       976
       972       969       967       974       972       969       967       976
       973       969       967       974       973       969       967       976
       974       967       976       978       976       967       974       979
       986       984       991       996       986       984       993       995
       988       986       984       991       988       986       984       993
       989       986       984       991       989       986       984       993
       990       986       984       991       990       986       984       993
       991       984       993       995       993       984       991       996
      1003      1001      1008      1013      1003      1001      1010      1012
      1005      1003      1001      1008      1005      1003      1001      1010
      1006      1003      1001      1008      1006      1003      1001      1010
      1007      1003      1001      1008      1007      1003      1001      1010
      1008      1001      1010      1012      1010      1001      1008      1013
      1020      1018      1025      1030      1020      1018      1027      1029
      1022      1020      1018      1025      1022      1020      1018      1027
      1023      1020      1018      1025      1023      1020      1018      1027
      1024      1020      1018      1025      1024      1020      1018      1027
      1025      1018      1027      1029      1027      1018      1025      1030
      1037      1035      1042      1047      1037      1035      1044      1046
      1039      1037      1035      1042      1039      1037      1035      1044
      1040      1037      1035      1042      1040      1037      1035      1044
      1041      1037      1035      1042      1041      1037      1035      1044
      1042      1035      1044      1046      1044      1035      1042      1047
      1054      1052      1059      1064      1054      1052      1061      1063
      1056      1054      1052      1059      1056      1054      1052      1061
      1057      1054      1052      1059      1057      1054      1052      1061
      1058      1054      1052      1059      1058      1054      1052      1061
      1059      1052      1061      1063      1061      1052      1059      1064
      1071      1069      1076      1081      1071      1069      1078      1080
      1073      1071      1069      1076      1073      1071      1069      1078
      1074      1071      1069      1076      1074      1071      1069      1078
      1075      1071      1069      1076      1075      1071      1069      1078
      1076      1069      1078      1080      1078      1069      1076      1081
      1088      1086      1093      1098      1088      1086      1095      1097
      1090      1088      1086      1093      1090      1088      1086      1095
      1091      1088      1086      1093      1091      1088      1086      1095
      1092      1088      1086      1093      1092      1088      1086      1095
      1093      1086      1095      1097      1095      1086      1093      1098
      1105      1103      1110      1115      1105      1103      1112      1114
      1107      1105      1103      1110      1107      1105      1103      1112
      1108      1105      1103      1110      1108      1105      1103      1112
      1109      1105      1103      1110      1109      1105      1103      1112
      1110      1103      1112      1114      1112      1103      1110      1115
      1122      1120      1127      1132      1122      1120      1129      1131
      1124      1122      1120      1127      1124      1122      1120      1129
      1125      1122      1120      1127      1125      1122      1120      1129
      1126      1122      1120      1127      1126      1122      1120      1129
      1127      1120      1129      1131      1129      1120      1127      1132
      1139      1137      1144      1149      1139      1137      1146      1148
      1141      1139      1137      1144      1141      1139      1137      1146
      1142      1139      1137      1144      1142      1139      1137      1146
      1143      1139      1137      1144      1143      1139      1137      1146
      1144      1137      1146      1148      1146      1137      1144      1149
      1156      1154      1161      1166      1156      1154      1163      1165
      1158      1156      1154      1161      1158      1156      1154      1163
      1159      1156      1154      1161      1159      1156      1154      1163
      1160      1156      1154      1161      1160      1156      1154      1163
      1161      1154      1163      1165      1163      1154      1161      1166
      1173      1171      1178      1183      1173      1171      1180      1182
      1175      1173      1171      1178      1175      1173      1171      1180
      1176      1173      1171      1178      1176      1173      1171      1180
      1177      1173      1171      1178      1177      1173      1171      1180
      1178      1171      1180      1182      1180      1171      1178      1183
      1190      1188      1195      1200      1190      1188      1197      1199
      1192      1190      1188      1195      1192      1190      1188      1197
      1193      1190      1188      1195      1193      1190      1188      1197
      1194      1190      1188      1195      1194      1190      1188      1197
      1195      1188      1197      1199      1197      1188      1195      1200
      1207      1205      1212      1217      1207      1205      1214      1216
      1209      1207      1205      1212      1209      1207      1205      1214
      1210      1207      1205      1212      1210      1207      1205      1214
      1211      1207      1205      1212      1211      1207      1205      1214
      1212      1205      1214      1216      1214      1205      1212      1217
      1222      1227      1229      1231      1222      1227      1229      1232
      1222      1227      1235      1237      1222      1227      1235      1238
      1224      1222      1227      1229      1224      1222      1227      1235
      1225      1222      1227      1229      1225      1222      1227      1235
      1226      1222      1227      1229      1226      1222      1227      1235
      1227      1229      1232      1234      1227      1229      1232      1238
      1227      1235      1238      1232      1227      1235      1238      1240
      1229      1227      1235      1237      1229      1227      1235      1238
      1229      1232      1238      1235      1229      1232      1238      1240
      1231      1229      1227      1235      1231      1229      1232      1234
      1231      1229      1232      1238      1232      1229      1227      1235
      1232      1238      1235      1237      1234      1232      1238      1235
      1234      1232      1238      1240      1237      1235      1238      1240
      1242      1247      1249      1251      1242      1247      1249      1252
      1242      1247      1255      1257      1242      1247      1255      1258
      1244      1242      1247      1249      1244      1242      1247      1255
      1245      1242      1247      1249      1245      1242      1247      1255
      1246      1242      1247      1249      1246      1242      1247      1255
      1247      1249      1252      1254      1247      1249      1252      1258
      1247      1255      1258      1252      1247      1255      1258      1260
      1249      1247      1255      1257      1249      1247      1255      1258
      1249      1252      1258      1255      1249      1252      1258      1260
      1251      1249      1247      1255      1251      1249      1252      1254
      1251      1249      1252      1258      1252      1249      1247      1255
      1252      1258      1255      1257      1254      1252      1258      1255
      1254      1252      1258      1260      1257      1255      1258      1260
      1262      1267      1269      1271      1262      1267      1269      1272
      1262      1267      1275      1277      1262      1267      1275      1278
      1264      1262      1267      1269      1264      1262      1267      1275
      1265      1262      1267      1269      1265      1262      1267      1275
      1266      1262      1267      1269      1266      1262      1267      1275
      1267      1269      1272      1274      1267      1269      1272      1278
      1267      1275      1278      1272      1267      1275      1278      1280
      1269      1267      1275      1277      1269      1267      1275      1278
      1269      1272      1278      1275      1269      1272      1278      1280
      1271      1269      1267      1275      1271      1269      1272      1274
      1271      1269      1272      1278      1272      1269      1267      1275
      1272      1278      1275      1277      1274      1272      1278      1275
      1274      1272      1278      1280      1277      1275      1278      1280
      1282      1287      1289      1291      1282      1287      1289      1292
      1282      1287      1295      1297      1282      1287      1295      1298
      1284      1282      1287      1289      1284      1282      1287      1295
      1285      1282      1287      1289      1285      1282      1287      1295
      1286      1282      1287      1289      1286      1282      1287      1295
      1287      1289      1292      1294      1287      1289      1292      1298
      1287      1295      1298      1292      1287      1295      1298      1300
      1289      1287      1295      1297      1289      1287      1295      1298
      1289      1292      1298      1295      1289      1292      1298      1300
      1291      1289      1287      1295      1291      1289      1292      1294
      1291      1289      1292      1298      1292      1289      1287      1295
      1292      1298      1295      1297      1294      1292      1298      1295
      1294      1292      1298      1300      1297      1295      1298      1300
      1302      1307      1309      1311      1302      1307      1309      1312
      1302      1307      1315      1317      1302      1307      1315      1318
      1304      1302      1307      1309      1304      1302      1307      1315
      1305      1302      1307      1309      1305      1302      1307      1315
      1306      1302      1307      1309      1306      1302      1307      1315
      1307      1309      1312      1314      1307      1309      1312      1318
      1307      1315      1318      1312      1307      1315      1318      1320
      1309      1307      1315      1317      1309      1307      1315      1318
      1309      1312      1318      1315      1309      1312      1318      1320
      1311      1309      1307      1315      1311      1309      1312      1314
      1311      1309      1312      1318      1312      1309      1307      1315
      1312      1318      1315      1317      1314      1312      1318      1315
      1314      1312      1318      1320      1317      1315      1318      1320
      1322      1327      1329      1331      1322      1327      1329      1332
      1322      1327      1335      1337      1322      1327      1335      1338
      1324      1322      1327      1329      1324      1322      1327      1335
      1325      1322      1327      1329      1325      1322      1327      1335
      1326      1322      1327      1329      1326      1322      1327      1335
      1327      1329      1332      1334      1327      1329      1332      1338
      1327      1335      1338      1332      1327      1335      1338      1340
      1329      1327      1335      1337      1329      1327      1335      1338
      1329      1332      1338      1335      1329      1332      1338      1340
      1331      1329      1327      1335      1331      1329      1332      1334
      1331      1329      1332      1338      1332      1329      1327      1335
      1332      1338      1335      1337      1334      1332      1338      1335
      1334      1332      1338      1340      1337      1335      1338      1340
      1342      1347      1349      1351      1342      1347      1349      1352
      1342      1347      1355      1357      1342      1347      1355      1358
      1344      1342      1347      1349      1344      1342      1347      1355
      1345      1342      1347      1349      1345      1342      1347      1355
      1346      1342      1347      1349      1346      1342      1347      1355
      1347      1349      1352      1354      1347      1349      1352      1358
      1347      1355      1358      1352      1347      1355      1358      1360
      1349      1347      1355      1357      1349      1347      1355      1358
      1349      1352      1358      1355      1349      1352      1358      1360
      1351      1349      1347      1355      1351      1349      1352      1354
      1351      1349      1352      1358      1352      1349      1347      1355
      1352      1358      1355      1357      1354      1352      1358      1355
      1354      1352      1358      1360      1357      1355      1358      1360
      1362      1367      1369      1371      1362      1367      1369      1372
      1362      1367      1375      1377      1362      1367      1375      1378
      1364      1362      1367      1369      1364      1362      1367      1375
      1365      1362      1367      1369      1365      1362      1367      1375
      1366      1362      1367      1369      1366      1362      1367      1375
      1367      1369      1372      1374      1367      1369      1372      1378
      1367      1375      1378      1372      1367      1375      1378      1380
      1369      1367      1375      1377      1369      1367      1375      1378
      1369      1372      1378      1375      1369      1372      1378      1380
      1371      1369      1367      1375      1371      1369      1372      1374
      1371      1369      1372      1378      1372      1369      1367      1375
      1372      1378      1375      1377      1374      1372      1378      1375
      1374      1372      1378      1380      1377      1375      1378      1380
      1382      1387      1389      1391      1382      1387      1389      1392
      1382      1387      1395      1397      1382      1387      1395      1398
      1384      1382      1387      1389      1384      1382      1387      1395
      1385      1382      1387      1389      1385      1382      1387      1395
      1386      1382      1387      1389      1386      1382      1387      1395
      1387      1389      1392      1394      1387      1389      1392      1398
      1387      1395      1398      1392      1387      1395      1398      1400
      1389      1387      1395      1397      1389      1387      1395      1398
      1389      1392      1398      1395      1389      1392      1398      1400
      1391      1389      1387      1395      1391      1389      1392      1394
      1391      1389      1392      1398      1392      1389      1387      1395
      1392      1398      1395      1397      1394      1392      1398      1395
      1394      1392      1398      1400      1397      1395      1398      1400
      1402      1407      1409      1411      1402      1407      1409      1412
      1402      1407      1415      1417      1402      1407      1415      1418
      1404      1402      1407      1409      1404      1402      1407      1415
      1405      1402      1407      1409      1405      1402      1407      1415
      1406      1402      1407      1409      1406      1402      1407      1415
      1407      1409      1412      1414      1407      1409      1412      1418
      1407      1415      1418      1412      1407      1415      1418      1420
      1409      1407      1415      1417      1409      1407      1415      1418
      1409      1412      1418      1415      1409      1412      1418      1420
      1411      1409      1407      1415      1411      1409      1412      1414
      1411      1409      1412      1418      1412      1409      1407      1415
      1412      1418      1415      1417      1414      1412      1418      1415
      1414      1412      1418      1420      1417      1415      1418      1420
      1422      1427      1429      1431      1422      1427      1429      1432
      1422      1427      1435      1437      1422      1427      1435      1438
      1424      1422      1427      1429      1424      1422      1427      1435
      1425      1422      1427      1429      1425      1422      1427      1435
      1426      1422      1427      1429      1426      1422      1427      1435
      1427      1429      1432      1434      1427      1429      1432      1438
      1427      1435      1438      1432      1427      1435      1438      1440
      1429      1427      1435      1437      1429      1427      1435      1438
      1429      1432      1438      1435      1429      1432      1438      1440
      1431      1429      1427      1435      1431      1429      1432      1434
      1431      1429      1432      1438      1432      1429      1427      1435
      1432      1438      1435      1437      1434      1432      1438      1435
      1434      1432      1438      1440      1437      1435      1438      1440
      1442      1447      1449      1451      1442      1447      1449      1452
      1442      1447      1455      1457      1442      1447      1455      1458
      1444      1442      1447      1449      1444      1442      1447      1455
      1445      1442      1447      1449      1445      1442      1447      1455
      1446      1442      1447      1449      1446      1442      1447      1455
      1447      1449      1452      1454      1447      1449      1452      1458
      1447      1455      1458      1452      1447      1455      1458      1460
      1449      1447      1455      1457      1449      1447      1455      1458
      1449      1452      1458      1455      1449      1452      1458      1460
      1451      1449      1447      1455      1451      1449      1452      1454
      1451      1449      1452      1458      1452      1449      1447      1455
      1452      1458      1455      1457      1454      1452      1458      1455
      1454      1452      1458      1460      1457      1455      1458      1460
      1462      1467      1469      1471      1462      1467      1469      1472
      1462      1467      1475      1477      1462      1467      1475      1478
      1464      1462      1467      1469      1464      1462      1467      1475
      1465      1462      1467      1469      1465      1462      1467      1475
      1466      1462      1467      1469      1466      1462      1467      1475
      1467      1469      1472      1474      1467      1469      1472      1478
      1467      1475      1478      1472      1467      1475      1478      1480
      1469      1467      1475      1477      1469      1467      1475      1478
      1469      1472      1478      1475      1469      1472      1478      1480
      1471      1469      1467      1475      1471      1469      1472      1474
      1471      1469      1472      1478      1472      1469      1467      1475
      1472      1478      1475      1477      1474      1472      1478      1475
      1474      1472      1478      1480      1477      1475      1478      1480
      1482      1487      1489      1491      1482      1487      1489      1492
      1482      1487      1495      1497      1482      1487      1495      1498
      1484      1482      1487      1489      1484      1482      1487      1495
      1485      1482      1487      1489      1485      1482      1487      1495
      1486      1482      1487      1489      1486      1482      1487      1495
      1487      1489      1492      1494      1487      1489      1492      1498
      1487      1495      1498      1492      1487      1495      1498      1500
      1489      1487      1495      1497      1489      1487      1495      1498
      1489      1492      1498      1495      1489      1492      1498      1500
      1491      1489      1487      1495      1491      1489      1492      1494
      1491      1489      1492      1498      1492      1489      1487      1495
      1492      1498      1495      1497      1494      1492      1498      1495
      1494      1492      1498      1500      1497      1495      1498      1500
      1502      1507      1509      1511      1502      1507      1509      1512
      1502      1507      1515      1517      1502      1507      1515      1518
      1504      1502      1507      1509      1504      1502      1507      1515
      1505      1502      1507      1509      1505      1502      1507      1515
      1506      1502      1507      1509      1506      1502      1507      1515
      1507      1509      1512      1514      1507      1509      1512      1518
      1507      1515      1518      1512      1507      1515      1518      1520
      1509      1507      1515      1517      1509      1507      1515      1518
      1509      1512      1518      1515      1509      1512      1518      1520
      1511      1509      1507      1515      1511      1509      1512      1514
      1511      1509      1512      1518      1512      1509      1507      1515
      1512      1518      1515      1517      1514      1512      1518      1515
      1514      1512      1518      1520      1517      1515      1518      1520
      1522      1527      1529      1531      1522      1527      1529      1532
      1522      1527      1535      1537      1522      1527      1535      1538
      1524      1522      1527      1529      1524      1522      1527      1535
      1525      1522      1527      1529      1525      1522      1527      1535
      1526      1522      1527      1529      1526      1522      1527      1535
      1527      1529      1532      1534      1527      1529      1532      1538
      1527      1535      1538      1532      1527      1535      1538      1540
      1529      1527      1535      1537      1529      1527      1535      1538
      1529      1532      1538      1535      1529      1532      1538      1540
      1531      1529      1527      1535      1531      1529      1532      1534
      1531      1529      1532      1538      1532      1529      1527      1535
      1532      1538      1535      1537      1534      1532      1538      1535
      1534      1532      1538      1540      1537      1535      1538      1540
      1542      1547      1549      1551      1542      1547      1549      1552
      1542      1547      1555      1557      1542      1547      1555      1558
      1544      1542      1547      1549      1544      1542      1547      1555
      1545      1542      1547      1549      1545      1542      1547      1555
      1546      1542      1547      1549      1546      1542      1547      1555
      1547      1549      1552      1554      1547      1549      1552      1558
      1547      1555      1558      1552      1547      1555      1558      1560
      1549      1547      1555      1557      1549      1547      1555      1558
      1549      1552      1558      1555      1549      1552      1558      1560
      1551      1549      1547      1555      1551      1549      1552      1554
      1551      1549      1552      1558      1552      1549      1547      1555
      1552      1558      1555      1557      1554      1552      1558      1555
      1554      1552      1558      1560      1557      1555      1558      1560
      1562      1567      1569      1571      1562      1567      1569      1572
      1562      1567      1575      1577      1562      1567      1575      1578
      1564      1562      1567      1569      1564      1562      1567      1575
      1565      1562      1567      1569      1565      1562      1567      1575
      1566      1562      1567      1569      1566      1562      1567      1575
      1567      1569      1572      1574      1567      1569      1572      1578
      1567      1575      1578      1572      1567      1575      1578      1580
      1569      1567      1575      1577      1569      1567      1575      1578
      1569      1572      1578      1575      1569      1572      1578      1580
      1571      1569      1567      1575      1571      1569      1572      1574
      1571      1569      1572      1578      1572      1569      1567      1575
      1572      1578      1575      1577      1574      1572      1578      1575
      1574      1572      1578      1580      1577      1575      1578      1580
      1582      1587      1589      1591      1582      1587      1589      1592
      1582      1587      1595      1597      1582      1587      1595      1598
      1584      1582      1587      1589      1584      1582      1587      1595
      1585      1582      1587      1589      1585      1582      1587      1595
      1586      1582      1587      1589      1586      1582      1587      1595
      1587      1589      1592      1594      1587      1589      1592      1598
      1587      1595      1598      1592      1587      1595      1598      1600
      1589      1587      1595      1597      1589      1587      1595      1598
      1589      1592      1598      1595      1589      1592      1598      1600
      1591      1589      1587      1595      1591      1589      1592      1594
      1591      1589      1592      1598      1592      1589      1587      1595
      1592      1598      1595      1597      1594      1592      1598      1595
      1594      1592      1598      1600      1597      1595      1598      1600
      1602      1607      1609      1611      1602      1607      1609      1612
      1602      1607      1615      1617      1602      1607      1615      1618
      1604      1602      1607      1609      1604      1602      1607      1615
      1605      1602      1607      1609      1605      1602      1607      1615
      1606      1602      1607      1609      1606      1602      1607      1615
      1607      1609      1612      1614      1607      1609      1612      1618
      1607      1615      1618      1612      1607      1615      1618      1620
      1609      1607      1615      1617      1609      1607      1615      1618
      1609      1612      1618      1615      1609      1612      1618      1620
      1611      1609      1607      1615      1611      1609      1612      1614
      1611      1609      1612      1618      1612      1609      1607      1615
      1612      1618      1615      1617      1614      1612      1618      1615
      1614      1612      1618      1620      1617      1615      1618      1620
      1622      1627      1629      1631      1622      1627      1629      1632
      1622      1627      1635      1637      1622      1627      1635      1638
      1624      1622      1627      1629      1624      1622      1627      1635
      1625      1622      1627      1629      1625      1622      1627      1635
      1626      1622      1627      1629      1626      1622      1627      1635
      1627      1629      1632      1634      1627      1629      1632      1638
      1627      1635      1638      1632      1627      1635      1638      1640
      1629      1627      1635      1637      1629      1627      1635      1638
      1629      1632      1638      1635      1629      1632      1638      1640
      1631      1629      1627      1635      1631      1629      1632      1634
      1631      1629      1632      1638      1632      1629      1627      1635
      1632      1638      1635      1637      1634      1632      1638      1635
      1634      1632      1638      1640      1637      1635      1638      1640
      1642      1647      1649      1651      1642      1647      1649      1652
      1642      1647      1655      1657      1642      1647      1655      1658
      1644      1642      1647      1649      1644      1642      1647      1655
      1645      1642      1647      1649      1645      1642      1647      1655
      1646      1642      1647      1649      1646      1642      1647      1655
      1647      1649      1652      1654      1647      1649      1652      1658
      1647      1655      1658      1652      1647      1655      1658      1660
      1649      1647      1655      1657      1649      1647      1655      1658
      1649      1652      1658      1655      1649      1652      1658      1660
      1651      1649      1647      1655      1651      1649      1652      1654
      1651      1649      1652      1658      1652      1649      1647      1655
      1652      1658      1655      1657      1654      1652      1658      1655
      1654      1652      1658      1660      1657      1655      1658      1660
      1662      1667      1669      1671      1662      1667      1669      1672
      1662      1667      1675      1677      1662      1667      1675      1678
      1664      1662      1667      1669      1664      1662      1667      1675
      1665      1662      1667      1669      1665      1662      1667      1675
      1666      1662      1667      1669      1666      1662      1667      1675
      1667      1669      1672      1674      1667      1669      1672      1678
      1667      1675      1678      1672      1667      1675      1678      1680
      1669      1667      1675      1677      1669      1667      1675      1678
      1669      1672      1678      1675      1669      1672      1678      1680
      1671      1669      1667      1675      1671      1669      1672      1674
      1671      1669      1672      1678      1672      1669      1667      1675
      1672      1678      1675      1677      1674      1672      1678      1675
      1674      1672      1678      1680      1677      1675      1678      1680
      1682      1687      1689      1691      1682      1687      1689      1692
      1682      1687      1695      1697      1682      1687      1695      1698
      1684      1682      1687      1689      1684      1682      1687      1695
      1685      1682      1687      1689      1685      1682      1687      1695
      1686      1682      1687      1689      1686      1682      1687      1695
      1687      1689      1692      1694      1687      1689      1692      1698
      1687      1695      1698      1692      1687      1695      1698      1700
      1689      1687      1695      1697      1689      1687      1695      1698
      1689      1692      1698      1695      1689      1692      1698      1700
      1691      1689      1687      1695      1691      1689      1692      1694
      1691      1689      1692      1698      1692      1689      1687      1695
      1692      1698      1695      1697      1694      1692      1698      1695
      1694      1692      1698      1700      1697      1695      1698      1700
      1702      1707      1709      1711      1702      1707      1709      1712
      1702      1707      1715      1717      1702      1707      1715      1718
      1704      1702      1707      1709      1704      1702      1707      1715
      1705      1702      1707      1709      1705      1702      1707      1715
      1706      1702      1707      1709      1706      1702      1707      1715
      1707      1709      1712      1714      1707      1709      1712      1718
      1707      1715      1718      1712      1707      1715      1718      1720
      1709      1707      1715      1717      1709      1707      1715      1718
      1709      1712      1718      1715      1709      1712      1718      1720
      1711      1709      1707      1715      1711      1709      1712      1714
      1711      1709      1712      1718      1712      1709      1707      1715
      1712      1718      1715      1717      1714      1712      1718      1715
      1714      1712      1718      1720      1717      1715      1718      1720
      1722      1727      1729      1731      1722      1727      1729      1732
      1722      1727      1735      1737      1722      1727      1735      1738
      1724      1722      1727      1729      1724      1722      1727      1735
      1725      1722      1727      1729      1725      1722      1727      1735
      1726      1722      1727      1729      1726      1722      1727      1735
      1727      1729      1732      1734      1727      1729      1732      1738
      1727      1735      1738      1732      1727      1735      1738      1740
      1729      1727      1735      1737      1729      1727      1735      1738
      1729      1732      1738      1735      1729      1732      1738      1740
      1731      1729      1727      1735      1731      1729      1732      1734
      1731      1729      1732      1738      1732      1729      1727      1735
      1732      1738      1735      1737      1734      1732      1738      1735
      1734      1732      1738      1740      1737      1735      1738      1740
      1742      1747      1749      1751      1742      1747      1749      1752
      1742      1747      1755      1757      1742      1747      1755      1758
      1744      1742      1747      1749      1744      1742      1747      1755
      1745      1742      1747      1749      1745      1742      1747      1755
      1746      1742      1747      1749      1746      1742      1747      1755
      1747      1749      1752      1754      1747      1749      1752      1758
      1747      1755      1758      1752      1747      1755      1758      1760
      1749      1747      1755      1757      1749      1747      1755      1758
      1749      1752      1758      1755      1749      1752      1758      1760
      1751      1749      1747      1755      1751      1749      1752      1754
      1751      1749      1752      1758      1752      1749      1747      1755
      1752      1758      1755      1757      1754      1752      1758      1755
      1754      1752      1758      1760      1757      1755      1758      1760
      1762      1767      1769      1771      1762      1767      1769      1772
      1762      1767      1775      1777      1762      1767      1775      1778
      1764      1762      1767      1769      1764      1762      1767      1775
      1765      1762      1767      1769      1765      1762      1767      1775
      1766      1762      1767      1769      1766      1762      1767      1775
      1767      1769      1772      1774      1767      1769      1772      1778
      1767      1775      1778      1772      1767      1775      1778      1780
      1769      1767      1775      1777      1769      1767      1775      1778
      1769      1772      1778      1775      1769      1772      1778      1780
      1771      1769      1767      1775      1771      1769      1772      1774
      1771      1769      1772      1778      1772      1769      1767      1775
      1772      1778      1775      1777      1774      1772      1778      1775
      1774      1772      1778      1780      1777      1775      1778      1780
      1782      1787      1789      1791      1782      1787      1789      1792
      1782      1787      1795      1797      1782      1787      1795      1798
      1784      1782      1787      1789      1784      1782      1787      1795
      1785      1782      1787      1789      1785      1782      1787      1795
      1786      1782      1787      1789      1786      1782      1787      1795
      1787      1789      1792      1794      1787      1789      1792      1798
      1787      1795      1798      1792      1787      1795      1798      1800
      1789      1787      1795      1797      1789      1787      1795      1798
      1789      1792      1798      1795      1789      1792      1798      1800
      1791      1789      1787      1795      1791      1789      1792      1794
      1791      1789      1792      1798      1792      1789      1787      1795
      1792      1798      1795      1797      1794      1792      1798      1795
      1794      1792      1798      1800      1797      1795      1798      1800
      1802      1807      1809      1811      1802      1807      1809      1812
      1802      1807      1815      1817      1802      1807      1815      1818
      1804      1802      1807      1809      1804      1802      1807      1815
      1805      1802      1807      1809      1805      1802      1807      1815
      1806      1802      1807      1809      1806      1802      1807      1815
      1807      1809      1812      1814      1807      1809      1812      1818
      1807      1815      1818      1812      1807      1815      1818      1820
      1809      1807      1815      1817      1809      1807      1815      1818
      1809      1812      1818      1815      1809      1812      1818      1820
      1811      1809      1807      1815      1811      1809      1812      1814
      1811      1809      1812      1818      1812      1809      1807      1815
      1812      1818      1815      1817      1814      1812      1818      1815
      1814      1812      1818      1820      1817      1815      1818      1820
      1822      1827      1829      1831      1822      1827      1829      1832
      1822      1827      1835      1837      1822      1827      1835      1838
      1824      1822      1827      1829      1824      1822      1827      1835
      1825      1822      1827      1829      1825      1822      1827      1835
      1826      1822      1827      1829      1826      1822      1827      1835
      1827      1829      1832      1834      1827      1829      1832      1838
      1827      1835      1838      1832      1827      1835      1838      1840
      1829      1827      1835      1837      1829      1827      1835      1838
      1829      1832      1838      1835      1829      1832      1838      1840
      1831      1829      1827      1835      1831      1829      1832      1834
      1831      1829      1832      1838      1832      1829      1827      1835
      1832      1838      1835      1837      1834      1832      1838      1835
      1834      1832      1838      1840      1837      1835      1838      1840
      1842      1847      1849      1851      1842      1847      1849      1852
      1842      1847      1855      1857      1842      1847      1855      1858
      1844      1842      1847      1849      1844      1842      1847      1855
      1845      1842      1847      1849      1845      1842      1847      1855
      1846      1842      1847      1849      1846      1842      1847      1855
      1847      1849      1852      1854      1847      1849      1852      1858
      1847      1855      1858      1852      1847      1855      1858      1860
      1849      1847      1855      1857      1849      1847      1855      1858
      1849      1852      1858      1855      1849      1852      1858      1860
      1851      1849      1847      1855      1851      1849      1852      1854
      1851      1849      1852      1858      1852      1849      1847      1855
      1852      1858      1855      1857      1854      1852      1858      1855
      1854      1852      1858      1860      1857      1855      1858      1860
      1862      1867      1869      1871      1862      1867      1869      1872
      1862      1867      1875      1877      1862      1867      1875      1878
      1864      1862      1867      1869      1864      1862      1867      1875
      1865      1862      1867      1869      1865      1862      1867      1875
      1866      1862      1867      1869      1866      1862      1867      1875
      1867      1869      1872      1874      1867      1869      1872      1878
      1867      1875      1878      1872      1867      1875      1878      1880
      1869      1867      1875      1877      1869      1867      1875      1878
      1869      1872      1878      1875      1869      1872      1878      1880
      1871      1869      1867      1875      1871      1869      1872      1874
      1871      1869      1872      1878      1872      1869      1867      1875
      1872      1878      1875      1877      1874      1872      1878      1875
      1874      1872      1878      1880      1877      1875      1878      1880
      1882      1887      1889      1891      1882      1887      1889      1892
      1882      1887      1895      1897      1882      1887      1895      1898
      1884      1882      1887      1889      1884      1882      1887      1895
      1885      1882      1887      1889      1885      1882      1887      1895
      1886      1882      1887      1889      1886      1882      1887      1895
      1887      1889      1892      1894      1887      1889      1892      1898
      1887      1895      1898      1892      1887      1895      1898      1900
      1889      1887      1895      1897      1889      1887      1895      1898
      1889      1892      1898      1895      1889      1892      1898      1900
      1891      1889      1887      1895      1891      1889      1892      1894
      1891      1889      1892      1898      1892      1889      1887      1895
      1892      1898      1895      1897      1894      1892      1898      1895
      1894      1892      1898      1900      1897      1895      1898      1900
      1902      1907      1909      1911      1902      1907      1909      1912
      1902      1907      1915      1917      1902      1907      1915      1918
      1904      1902      1907      1909      1904      1902      1907      1915
      1905      1902      1907      1909      1905      1902      1907      1915
      1906      1902      1907      1909      1906      1902      1907      1915
      1907      1909      1912      1914      1907      1909      1912      1918
      1907      1915      1918      1912      1907      1915      1918      1920
      1909      1907      1915      1917      1909      1907      1915      1918
      1909      1912      1918      1915      1909      1912      1918      1920
      1911      1909      1907      1915      1911      1909      1912      1914
      1911      1909      1912      1918      1912      1909      1907      1915
      1912      1918      1915      1917      1914      1912      1918      1915
      1914      1912      1918      1920      1917      1915      1918      1920
      1922      1927      1929      1931      1922      1927      1929      1932
      1922      1927      1935      1937      1922      1927      1935      1938
      1924      1922      1927      1929      1924      1922      1927      1935
      1925      1922      1927      1929      1925      1922      1927      1935
      1926      1922      1927      1929      1926      1922      1927      1935
      1927      1929      1932      1934      1927      1929      1932      1938
      1927      1935      1938      1932      1927      1935      1938      1940
      1929      1927      1935      1937      1929      1927      1935      1938
      1929      1932      1938      1935      1929      1932      1938      1940
      1931      1929      1927      1935      1931      1929      1932      1934
      1931      1929      1932      1938      1932      1929      1927      1935
      1932      1938      1935      1937      1934      1932      1938      1935
      1934      1932      1938      1940      1937      1935      1938      1940
      1942      1947      1949      1951      1942      1947      1949      1952
      1942      1947      1955      1957      1942      1947      1955      1958
      1944      1942      1947      1949      1944      1942      1947      1955
      1945      1942      1947      1949      1945      1942      1947      1955
      1946      1942      1947      1949      1946      1942      1947      1955
      1947      1949      1952      1954      1947      1949      1952      1958
      1947      1955      1958      1952      1947      1955      1958      1960
      1949      1947      1955      1957      1949      1947      1955      1958
      1949      1952      1958      1955      1949      1952      1958      1960
      1951      1949      1947      1955      1951      1949      1952      1954
      1951      1949      1952      1958      1952      1949      1947      1955
      1952      1958      1955      1957      1954      1952      1958      1955
      1954      1952      1958      1960      1957      1955      1958      1960
      1962      1967      1969      1971      1962      1967      1969      1972
      1962      1967      1975      1977      1962      1967      1975      1978
      1964      1962      1967      1969      1964      1962      1967      1975
      1965      1962      1967      1969      1965      1962      1967      1975
      1966      1962      1967      1969      1966      1962      1967      1975
      1967      1969      1972      1974      1967      1969      1972      1978
      1967      1975      1978      1972      1967      1975      1978      1980
      1969      1967      1975      1977      1969      1967      1975      1978
      1969      1972      1978      1975      1969      1972      1978      1980
      1971      1969      1967      1975      1971      1969      1972      1974
      1971      1969      1972      1978      1972      1969      1967      1975
      1972      1978      1975      1977      1974      1972      1978      1975
      1974      1972      1978      1980      1977      1975      1978      1980
      1982      1987      1989      1991      1982      1987      1989      1992
      1982      1987      1995      1997      1982      1987      1995      1998
      1984      1982      1987      1989      1984      1982      1987      1995
      1985      1982      1987      1989      1985      1982      1987      1995
      1986      1982      1987      1989      1986      1982      1987      1995
      1987      1989      1992      1994      1987      1989      1992      1998
      1987      1995      1998      1992      1987      1995      1998      2000
      1989      1987      1995      1997      1989      1987      1995      1998
      1989      1992      1998      1995      1989      1992      1998      2000
      1991      1989      1987      1995      1991      1989      1992      1994
      1991      1989      1992      1998      1992      1989      1987      1995
      1992      1998      1995      1997      1994      1992      1998      1995
      1994      1992      1998      2000      1997      1995      1998      2000
      2002      2007      2009      2011      2002      2007      2009      2012
      2002      2007      2015      2017      2002      2007      2015      2018
      2004      2002      2007      2009      2004      2002      2007      2015
      2005      2002      2007      2009      2005      2002      2007      2015
      2006      2002      2007      2009      2006      2002      2007      2015
      2007      2009      2012      2014      2007      2009      2012      2018
      2007      2015      2018      2012      2007      2015      2018      2020
      2009      2007      2015      2017      2009      2007      2015      2018
      2009      2012      2018      2015      2009      2012      2018      2020
      2011      2009      2007      2015      2011      2009      2012      2014
      2011      2009      2012      2018      2012      2009      2007      2015
      2012      2018      2015      2017      2014      2012      2018      2015
      2014      2012      2018      2020      2017      2015      2018      2020
      2022      2027      2029      2031      2022      2027      2029      2032
      2022      2027      2035      2037      2022      2027      2035      2038
      2024      2022      2027      2029      2024      2022      2027      2035
      2025      2022      2027      2029      2025      2022      2027      2035
      2026      2022      2027      2029      2026      2022      2027      2035
      2027      2029      2032      2034      2027      2029      2032      2038
      2027      2035      2038      2032      2027      2035      2038      2040
      2029      2027      2035      2037      2029      2027      2035      2038
      2029      2032      2038      2035      2029      2032      2038      2040
      2031      2029      2027      2035      2031      2029      2032      2034
      2031      2029      2032      2038      2032      2029      2027      2035
      2032      2038      2035      2037      2034      2032      2038      2035
      2034      2032      2038      2040      2037      2035      2038      2040
      2042      2047      2049      2051      2042      2047      2049      2052
      2042      2047      2055      2057      2042      2047      2055      2058
      2044      2042      2047      2049      2044      2042      2047      2055
      2045      2042      2047      2049      2045      2042      2047      2055
      2046      2042      2047      2049      2046      2042      2047      2055
      2047      2049      2052      2054      2047      2049      2052      2058
      2047      2055      2058      2052      2047      2055      2058      2060
      2049      2047      2055      2057      2049      2047      2055      2058
      2049      2052      2058      2055      2049      2052      2058      2060
      2051      2049      2047      2055      2051      2049      2052      2054
      2051      2049      2052      2058      2052      2049      2047      2055
      2052      2058      2055      2057      2054      2052      2058      2055
      2054      2052      2058      2060      2057      2055      2058      2060
      2062      2067      2069      2071      2062      2067      2069      2072
      2062      2067      2075      2077      2062      2067      2075      2078
      2064      2062      2067      2069      2064      2062      2067      2075
      2065      2062      2067      2069      2065      2062      2067      2075
      2066      2062      2067      2069      2066      2062      2067      2075
      2067      2069      2072      2074      2067      2069      2072      2078
      2067      2075      2078      2072      2067      2075      2078      2080
      2069      2067      2075      2077      2069      2067      2075      2078
      2069      2072      2078      2075      2069      2072      2078      2080
      2071      2069      2067      2075      2071      2069      2072      2074
      2071      2069      2072      2078      2072      2069      2067      2075
      2072      2078      2075      2077      2074      2072      2078      2075
      2074      2072      2078      2080      2077      2075      2078      2080
      2082      2087      2089      2091      2082      2087      2089      2092
      2082      2087      2095      2097      2082      2087      2095      2098
      2084      2082      2087      2089      2084      2082      2087      2095
      2085      2082      2087      2089      2085      2082      2087      2095
      2086      2082      2087      2089      2086      2082      2087      2095
      2087      2089      2092      2094      2087      2089      2092      2098
      2087      2095      2098      2092      2087      2095      2098      2100
      2089      2087      2095      2097      2089      2087      2095      2098
      2089      2092      2098      2095      2089      2092      2098      2100
      2091      2089      2087      2095      2091      2089      2092      2094
      2091      2089      2092      2098      2092      2089      2087      2095
      2092      2098      2095      2097      2094      2092      2098      2095
      2094      2092      2098      2100      2097      2095      2098      2100
      2102      2107      2109      2111      2102      2107      2109      2112
      2102      2107      2115      2117      2102      2107      2115      2118
      2104      2102      2107      2109      2104      2102      2107      2115
      2105      2102      2107      2109      2105      2102      2107      2115
      2106      2102      2107      2109      2106      2102      2107      2115
      2107      2109      2112      2114      2107      2109      2112      2118
      2107      2115      2118      2112      2107      2115      2118      2120
      2109      2107      2115      2117      2109      2107      2115      2118
      2109      2112      2118      2115      2109      2112      2118      2120
      2111      2109      2107      2115      2111      2109      2112      2114
      2111      2109      2112      2118      2112      2109      2107      2115
      2112      2118      2115      2117      2114      2112      2118      2115
      2114      2112      2118      2120      2117      2115      2118      2120
      2122      2127      2129      2131      2122      2127      2129      2132
      2122      2127      2135      2137      2122      2127      2135      2138
      2124      2122      2127      2129      2124      2122      2127      2135
      2125      2122      2127      2129      2125      2122      2127      2135
      2126      2122      2127      2129      2126      2122      2127      2135
      2127      2129      2132      2134      2127      2129      2132      2138
      2127      2135      2138      2132      2127      2135      2138      2140
      2129      2127      2135      2137      2129      2127      2135      2138
      2129      2132      2138      2135      2129      2132      2138      2140
      2131      2129      2127      2135      2131      2129      2132      2134
      2131      2129      2132      2138      2132      2129      2127      2135
      2132      2138      2135      2137      2134      2132      2138      2135
      2134      2132      2138      2140      2137      2135      2138      2140
      2142      2147      2149      2151      2142      2147      2149      2152
      2142      2147      2155      2157      2142      2147      2155      2158
      2144      2142      2147      2149      2144      2142      2147      2155
      2145      2142      2147      2149      2145      2142      2147      2155
      2146      2142      2147      2149      2146      2142      2147      2155
      2147      2149      2152      2154      2147      2149      2152      2158
      2147      2155      2158      2152      2147      2155      2158      2160
      2149      2147      2155      2157      2149      2147      2155      2158
      2149      2152      2158      2155      2149      2152      2158      2160
      2151      2149      2147      2155      2151      2149      2152      2154
      2151      2149      2152      2158      2152      2149      2147      2155
      2152      2158      2155      2157      2154      2152      2158      2155
      2154      2152      2158      2160      2157      2155      2158      2160
      2162      2167      2169      2171      2162      2167      2169      2172
      2162      2167      2175      2177      2162      2167      2175      2178
      2164      2162      2167      2169      2164      2162      2167      2175
      2165      2162      2167      2169      2165      2162      2167      2175
      2166      2162      2167      2169      2166      2162      2167      2175
      2167      2169      2172      2174      2167      2169      2172      2178
      2167      2175      2178      2172      2167      2175      2178      2180
      2169      2167      2175      2177      2169      2167      2175      2178
      2169      2172      2178      2175      2169      2172      2178      2180
      2171      2169      2167      2175      2171      2169      2172      2174
      2171      2169      2172      2178      2172      2169      2167      2175
      2172      2178      2175      2177      2174      2172      2178      2175
      2174      2172      2178      2180      2177      2175      2178      2180
      2182      2187      2189      2191      2182      2187      2189      2192
      2182      2187      2195      2197      2182      2187      2195      2198
      2184      2182      2187      2189      2184      2182      2187      2195
      2185      2182      2187      2189      2185      2182      2187      2195
      2186      2182      2187      2189      2186      2182      2187      2195
      2187      2189      2192      2194      2187      2189      2192      2198
      2187      2195      2198      2192      2187      2195      2198      2200
      2189      2187      2195      2197      2189      2187      2195      2198
      2189      2192      2198      2195      2189      2192      2198      2200
      2191      2189      2187      2195      2191      2189      2192      2194
      2191      2189      2192      2198      2192      2189      2187      2195
      2192      2198      2195      2197      2194      2192      2198      2195
      2194      2192      2198      2200      2197      2195      2198      2200
      2202      2207      2209      2211      2202      2207      2209      2212
      2202      2207      2215      2217      2202      2207      2215      2218
      2204      2202      2207      2209      2204      2202      2207      2215
      2205      2202      2207      2209      2205      2202      2207      2215
      2206      2202      2207      2209      2206      2202      2207      2215
      2207      2209      2212      2214      2207      2209      2212      2218
      2207      2215      2218      2212      2207      2215      2218      2220
      2209      2207      2215      2217      2209      2207      2215      2218
      2209      2212      2218      2215      2209      2212      2218      2220
      2211      2209      2207      2215      2211      2209      2212      2214
      2211      2209      2212      2218      2212      2209      2207      2215
      2212      2218      2215      2217      2214      2212      2218      2215
      2214      2212      2218      2220      2217      2215      2218      2220
      2222      2227      2229      2231      2222      2227      2229      2232
      2222      2227      2235      2237      2222      2227      2235      2238
      2224      2222      2227      2229      2224      2222      2227      2235
      2225      2222      2227      2229      2225      2222      2227      2235
      2226      2222      2227      2229      2226      2222      2227      2235
      2227      2229      2232      2234      2227      2229      2232      2238
      2227      2235      2238      2232      2227      2235      2238      2240
      2229      2227      2235      2237      2229      2227      2235      2238
      2229      2232      2238      2235      2229      2232      2238      2240
      2231      2229      2227      2235      2231      2229      2232      2234
      2231      2229      2232      2238      2232      2229      2227      2235
      2232      2238      2235      2237      2234      2232      2238      2235
      2234      2232      2238      2240      2237      2235      2238      2240
      2242      2247      2249      2251      2242      2247      2249      2252
      2242      2247      2255      2257      2242      2247      2255      2258
      2244      2242      2247      2249      2244      2242      2247      2255
      2245      2242      2247      2249      2245      2242      2247      2255
      2246      2242      2247      2249      2246      2242      2247      2255
      2247      2249      2252      2254      2247      2249      2252      2258
      2247      2255      2258      2252      2247      2255      2258      2260
      2249      2247      2255      2257      2249      2247      2255      2258
      2249      2252      2258      2255      2249      2252      2258      2260
      2251      2249      2247      2255      2251      2249      2252      2254
      2251      2249      2252      2258      2252      2249      2247      2255
      2252      2258      2255      2257      2254      2252      2258      2255
      2254      2252      2258      2260      2257      2255      2258      2260
      2262      2267      2269      2271      2262      2267      2269      2272
      2262      2267      2275      2277      2262      2267      2275      2278
      2264      2262      2267      2269      2264      2262      2267      2275
      2265      2262      2267      2269      2265      2262      2267      2275
      2266      2262      2267      2269      2266      2262      2267      2275
      2267      2269      2272      2274      2267      2269      2272      2278
      2267      2275      2278      2272      2267      2275      2278      2280
      2269      2267      2275      2277      2269      2267      2275      2278
      2269      2272      2278      2275      2269      2272      2278      2280
      2271      2269      2267      2275      2271      2269      2272      2274
      2271      2269      2272      2278      2272      2269      2267      2275
      2272      2278      2275      2277      2274      2272      2278      2275
      2274      2272      2278      2280      2277      2275      2278      2280
      2282      2287      2289      2291      2282      2287      2289      2292
      2282      2287      2295      2297      2282      2287      2295      2298
      2284      2282      2287      2289      2284      2282      2287      2295
      2285      2282      2287      2289      2285      2282      2287      2295
      2286      2282      2287      2289      2286      2282      2287      2295
      2287      2289      2292      2294      2287      2289      2292      2298
      2287      2295      2298      2292      2287      2295      2298      2300
      2289      2287      2295      2297      2289      2287      2295      2298
      2289      2292      2298      2295      2289      2292      2298      2300
      2291      2289      2287      2295      2291      2289      2292      2294
      2291      2289      2292      2298      2292      2289      2287      2295
      2292      2298      2295      2297      2294      2292      2298      2295
      2294      2292      2298      2300      2297      2295      2298      2300
      2302      2307      2309      2311      2302      2307      2309      2312
      2302      2307      2315      2317      2302      2307      2315      2318
      2304      2302      2307      2309      2304      2302      2307      2315
      2305      2302      2307      2309      2305      2302      2307      2315
      2306      2302      2307      2309      2306      2302      2307      2315
      2307      2309      2312      2314      2307      2309      2312      2318
      2307      2315      2318      2312      2307      2315      2318      2320
      2309      2307      2315      2317      2309      2307      2315      2318
      2309      2312      2318      2315      2309      2312      2318      2320
      2311      2309      2307      2315      2311      2309      2312      2314
      2311      2309      2312      2318      2312      2309      2307      2315
      2312      2318      2315      2317      2314      2312      2318      2315
      2314      2312      2318      2320      2317      2315      2318      2320
      2322      2327      2329      2331      2322      2327      2329      2332
      2322      2327      2335      2337      2322      2327      2335      2338
      2324      2322      2327      2329      2324      2322      2327      2335
      2325      2322      2327      2329      2325      2322      2327      2335
      2326      2322      2327      2329      2326      2322      2327      2335
      2327      2329      2332      2334      2327      2329      2332      2338
      2327      2335      2338      2332      2327      2335      2338      2340
      2329      2327      2335      2337      2329      2327      2335      2338
      2329      2332      2338      2335      2329      2332      2338      2340
      2331      2329      2327      2335      2331      2329      2332      2334
      2331      2329      2332      2338      2332      2329      2327      2335
      2332      2338      2335      2337      2334      2332      2338      2335
      2334      2332      2338      2340      2337      2335      2338      2340
      2342      2347      2349      2351      2342      2347      2349      2352
      2342      2347      2355      2357      2342      2347      2355      2358
      2344      2342      2347      2349      2344      2342      2347      2355
      2345      2342      2347      2349      2345      2342      2347      2355
      2346      2342      2347      2349      2346      2342      2347      2355
      2347      2349      2352      2354      2347      2349      2352      2358
      2347      2355      2358      2352      2347      2355      2358      2360
      2349      2347      2355      2357      2349      2347      2355      2358
      2349      2352      2358      2355      2349      2352      2358      2360
      2351      2349      2347      2355      2351      2349      2352      2354
      2351      2349      2352      2358      2352      2349      2347      2355
      2352      2358      2355      2357      2354      2352      2358      2355
      2354      2352      2358      2360      2357      2355      2358      2360
      2362      2367      2369      2371      2362      2367      2369      2372
      2362      2367      2375      2377      2362      2367      2375      2378
      2364      2362      2367      2369      2364      2362      2367      2375
      2365      2362      2367      2369      2365      2362      2367      2375
      2366      2362      2367      2369      2366      2362      2367      2375
      2367      2369      2372      2374      2367      2369      2372      2378
      2367      2375      2378      2372      2367      2375      2378      2380
      2369      2367      2375      2377      2369      2367      2375      2378
      2369      2372      2378      2375      2369      2372      2378      2380
      2371      2369      2367      2375      2371      2369      2372      2374
      2371      2369      2372      2378      2372      2369      2367      2375
      2372      2378      2375      2377      2374      2372      2378      2375
      2374      2372      2378      2380      2377      2375      2378      2380
      2382      2387      2389      2391      2382      2387      2389      2392
      2382      2387      2395      2397      2382      2387      2395      2398
      2384      2382      2387      2389      2384      2382      2387      2395
      2385      2382      2387      2389      2385      2382      2387      2395
      2386      2382      2387      2389      2386      2382      2387      2395
      2387      2389      2392      2394      2387      2389      2392      2398
      2387      2395      2398      2392      2387      2395      2398      2400
      2389      2387      2395      2397      2389      2387      2395      2398
      2389      2392      2398      2395      2389      2392      2398      2400
      2391      2389      2387      2395      2391      2389      2392      2394
      2391      2389      2392      2398      2392      2389      2387      2395
      2392      2398      2395      2397      2394      2392      2398      2395
      2394      2392      2398      2400      2397      2395      2398      2400
      2402      2407      2409      2411      2402      2407      2409      2412
      2402      2407      2415      2417      2402      2407      2415      2418
      2404      2402      2407      2409      2404      2402      2407      2415
      2405      2402      2407      2409      2405      2402      2407      2415
      2406      2402      2407      2409      2406      2402      2407      2415
      2407      2409      2412      2414      2407      2409      2412      2418
      2407      2415      2418      2412      2407      2415      2418      2420
      2409      2407      2415      2417      2409      2407      2415      2418
      2409      2412      2418      2415      2409      2412      2418      2420
      2411      2409      2407      2415      2411      2409      2412      2414
      2411      2409      2412      2418      2412      2409      2407      2415
      2412      2418      2415      2417      2414      2412      2418      2415
      2414      2412      2418      2420      2417      2415      2418      2420
      2422      2427      2429      2431      2422      2427      2429      2432
      2422      2427      2435      2437      2422      2427      2435      2438
      2424      2422      2427      2429      2424      2422      2427      2435
      2425      2422      2427      2429      2425      2422      2427      2435
      2426      2422      2427      2429      2426      2422      2427      2435
      2427      2429      2432      2434      2427      2429      2432      2438
      2427      2435      2438      2432      2427      2435      2438      2440
      2429      2427      2435      2437      2429      2427      2435      2438
      2429      2432      2438      2435      2429      2432      2438      2440
      2431      2429      2427      2435      2431      2429      2432      2434
      2431      2429      2432      2438      2432      2429      2427      2435
      2432      2438      2435      2437      2434      2432      2438      2435
      2434      2432      2438      2440      2437      2435      2438      2440
      2442      2447      2449      2451      2442      2447      2449      2452
      2442      2447      2455      2457      2442      2447      2455      2458
      2444      2442      2447      2449      2444      2442      2447      2455
      2445      2442      2447      2449      2445      2442      2447      2455
      2446      2442      2447      2449      2446      2442      2447      2455
      2447      2449      2452      2454      2447      2449      2452      2458
      2447      2455      2458      2452      2447      2455      2458      2460
      2449      2447      2455      2457      2449      2447      2455      2458
      2449      2452      2458      2455      2449      2452      2458      2460
      2451      2449      2447      2455      2451      2449      2452      2454
      2451      2449      2452      2458      2452      2449      2447      2455
      2452      2458      2455      2457      2454      2452      2458      2455
      2454      2452      2458      2460      2457      2455      2458      2460
      2462      2467      2469      2471      2462      2467      2469      2472
      2462      2467      2475      2477      2462      2467      2475      2478
      2464      2462      2467      2469      2464      2462      2467      2475
      2465      2462      2467      2469      2465      2462      2467      2475
      2466      2462      2467      2469      2466      2462      2467      2475
      2467      2469      2472      2474      2467      2469      2472      2478
      2467      2475      2478      2472      2467      2475      2478      2480
      2469      2467      2475      2477      2469      2467      2475      2478
      2469      2472      2478      2475      2469      2472      2478      2480
      2471      2469      2467      2475      2471      2469      2472      2474
      2471      2469      2472      2478      2472      2469      2467      2475
      2472      2478      2475      2477      2474      2472      2478      2475
      2474      2472      2478      2480      2477      2475      2478      2480
      2482      2487      2489      2491      2482      2487      2489      2492
      2482      2487      2495      2497      2482      2487      2495      2498
      2484      2482      2487      2489      2484      2482      2487      2495
      2485      2482      2487      2489      2485      2482      2487      2495
      2486      2482      2487      2489      2486      2482      2487      2495
      2487      2489      2492      2494      2487      2489      2492      2498
      2487      2495      2498      2492      2487      2495      2498      2500
      2489      2487      2495      2497      2489      2487      2495      2498
      2489      2492      2498      2495      2489      2492      2498      2500
      2491      2489      2487      2495      2491      2489      2492      2494
      2491      2489      2492      2498      2492      2489      2487      2495
      2492      2498      2495      2497      2494      2492      2498      2495
      2494      2492      2498      2500      2497      2495      2498      2500
      2502      2507      2509      2511      2502      2507      2509      2512
      2502      2507      2515      2517      2502      2507      2515      2518
      2504      2502      2507      2509      2504      2502      2507      2515
      2505      2502      2507      2509      2505      2502      2507      2515
      2506      2502      2507      2509      2506      2502      2507      2515
      2507      2509      2512      2514      2507      2509      2512      2518
      2507      2515      2518      2512      2507      2515      2518      2520
      2509      2507      2515      2517      2509      2507      2515      2518
      2509      2512      2518      2515      2509      2512      2518      2520
      2511      2509      2507      2515      2511      2509      2512      2514
      2511      2509      2512      2518      2512      2509      2507      2515
      2512      2518      2515      2517      2514      2512      2518      2515
      2514      2512      2518      2520      2517      2515      2518      2520
      2522      2527      2529      2531      2522      2527      2529      2532
      2522      2527      2535      2537      2522      2527      2535      2538
      2524      2522      2527      2529      2524      2522      2527      2535
      2525      2522      2527      2529      2525      2522      2527      2535
      2526      2522      2527      2529      2526      2522      2527      2535
      2527      2529      2532      2534      2527      2529      2532      2538
      2527      2535      2538      2532      2527      2535      2538      2540
      2529      2527      2535      2537      2529      2527      2535      2538
      2529      2532      2538      2535      2529      2532      2538      2540
      2531      2529      2527      2535      2531      2529      2532      2534
      2531      2529      2532      2538      2532      2529      2527      2535
      2532      2538      2535      2537      2534      2532      2538      2535
      2534      2532      2538      2540      2537      2535      2538      2540
      2542      2547      2549      2551      2542      2547      2549      2552
      2542      2547      2555      2557      2542      2547      2555      2558
      2544      2542      2547      2549      2544      2542      2547      2555
      2545      2542      2547      2549      2545      2542      2547      2555
      2546      2542      2547      2549      2546      2542      2547      2555
      2547      2549      2552      2554      2547      2549      2552      2558
      2547      2555      2558      2552      2547      2555      2558      2560
      2549      2547      2555      2557      2549      2547      2555      2558
      2549      2552      2558      2555      2549      2552      2558      2560
      2551      2549      2547      2555      2551      2549      2552      2554
      2551      2549      2552      2558      2552      2549      2547      2555
      2552      2558      2555      2557      2554      2552      2558      2555
      2554      2552      2558      2560      2557      2555      2558      2560
      2562      2567      2569      2571      2562      2567      2569      2572
      2562      2567      2575      2577      2562      2567      2575      2578
      2564      2562      2567      2569      2564      2562      2567      2575
      2565      2562      2567      2569      2565      2562      2567      2575
      2566      2562      2567      2569      2566      2562      2567      2575
      2567      2569      2572      2574      2567      2569      2572      2578
      2567      2575      2578      2572      2567      2575      2578      2580
      2569      2567      2575      2577      2569      2567      2575      2578
      2569      2572      2578      2575      2569      2572      2578      2580
      2571      2569      2567      2575      2571      2569      2572      2574
      2571      2569      2572      2578      2572      2569      2567      2575
      2572      2578      2575      2577      2574      2572      2578      2575
      2574      2572      2578      2580      2577      2575      2578      2580
      2582      2587      2589      2591      2582      2587      2589      2592
      2582      2587      2595      2597      2582      2587      2595      2598
      2584      2582      2587      2589      2584      2582      2587      2595
      2585      2582      2587      2589      2585      2582      2587      2595
      2586      2582      2587      2589      2586      2582      2587      2595
      2587      2589      2592      2594      2587      2589      2592      2598
      2587      2595      2598      2592      2587      2595      2598      2600
      2589      2587      2595      2597      2589      2587      2595      2598
      2589      2592      2598      2595      2589      2592      2598      2600
      2591      2589      2587      2595      2591      2589      2592      2594
      2591      2589      2592      2598      2592      2589      2587      2595
      2592      2598      2595      2597      2594      2592      2598      2595
      2594      2592      2598      2600      2597      2595      2598      2600
      2602      2607      2609      2611      2602      2607      2609      2612
      2602      2607      2615      2617      2602      2607      2615      2618
      2604      2602      2607      2609      2604      2602      2607      2615
      2605      2602      2607      2609      2605      2602      2607      2615
      2606      2602      2607      2609      2606      2602      2607      2615
      2607      2609      2612      2614      2607      2609      2612      2618
      2607      2615      2618      2612      2607      2615      2618      2620
      2609      2607      2615      2617      2609      2607      2615      2618
      2609      2612      2618      2615      2609      2612      2618      2620
      2611      2609      2607      2615      2611      2609      2612      2614
      2611      2609      2612      2618      2612      2609      2607      2615
      2612      2618      2615      2617      2614      2612      2618      2615
      2614      2612      2618      2620      2617      2615      2618      2620
      2622      2627      2629      2631      2622      2627      2629      2632
      2622      2627      2635      2637      2622      2627      2635      2638
      2624      2622      2627      2629      2624      2622      2627      2635
      2625      2622      2627      2629      2625      2622      2627      2635
      2626      2622      2627      2629      2626      2622      2627      2635
      2627      2629      2632      2634      2627      2629      2632      2638
      2627      2635      2638      2632      2627      2635      2638      2640
      2629      2627      2635      2637      2629      2627      2635      2638
      2629      2632      2638      2635      2629      2632      2638      2640
      2631      2629      2627      2635      2631      2629      2632      2634
      2631      2629      2632      2638      2632      2629      2627      2635
      2632      2638      2635      2637      2634      2632      2638      2635
      2634      2632      2638      2640      2637      2635      2638      2640
      2642      2647      2649      2651      2642      2647      2649      2652
      2642      2647      2655      2657      2642      2647      2655      2658
      2644      2642      2647      2649      2644      2642      2647      2655
      2645      2642      2647      2649      2645      2642      2647      2655
      2646      2642      2647      2649      2646      2642      2647      2655
      2647      2649      2652      2654      2647      2649      2652      2658
      2647      2655      2658      2652      2647      2655      2658      2660
      2649      2647      2655      2657      2649      2647      2655      2658
      2649      2652      2658      2655      2649      2652      2658      2660
      2651      2649      2647      2655      2651      2649      2652      2654
      2651      2649      2652      2658      2652      2649      2647      2655
      2652      2658      2655      2657      2654      2652      2658      2655
      2654      2652      2658      2660      2657      2655      2658      2660
      2662      2667      2669      2671      2662      2667      2669      2672
      2662      2667      2675      2677      2662      2667      2675      2678
      2664      2662      2667      2669      2664      2662      2667      2675
      2665      2662      2667      2669      2665      2662      2667      2675
      2666      2662      2667      2669      2666      2662      2667      2675
      2667      2669      2672      2674      2667      2669      2672      2678
      2667      2675      2678      2672      2667      2675      2678      2680
      2669      2667      2675      2677      2669      2667      2675      2678
      2669      2672      2678      2675      2669      2672      2678      2680
      2671      2669      2667      2675      2671      2669      2672      2674
      2671      2669      2672      2678      2672      2669      2667      2675
      2672      2678      2675      2677      2674      2672      2678      2675
      2674      2672      2678      2680      2677      2675      2678      2680
      2682      2687      2689      2691      2682      2687      2689      2692
      2682      2687      2695      2697      2682      2687      2695      2698
      2684      2682      2687      2689      2684      2682      2687      2695
      2685      2682      2687      2689      2685      2682      2687      2695
      2686      2682      2687      2689      2686      2682      2687      2695
      2687      2689      2692      2694      2687      2689      2692      2698
      2687      2695      2698      2692      2687      2695      2698      2700
      2689      2687      2695      2697      2689      2687      2695      2698
      2689      2692      2698      2695      2689      2692      2698      2700
      2691      2689      2687      2695      2691      2689      2692      2694
      2691      2689      2692      2698      2692      2689      2687      2695
      2692      2698      2695      2697      2694      2692      2698      2695
      2694      2692      2698      2700      2697      2695      2698      2700
      2702      2707      2709      2711      2702      2707      2709      2712
      2702      2707      2715      2717      2702      2707      2715      2718
      2704      2702      2707      2709      2704      2702      2707      2715
      2705      2702      2707      2709      2705      2702      2707      2715
      2706      2702      2707      2709      2706      2702      2707      2715
      2707      2709      2712      2714      2707      2709      2712      2718
      2707      2715      2718      2712      2707      2715      2718      2720
      2709      2707      2715      2717      2709      2707      2715      2718
      2709      2712      2718      2715      2709      2712      2718      2720
      2711      2709      2707      2715      2711      2709      2712      2714
      2711      2709      2712      2718      2712      2709      2707      2715
      2712      2718      2715      2717      2714      2712      2718      2715
      2714      2712      2718      2720      2717      2715      2718      2720
      2722      2727      2729      2731      2722      2727      2729      2732
      2722      2727      2735      2737      2722      2727      2735      2738
      2724      2722      2727      2729      2724      2722      2727      2735
      2725      2722      2727      2729      2725      2722      2727      2735
      2726      2722      2727      2729      2726      2722      2727      2735
      2727      2729      2732      2734      2727      2729      2732      2738
      2727      2735      2738      2732      2727      2735      2738      2740
      2729      2727      2735      2737      2729      2727      2735      2738
      2729      2732      2738      2735      2729      2732      2738      2740
      2731      2729      2727      2735      2731      2729      2732      2734
      2731      2729      2732      2738      2732      2729      2727      2735
      2732      2738      2735      2737      2734      2732      2738      2735
      2734      2732      2738      2740      2737      2735      2738      2740
      2742      2747      2749      2751      2742      2747      2749      2752
      2742      2747      2755      2757      2742      2747      2755      2758
      2744      2742      2747      2749      2744      2742      2747      2755
      2745      2742      2747      2749      2745      2742      2747      2755
      2746      2742      2747      2749      2746      2742      2747      2755
      2747      2749      2752      2754      2747      2749      2752      2758
      2747      2755      2758      2752      2747      2755      2758      2760
      2749      2747      2755      2757      2749      2747      2755      2758
      2749      2752      2758      2755      2749      2752      2758      2760
      2751      2749      2747      2755      2751      2749      2752      2754
      2751      2749      2752      2758      2752      2749      2747      2755
      2752      2758      2755      2757      2754      2752      2758      2755
      2754      2752      2758      2760      2757      2755      2758      2760
      2762      2767      2769      2771      2762      2767      2769      2772
      2762      2767      2775      2777      2762      2767      2775      2778
      2764      2762      2767      2769      2764      2762      2767      2775
      2765      2762      2767      2769      2765      2762      2767      2775
      2766      2762      2767      2769      2766      2762      2767      2775
      2767      2769      2772      2774      2767      2769      2772      2778
      2767      2775      2778      2772      2767      2775      2778      2780
      2769      2767      2775      2777      2769      2767      2775      2778
      2769      2772      2778      2775      2769      2772      2778      2780
      2771      2769      2767      2775      2771      2769      2772      2774
      2771      2769      2772      2778      2772      2769      2767      2775
      2772      2778      2775      2777      2774      2772      2778      2775
      2774      2772      2778      2780      2777      2775      2778      2780
      2784      2782      2789      2794      2784      2782      2791      2793
      2786      2784      2782      2789      2786      2784      2782      2791
      2787      2784      2782      2789      2787      2784      2782      2791
      2788      2784      2782      2789      2788      2784      2782      2791
      2789      2782      2791      2793      2791      2782      2789      2794
      2801      2799      2806      2811      2801      2799      2808      2810
      2803      2801      2799      2806      2803      2801      2799      2808
      2804      2801      2799      2806      2804      2801      2799      2808
      2805      2801      2799      2806      2805      2801      2799      2808
      2806      2799      2808      2810      2808      2799      2806      2811
      2818      2816      2823      2828      2818      2816      2825      2827
      2820      2818      2816      2823      2820      2818      2816      2825
      2821      2818      2816      2823      2821      2818      2816      2825
      2822      2818      2816      2823      2822      2818      2816      2825
      2823      2816      2825      2827      2825      2816      2823      2828
      2835      2833      2840      2845      2835      2833      2842      2844
      2837      2835      2833      2840      2837      2835      2833      2842
      2838      2835      2833      2840      2838      2835      2833      2842
      2839      2835      2833      2840      2839      2835      2833      2842
      2840      2833      2842      2844      2842      2833      2840      2845
      2852      2850      2857      2862      2852      2850      2859      2861
      2854      2852      2850      2857      2854      2852      2850      2859
      2855      2852      2850      2857      2855      2852      2850      2859
      2856      2852      2850      2857      2856      2852      2850      2859
      2857      2850      2859      2861      2859      2850      2857      2862
      2869      2867      2874      2879      2869      2867      2876      2878
      2871      2869      2867      2874      2871      2869      2867      2876
      2872      2869      2867      2874      2872      2869      2867      2876
      2873      2869      2867      2874      2873      2869      2867      2876
      2874      2867      2876      2878      2876      2867      2874      2879
      2886      2884      2891      2896      2886      2884      2893      2895
      2888      2886      2884      2891      2888      2886      2884      2893
      2889      2886      2884      2891      2889      2886      2884      2893
      2890      2886      2884      2891      2890      2886      2884      2893
      2891      2884      2893      2895      2893      2884      2891      2896
      2903      2901      2908      2913      2903      2901      2910      2912
      2905      2903      2901      2908      2905      2903      2901      2910
      2906      2903      2901      2908      2906      2903      2901      2910
      2907      2903      2901      2908      2907      2903      2901      2910
      2908      2901      2910      2912      2910      2901      2908      2913
      2920      2918      2925      2930      2920      2918      2927      2929
      2922      2920      2918      2925      2922      2920      2918      2927
      2923      2920      2918      2925      2923      2920      2918      2927
      2924      2920      2918      2925      2924      2920      2918      2927
      2925      2918      2927      2929      2927      2918      2925      2930
      2937      2935      2942      2947      2937      2935      2944      2946
      2939      2937      2935      2942      2939      2937      2935      2944
      2940      2937      2935      2942      2940      2937      2935      2944
      2941      2937      2935      2942      2941      2937      2935      2944
      2942      2935      2944      2946      2944      2935      2942      2947
      2954      2952      2959      2964      2954      2952      2961      2963
      2956      2954      2952      2959      2956      2954      2952      2961
      2957      2954      2952      2959      2957      2954      2952      2961
      2958      2954      2952      2959      2958      2954      2952      2961
      2959      2952      2961      2963      2961      2952      2959      2964
      2971      2969      2976      2981      2971      2969      2978      2980
      2973      2971      2969      2976      2973      2971      2969      2978
      2974      2971      2969      2976      2974      2971      2969      2978
      2975      2971      2969      2976      2975      2971      2969      2978
      2976      2969      2978      2980      2978      2969      2976      2981
      2988      2986      2993      2998      2988      2986      2995      2997
      2990      2988      2986      2993      2990      2988      2986      2995
      2991      2988      2986      2993      2991      2988      2986      2995
      2992      2988      2986      2993      2992      2988      2986      2995
      2993      2986      2995      2997      2995      2986      2993      2998
      3005      3003      3010      3015      3005      3003      3012      3014
      3007      3005      3003      3010      3007      3005      3003      3012
      3008      3005      3003      3010      3008      3005      3003      3012
      3009      3005      3003      3010      3009      3005      3003      3012
      3010      3003      3012      3014      3012      3003      3010      3015
      3022      3020      3027      3032      3022      3020      3029      3031
      3024      3022      3020      3027      3024      3022      3020      3029
      3025      3022      3020      3027      3025      3022      3020      3029
      3026      3022      3020      3027      3026      3022      3020      3029
      3027      3020      3029      3031      3029      3020      3027      3032
      3039      3037      3044      3049      3039      3037      3046      3048
      3041      3039      3037      3044      3041      3039      3037      3046
      3042      3039      3037      3044      3042      3039      3037      3046
      3043      3039      3037      3044      3043      3039      3037      3046
      3044      3037      3046      3048      3046      3037      3044      3049
      3056      3054      3061      3066      3056      3054      3063      3065
      3058      3056      3054      3061      3058      3056      3054      3063
      3059      3056      3054      3061      3059      3056      3054      3063
      3060      3056      3054      3061      3060      3056      3054      3063
      3061      3054      3063      3065      3063      3054      3061      3066
      3073      3071      3078      3083      3073      3071      3080      3082
      3075      3073      3071      3078      3075      3073      3071      3080
      3076      3073      3071      3078      3076      3073      3071      3080
      3077      3073      3071      3078      3077      3073      3071      3080
      3078      3071      3080      3082      3080      3071      3078      3083
      3090      3088      3095      3100      3090      3088      3097      3099
      3092      3090      3088      3095      3092      3090      3088      3097
      3093      3090      3088      3095      3093      3090      3088      3097
      3094      3090      3088      3095      3094      3090      3088      3097
      3095      3088      3097      3099      3097      3088      3095      3100
      3107      3105      3112      3117      3107      3105      3114      3116
      3109      3107      3105      3112      3109      3107      3105      3114
      3110      3107      3105      3112      3110      3107      3105      3114
      3111      3107      3105      3112      3111      3107      3105      3114
      3112      3105      3114      3116      3114      3105      3112      3117
      3124      3122      3129      3134      3124      3122      3131      3133
      3126      3124      3122      3129      3126      3124      3122      3131
      3127      3124      3122      3129      3127      3124      3122      3131
      3128      3124      3122      3129      3128      3124      3122      3131
      3129      3122      3131      3133      3131      3122      3129      3134
      3141      3139      3146      3151      3141      3139      3148      3150
      3143      3141      3139      3146      3143      3141      3139      3148
      3144      3141      3139      3146      3144      3141      3139      3148
      3145      3141      3139      3146      3145      3141      3139      3148
      3146      3139      3148      3150      3148      3139      3146      3151
      3158      3156      3163      3168      3158      3156      3165      3167
      3160      3158      3156      3163      3160      3158      3156      3165
      3161      3158      3156      3163      3161      3158      3156      3165
      3162      3158      3156      3163      3162      3158      3156      3165
      3163      3156      3165      3167      3165      3156      3163      3168
      3175      3173      3180      3185      3175      3173      3182      3184
      3177      3175      3173      3180      3177      3175      3173      3182
      3178      3175      3173      3180      3178      3175      3173      3182
      3179      3175      3173      3180      3179      3175      3173      3182
      3180      3173      3182      3184      3182      3173      3180      3185
      3192      3190      3197      3202      3192      3190      3199      3201
      3194      3192      3190      3197      3194      3192      3190      3199
      3195      3192      3190      3197      3195      3192      3190      3199
      3196      3192      3190      3197      3196      3192      3190      3199
      3197      3190      3199      3201      3199      3190      3197      3202
      3209      3207      3214      3219      3209      3207      3216      3218
      3211      3209      3207      3214      3211      3209      3207      3216
      3212      3209      3207      3214      3212      3209      3207      3216
      3213      3209      3207      3214      3213      3209      3207      3216
      3214      3207      3216      3218      3216      3207      3214      3219
      3226      3224      3231      3236      3226      3224      3233      3235
      3228      3226      3224      3231      3228      3226      3224      3233
      3229      3226      3224      3231      3229      3226      3224      3233
      3230      3226      3224      3231      3230      3226      3224      3233
      3231      3224      3233      3235      3233      3224      3231      3236
      3243      3241      3248      3253      3243      3241      3250      3252
      3245      3243      3241      3248      3245      3243      3241      3250
      3246      3243      3241      3248      3246      3243      3241      3250
      3247      3243      3241      3248      3247      3243      3241      3250
      3248      3241      3250      3252      3250      3241      3248      3253
      3260      3258      3265      3270      3260      3258      3267      3269
      3262      3260      3258      3265      3262      3260      3258      3267
      3263      3260      3258      3265      3263      3260      3258      3267
      3264      3260      3258      3265      3264      3260      3258      3267
      3265      3258      3267      3269      3267      3258      3265      3270
      3277      3275      3282      3287      3277      3275      3284      3286
      3279      3277      3275      3282      3279      3277      3275      3284
      3280      3277      3275      3282      3280      3277      3275      3284
      3281      3277      3275      3282      3281      3277      3275      3284
      3282      3275      3284      3286      3284      3275      3282      3287
      3294      3292      3299      3304      3294      3292      3301      3303
      3296      3294      3292      3299      3296      3294      3292      3301
      3297      3294      3292      3299      3297      3294      3292      3301
      3298      3294      3292      3299      3298      3294      3292      3301
      3299      3292      3301      3303      3301      3292      3299      3304
      3311      3309      3316      3321      3311      3309      3318      3320
      3313      3311      3309      3316      3313      3311      3309      3318
      3314      3311      3309      3316      3314      3311      3309      3318
      3315      3311      3309      3316      3315      3311      3309      3318
      3316      3309      3318      3320      3318      3309      3316      3321
      3328      3326      3333      3338      3328      3326      3335      3337
      3330      3328      3326      3333      3330      3328      3326      3335
      3331      3328      3326      3333      3331      3328      3326      3335
      3332      3328      3326      3333      3332      3328      3326      3335
      3333      3326      3335      3337      3335      3326      3333      3338
      3345      3343      3350      3355      3345      3343      3352      3354
      3347      3345      3343      3350      3347      3345      3343      3352
      3348      3345      3343      3350      3348      3345      3343      3352
      3349      3345      3343      3350      3349      3345      3343      3352
      3350      3343      3352      3354      3352      3343      3350      3355
      3362      3360      3367      3372      3362      3360      3369      3371
      3364      3362      3360      3367      3364      3362      3360      3369
      3365      3362      3360      3367      3365      3362      3360      3369
      3366      3362      3360      3367      3366      3362      3360      3369
      3367      3360      3369      3371      3369      3360      3367      3372
      3379      3377      3384      3389      3379      3377      3386      3388
      3381      3379      3377      3384      3381      3379      3377      3386
      3382      3379      3377      3384      3382      3379      3377      3386
      3383      3379      3377      3384      3383      3379      3377      3386
      3384      3377      3386      3388      3386      3377      3384      3389
      3396      3394      3401      3406      3396      3394      3403      3405
      3398      3396      3394      3401      3398      3396      3394      3403
      3399      3396      3394      3401      3399      3396      3394      3403
      3400      3396      3394      3401      3400      3396      3394      3403
      3401      3394      3403      3405      3403      3394      3401      3406
      3413      3411      3418      3423      3413      3411      3420      3422
      3415      3413      3411      3418      3415      3413      3411      3420
      3416      3413      3411      3418      3416      3413      3411      3420
      3417      3413      3411      3418      3417      3413      3411      3420
      3418      3411      3420      3422      3420      3411      3418      3423
      3430      3428      3435      3440      3430      3428      3437      3439
      3432      3430      3428      3435      3432      3430      3428      3437
      3433      3430      3428      3435      3433      3430      3428      3437
      3434      3430      3428      3435      3434      3430      3428      3437
      3435      3428      3437      3439      3437      3428      3435      3440
      3447      3445      3452      3457      3447      3445      3454      3456
      3449      3447      3445      3452      3449      3447      3445      3454
      3450      3447      3445      3452      3450      3447      3445      3454
      3451      3447      3445      3452      3451      3447      3445      3454
      3452      3445      3454      3456      3454      3445      3452      3457
      3464      3462      3469      3474      3464      3462      3471      3473
      3466      3464      3462      3469      3466      3464      3462      3471
      3467      3464      3462      3469      3467      3464      3462      3471
      3468      3464      3462      3469      3468      3464      3462      3471
      3469      3462      3471      3473      3471      3462      3469      3474
      3481      3479      3486      3491      3481      3479      3488      3490
      3483      3481      3479      3486      3483      3481      3479      3488
      3484      3481      3479      3486      3484      3481      3479      3488
      3485      3481      3479      3486      3485      3481      3479      3488
      3486      3479      3488      3490      3488      3479      3486      3491
      3498      3496      3503      3508      3498      3496      3505      3507
      3500      3498      3496      3503      3500      3498      3496      3505
      3501      3498      3496      3503      3501      3498      3496      3505
      3502      3498      3496      3503      3502      3498      3496      3505
      3503      3496      3505      3507      3505      3496      3503      3508
      3515      3513      3520      3525      3515      3513      3522      3524
      3517      3515      3513      3520      3517      3515      3513      3522
      3518      3515      3513      3520      3518      3515      3513      3522
      3519      3515      3513      3520      3519      3515      3513      3522
      3520      3513      3522      3524      3522      3513      3520      3525
      3532      3530      3537      3542      3532      3530      3539      3541
      3534      3532      3530      3537      3534      3532      3530      3539
      3535      3532      3530      3537      3535      3532      3530      3539
      3536      3532      3530      3537      3536      3532      3530      3539
      3537      3530      3539      3541      3539      3530      3537      3542
      3549      3547      3554      3559      3549      3547      3556      3558
      3551      3549      3547      3554      3551      3549      3547      3556
      3552      3549      3547      3554      3552      3549      3547      3556
      3553      3549      3547      3554      3553      3549      3547      3556
      3554      3547      3556      3558      3556      3547      3554      3559
      3566      3564      3571      3576      3566      3564      3573      3575
      3568      3566      3564      3571      3568      3566      3564      3573
      3569      3566      3564      3571      3569      3566      3564      3573
      3570      3566      3564      3571      3570      3566      3564      3573
      3571      3564      3573      3575      3573      3564      3571      3576
      3583      3581      3588      3593      3583      3581      3590      3592
      3585      3583      3581      3588      3585      3583      3581      3590
      3586      3583      3581      3588      3586      3583      3581      3590
      3587      3583      3581      3588      3587      3583      3581      3590
      3588      3581      3590      3592      3590      3581      3588      3593
      3600      3598      3605      3610      3600      3598      3607      3609
      3602      3600      3598      3605      3602      3600      3598      3607
      3603      3600      3598      3605      3603      3600      3598      3607
      3604      3600      3598      3605      3604      3600      3598      3607
      3605      3598      3607      3609      3607      3598      3605      3610
      3617      3615      3622      3627      3617      3615      3624      3626
      3619      3617      3615      3622      3619      3617      3615      3624
      3620      3617      3615      3622      3620      3617      3615      3624
      3621      3617      3615      3622      3621      3617      3615      3624
      3622      3615      3624      3626      3624      3615      3622      3627
      3634      3632      3639      3644      3634      3632      3641      3643
      3636      3634      3632      3639      3636      3634      3632      3641
      3637      3634      3632      3639      3637      3634      3632      3641
      3638      3634      3632      3639      3638      3634      3632      3641
      3639      3632      3641      3643      3641      3632      3639      3644
      3651      3649      3656      3661      3651      3649      3658      3660
      3653      3651      3649      3656      3653      3651      3649      3658
      3654      3651      3649      3656      3654      3651      3649      3658
      3655      3651      3649      3656      3655      3651      3649      3658
      3656      3649      3658      3660      3658      3649      3656      3661
      3668      3666      3673      3678      3668      3666      3675      3677
      3670      3668      3666      3673      3670      3668      3666      3675
      3671      3668      3666      3673      3671      3668      3666      3675
      3672      3668      3666      3673      3672      3668      3666      3675
      3673      3666      3675      3677      3675      3666      3673      3678
      3685      3683      3690      3695      3685      3683      3692      3694
      3687      3685      3683      3690      3687      3685      3683      3692
      3688      3685      3683      3690      3688      3685      3683      3692
      3689      3685      3683      3690      3689      3685      3683      3692
      3690      3683      3692      3694      3692      3683      3690      3695
      3702      3700      3707      3712      3702      3700      3709      3711
      3704      3702      3700      3707      3704      3702      3700      3709
      3705      3702      3700      3707      3705      3702      3700      3709
      3706      3702      3700      3707      3706      3702      3700      3709
      3707      3700      3709      3711      3709      3700      3707      3712
      3719      3717      3724      3729      3719      3717      3726      3728
      3721      3719      3717      3724      3721      3719      3717      3726
      3722      3719      3717      3724      3722      3719      3717      3726
      3723      3719      3717      3724      3723      3719      3717      3726
      3724      3717      3726      3728      3726      3717      3724      3729
      3736      3734      3741      3746      3736      3734      3743      3745
      3738      3736      3734      3741      3738      3736      3734      3743
      3739      3736      3734      3741      3739      3736      3734      3743
      3740      3736      3734      3741      3740      3736      3734      3743
      3741      3734      3743      3745      3743      3734      3741      3746
      3753      3751      3758      3763      3753      3751      3760      3762
      3755      3753      3751      3758      3755      3753      3751      3760
      3756      3753      3751      3758      3756      3753      3751      3760
      3757      3753      3751      3758      3757      3753      3751      3760
      3758      3751      3760      3762      3760      3751      3758      3763
      3770      3768      3775      3780      3770      3768      3777      3779
      3772      3770      3768      3775      3772      3770      3768      3777
      3773      3770      3768      3775      3773      3770      3768      3777
      3774      3770      3768      3775      3774      3770      3768      3777
      3775      3768      3777      3779      3777      3768      3775      3780
      3787      3785      3792      3797      3787      3785      3794      3796
      3789      3787      3785      3792      3789      3787      3785      3794
      3790      3787      3785      3792      3790      3787      3785      3794
      3791      3787      3785      3792      3791      3787      3785      3794
      3792      3785      3794      3796      3794      3785      3792      3797
      3804      3802      3809      3814      3804      3802      3811      3813
      3806      3804      3802      3809      3806      3804      3802      3811
      3807      3804      3802      3809      3807      3804      3802      3811
      3808      3804      3802      3809      3808      3804      3802      3811
      3809      3802      3811      3813      3811      3802      3809      3814
      3821      3819      3826      3831      3821      3819      3828      3830
      3823      3821      3819      3826      3823      3821      3819      3828
      3824      3821      3819      3826      3824      3821      3819      3828
      3825      3821      3819      3826      3825      3821      3819      3828
      3826      3819      3828      3830      3828      3819      3826      3831
      3838      3836      3843      3848      3838      3836      3845      3847
      3840      3838      3836      3843      3840      3838      3836      3845
      3841      3838      3836      3843      3841      3838      3836      3845
      3842      3838      3836      3843      3842      3838      3836      3845
      3843      3836      3845      3847      3845      3836      3843      3848
      3855      3853      3860      3865      3855      3853      3862      3864
      3857      3855      3853      3860      3857      3855      3853      3862
      3858      3855      3853      3860      3858      3855      3853      3862
      3859      3855      3853      3860      3859      3855      3853      3862
      3860      3853      3862      3864      3862      3853      3860      3865
      3872      3870      3877      3882      3872      3870      3879      3881
      3874      3872      3870      3877      3874      3872      3870      3879
      3875      3872      3870      3877      3875      3872      3870      3879
      3876      3872      3870      3877      3876      3872      3870      3879
      3877      3870      3879      3881      3879      3870      3877      3882
      3889      3887      3894      3899      3889      3887      3896      3898
      3891      3889      3887      3894      3891      3889      3887      3896
      3892      3889      3887      3894      3892      3889      3887      3896
      3893      3889      3887      3894      3893      3889      3887      3896
      3894      3887      3896      3898      3896      3887      3894      3899
      3906      3904      3911      3916      3906      3904      3913      3915
      3908      3906      3904      3911      3908      3906      3904      3913
      3909      3906      3904      3911      3909      3906      3904      3913
      3910      3906      3904      3911      3910      3906      3904      3913
      3911      3904      3913      3915      3913      3904      3911      3916
      3923      3921      3928      3933      3923      3921      3930      3932
      3925      3923      3921      3928      3925      3923      3921      3930
      3926      3923      3921      3928      3926      3923      3921      3930
      3927      3923      3921      3928      3927      3923      3921      3930
      3928      3921      3930      3932      3930      3921      3928      3933
      3940      3938      3945      3950      3940      3938      3947      3949
      3942      3940      3938      3945      3942      3940      3938      3947
      3943      3940      3938      3945      3943      3940      3938      3947
      3944      3940      3938      3945      3944      3940      3938      3947
      3945      3938      3947      3949      3947      3938      3945      3950
      3957      3955      3962      3967      3957      3955      3964      3966
      3959      3957      3955      3962      3959      3957      3955      3964
      3960      3957      3955      3962      3960      3957      3955      3964
      3961      3957      3955      3962      3961      3957      3955      3964
      3962      3955      3964      3966      3964      3955      3962      3967
      3974      3972      3979      3984      3974      3972      3981      3983
      3976      3974      3972      3979      3976      3974      3972      3981
      3977      3974      3972      3979      3977      3974      3972      3981
      3978      3974      3972      3979      3978      3974      3972      3981
      3979      3972      3981      3983      3981      3972      3979      3984
      3991      3989      3996      4001      3991      3989      3998      4000
      3993      3991      3989      3996      3993      3991      3989      3998
      3994      3991      3989      3996      3994      3991      3989      3998
      3995      3991      3989      3996      3995      3991      3989      3998
      3996      3989      3998      4000      3998      3989      3996      4001
      4008      4006      4013      4018      4008      4006      4015      4017
      4010      4008      4006      4013      4010      4008      4006      4015
      4011      4008      4006      4013      4011      4008      4006      4015
      4012      4008      4006      4013      4012      4008      4006      4015
      4013      4006      4015      4017      4015      4006      4013      4018
      4025      4023      4030      4035      4025      4023      4032      4034
      4027      4025      4023      4030      4027      4025      4023      4032
      4028      4025      4023      4030      4028      4025      4023      4032
      4029      4025      4023      4030      4029      4025      4023      4032
      4030      4023      4032      4034      4032      4023      4030      4035
      4042      4040      4047      4052      4042      4040      4049      4051
      4044      4042      4040      4047      4044      4042      4040      4049
      4045      4042      4040      4047      4045      4042      4040      4049
      4046      4042      4040      4047      4046      4042      4040      4049
      4047      4040      4049      4051      4049      4040      4047      4052
      4059      4057      4064      4069      4059      4057      4066      4068
      4061      4059      4057      4064      4061      4059      4057      4066
      4062      4059      4057      4064      4062      4059      4057      4066
      4063      4059      4057      4064      4063      4059      4057      4066
      4064      4057      4066      4068      4066      4057      4064      4069
      4076      4074      4081      4086      4076      4074      4083      4085
      4078      4076      4074      4081      4078      4076      4074      4083
      4079      4076      4074      4081      4079      4076      4074      4083
      4080      4076      4074      4081      4080      4076      4074      4083
      4081      4074      4083      4085      4083      4074      4081      4086
      4093      4091      4098      4103      4093      4091      4100      4102
      4095      4093      4091      4098      4095      4093      4091      4100
      4096      4093      4091      4098      4096      4093      4091      4100
      4097      4093      4091      4098      4097      4093      4091      4100
      4098      4091      4100      4102      4100      4091      4098      4103
      4110      4108      4115      4120      4110      4108      4117      4119
      4112      4110      4108      4115      4112      4110      4108      4117
      4113      4110      4108      4115      4113      4110      4108      4117
      4114      4110      4108      4115      4114      4110      4108      4117
      4115      4108      4117      4119      4117      4108      4115      4120
      4127      4125      4132      4137      4127      4125      4134      4136
      4129      4127      4125      4132      4129      4127      4125      4134
      4130      4127      4125      4132      4130      4127      4125      4134
      4131      4127      4125      4132      4131      4127      4125      4134
      4132      4125      4134      4136      4134      4125      4132      4137
      4144      4142      4149      4154      4144      4142      4151      4153
      4146      4144      4142      4149      4146      4144      4142      4151
      4147      4144      4142      4149      4147      4144      4142      4151
      4148      4144      4142      4149      4148      4144      4142      4151
      4149      4142      4151      4153      4151      4142      4149      4154
      4161      4159      4166      4171      4161      4159      4168      4170
      4163      4161      4159      4166      4163      4161      4159      4168
      4164      4161      4159      4166      4164      4161      4159      4168
      4165      4161      4159      4166      4165      4161      4159      4168
      4166      4159      4168      4170      4168      4159      4166      4171
      4178      4176      4183      4188      4178      4176      4185      4187
      4180      4178      4176      4183      4180      4178      4176      4185
      4181      4178      4176      4183      4181      4178      4176      4185
      4182      4178      4176      4183      4182      4178      4176      4185
      4183      4176      4185      4187      4185      4176      4183      4188
      4195      4193      4200      4205      4195      4193      4202      4204
      4197      4195      4193      4200      4197      4195      4193      4202
      4198      4195      4193      4200      4198      4195      4193      4202
      4199      4195      4193      4200      4199      4195      4193      4202
      4200      4193      4202      4204      4202      4193      4200      4205
      4210      4212      4214      4216      4210      4212      4214      4224
      4210      4254      4252      4250      4210      4254      4252      4258
      4210      4254      4256      4216      4210      4254      4256      4246
      4212      4210      4254      4252      4212      4210      4254      4256
      4212      4214      4216      4218      4212      4214      4216      4256
      4212      4214      4224      4222      4212      4214      4224      4226
      4214      4212      4210      4254      4214      4212      4210      4268
      4214      4216      4218      4220      4214      4216      4218      4242
      4214      4216      4256      4246      4214      4216      4256      4254
      4214      4224      4222      4220      4214      4224      4222      4270
      4214      4224      4226      4228      4214      4224      4226      4230
      4214      4224      4226      4232      4216      4214      4212      4269
      4216      4214      4224      4222      4216      4214      4224      4226
      4216      4218      4220      4222      4216      4218      4220      4234
      4216      4218      4242      4244      4216      4218      4242      4271
      4216      4256      4246      4244      4216      4256      4246      4248
      4216      4256      4254      4252      4218      4216      4214      4224
      4218      4216      4256      4246      4218      4216      4256      4254
      4218      4220      4222      4224      4218      4220      4222      4270
      4218      4220      4234      4236      4218      4220      4234      4238
      4218      4220      4234      4240      4218      4242      4244      4246
      4218      4242      4244      4272      4220      4218      4216      4256
      4220      4218      4242      4244      4220      4218      4242      4271
      4220      4222      4224      4226      4222      4220      4218      4242
      4222      4220      4234      4236      4222      4220      4234      4238
      4222      4220      4234      4240      4222      4224      4226      4228
      4222      4224      4226      4230      4222      4224      4226      4232
      4224      4214      4212      4269      4224      4214      4216      4256
      4224      4222      4220      4234      4226      4224      4222      4270
      4234      4220      4218      4242      4234      4220      4222      4270
      4242      4218      4216      4256      4242      4244      4246      4248
      4242      4244      4246      4256      4244      4246      4248      4250
      4244      4246      4248      4260      4244      4246      4256      4254
      4246      4244      4242      4271      4246      4248      4250      4252
      4246      4248      4250      4273      4246      4248      4260      4262
      4246      4248      4260      4264      4246      4248      4260      4266
      4246      4256      4254      4252      4248      4246      4244      4272
      4248      4246      4256      4254      4248      4250      4252      4254
      4248      4250      4252      4258      4250      4248      4246      4256
      4250      4248      4260      4262      4250      4248      4260      4264
      4250      4248      4260      4266      4250      4252      4254      4256
      4250      4252      4258      4274      4252      4250      4248      4260
      4252      4254      4210      4268      4254      4210      4212      4269
      4254      4252      4250      4273      4254      4252      4258      4274
      4256      4246      4244      4272      4256      4246      4248      4260
      4256      4254      4210      4268      4256      4254      4252      4258
      4258      4252      4250      4273      4260      4248      4250      4273
      4268      4210      4212      4269      4271      4242      4244      4272
      4295      4297      4299      4301      4295      4297      4299      4309
      4295      4339      4337      4335      4295      4339      4337      4343
      4295      4339      4341      4301      4295      4339      4341      4331
      4297      4295      4339      4337      4297      4295      4339      4341
      4297      4299      4301      4303      4297      4299      4301      4341
      4297      4299      4309      4307      4297      4299      4309      4311
      4299      4297      4295      4339      4299      4297      4295      4353
      4299      4301      4303      4305      4299      4301      4303      4327
      4299      4301      4341      4331      4299      4301      4341      4339
      4299      4309      4307      4305      4299      4309      4307      4355
      4299      4309      4311      4313      4299      4309      4311      4315
      4299      4309      4311      4317      4301      4299      4297      4354
      4301      4299      4309      4307      4301      4299      4309      4311
      4301      4303      4305      4307      4301      4303      4305      4319
      4301      4303      4327      4329      4301      4303      4327      4356
      4301      4341      4331      4329      4301      4341      4331      4333
      4301      4341      4339      4337      4303      4301      4299      4309
      4303      4301      4341      4331      4303      4301      4341      4339
      4303      4305      4307      4309      4303      4305      4307      4355
      4303      4305      4319      4321      4303      4305      4319      4323
      4303      4305      4319      4325      4303      4327      4329      4331
      4303      4327      4329      4357      4305      4303      4301      4341
      4305      4303      4327      4329      4305      4303      4327      4356
      4305      4307      4309      4311      4307      4305      4303      4327
      4307      4305      4319      4321      4307      4305      4319      4323
      4307      4305      4319      4325      4307      4309      4311      4313
      4307      4309      4311      4315      4307      4309      4311      4317
      4309      4299      4297      4354      4309      4299      4301      4341
      4309      4307      4305      4319      4311      4309      4307      4355
      4319      4305      4303      4327      4319      4305      4307      4355
      4327      4303      4301      4341      4327      4329      4331      4333
      4327      4329      4331      4341      4329      4331      4333      4335
      4329      4331      4333      4345      4329      4331      4341      4339
      4331      4329      4327      4356      4331      4333      4335      4337
      4331      4333      4335      4358      4331      4333      4345      4347
      4331      4333      4345      4349      4331      4333      4345      4351
      4331      4341      4339      4337      4333      4331      4329      4357
      4333      4331      4341      4339      4333      4335      4337      4339
      4333      4335      4337      4343      4335      4333      4331      4341
      4335      4333      4345      4347      4335      4333      4345      4349
      4335      4333      4345      4351      4335      4337      4339      4341
      4335      4337      4343      4359      4337      4335      4333      4345
      4337      4339      4295      4353      4339      4295      4297      4354
      4339      4337      4335      4358      4339      4337      4343      4359
      4341      4331      4329      4357      4341      4331      4333      4345
      4341      4339      4295      4353      4341      4339      4337      4343
      4343      4337      4335      4358      4345      4333      4335      4358
      4353      4295      4297      4354      4356      4327      4329      4357
      4380      4382      4384      4386      4380      4382      4384      4394
      4380      4424      4422      4420      4380      4424      4422      4428
      4380      4424      4426      4386      4380      4424      4426      4416
      4382      4380      4424      4422      4382      4380      4424      4426
      4382      4384      4386      4388      4382      4384      4386      4426
      4382      4384      4394      4392      4382      4384      4394      4396
      4384      4382      4380      4424      4384      4382      4380      4438
      4384      4386      4388      4390      4384      4386      4388      4412
      4384      4386      4426      4416      4384      4386      4426      4424
      4384      4394      4392      4390      4384      4394      4392      4440
      4384      4394      4396      4398      4384      4394      4396      4400
      4384      4394      4396      4402      4386      4384      4382      4439
      4386      4384      4394      4392      4386      4384      4394      4396
      4386      4388      4390      4392      4386      4388      4390      4404
      4386      4388      4412      4414      4386      4388      4412      4441
      4386      4426      4416      4414      4386      4426      4416      4418
      4386      4426      4424      4422      4388      4386      4384      4394
      4388      4386      4426      4416      4388      4386      4426      4424
      4388      4390      4392      4394      4388      4390      4392      4440
      4388      4390      4404      4406      4388      4390      4404      4408
      4388      4390      4404      4410      4388      4412      4414      4416
      4388      4412      4414      4442      4390      4388      4386      4426
      4390      4388      4412      4414      4390      4388      4412      4441
      4390      4392      4394      4396      4392      4390      4388      4412
      4392      4390      4404      4406      4392      4390      4404      4408
      4392      4390      4404      4410      4392      4394      4396      4398
      4392      4394      4396      4400      4392      4394      4396      4402
      4394      4384      4382      4439      4394      4384      4386      4426
      4394      4392      4390      4404      4396      4394      4392      4440
      4404      4390      4388      4412      4404      4390      4392      4440
      4412      4388      4386      4426      4412      4414      4416      4418
      4412      4414      4416      4426      4414      4416      4418      4420
      4414      4416      4418      4430      4414      4416      4426      4424
      4416      4414      4412      4441      4416      4418      4420      4422
      4416      4418      4420      4443      4416      4418      4430      4432
      4416      4418      4430      4434      4416      4418      4430      4436
      4416      4426      4424      4422      4418      4416      4414      4442
      4418      4416      4426      4424      4418      4420      4422      4424
      4418      4420      4422      4428      4420      4418      4416      4426
      4420      4418      4430      4432      4420      4418      4430      4434
      4420      4418      4430      4436      4420      4422      4424      4426
      4420      4422      4428      4444      4422      4420      4418      4430
      4422      4424      4380      4438      4424      4380      4382      4439
      4424      4422      4420      4443      4424      4422      4428      4444
      4426      4416      4414      4442      4426      4416      4418      4430
      4426      4424      4380      4438      4426      4424      4422      4428
      4428      4422      4420      4443      4430      4418      4420      4443
      4438      4380      4382      4439      4441      4412      4414      4442
      4465      4467      4469      4471      4465      4467      4469      4479
      4465      4509      4507      4505      4465      4509      4507      4513
      4465      4509      4511      4471      4465      4509      4511      4501
      4467      4465      4509      4507      4467      4465      4509      4511
      4467      4469      4471      4473      4467      4469      4471      4511
      4467      4469      4479      4477      4467      4469      4479      4481
      4469      4467      4465      4509      4469      4467      4465      4523
      4469      4471      4473      4475      4469      4471      4473      4497
      4469      4471      4511      4501      4469      4471      4511      4509
      4469      4479      4477      4475      4469      4479      4477      4525
      4469      4479      4481      4483      4469      4479      4481      4485
      4469      4479      4481      4487      4471      4469      4467      4524
      4471      4469      4479      4477      4471      4469      4479      4481
      4471      4473      4475      4477      4471      4473      4475      4489
      4471      4473      4497      4499      4471      4473      4497      4526
      4471      4511      4501      4499      4471      4511      4501      4503
      4471      4511      4509      4507      4473      4471      4469      4479
      4473      4471      4511      4501      4473      4471      4511      4509
      4473      4475      4477      4479      4473      4475      4477      4525
      4473      4475      4489      4491      4473      4475      4489      4493
      4473      4475      4489      4495      4473      4497      4499      4501
      4473      4497      4499      4527      4475      4473      4471      4511
      4475      4473      4497      4499      4475      4473      4497      4526
      4475      4477      4479      4481      4477      4475      4473      4497
      4477      4475      4489      4491      4477      4475      4489      4493
      4477      4475      4489      4495      4477      4479      4481      4483
      4477      4479      4481      4485      4477      4479      4481      4487
      4479      4469      4467      4524      4479      4469      4471      4511
      4479      4477      4475      4489      4481      4479      4477      4525
      4489      4475      4473      4497      4489      4475      4477      4525
      4497      4473      4471      4511      4497      4499      4501      4503
      4497      4499      4501      4511      4499      4501      4503      4505
      4499      4501      4503      4515      4499      4501      4511      4509
      4501      4499      4497      4526      4501      4503      4505      4507
      4501      4503      4505      4528      4501      4503      4515      4517
      4501      4503      4515      4519      4501      4503      4515      4521
      4501      4511      4509      4507      4503      4501      4499      4527
      4503      4501      4511      4509      4503      4505      4507      4509
      4503      4505      4507      4513      4505      4503      4501      4511
      4505      4503      4515      4517      4505      4503      4515      4519
      4505      4503      4515      4521      4505      4507      4509      4511
      4505      4507      4513      4529      4507      4505      4503      4515
      4507      4509      4465      4523      4509      4465      4467      4524
      4509      4507      4505      4528      4509      4507      4513      4529
      4511      4501      4499      4527      4511      4501      4503      4515
      4511      4509      4465      4523      4511      4509      4507      4513
      4513      4507      4505      4528      4515      4503      4505      4528
      4523      4465      4467      4524      4526      4497      4499      4527
      4550      4552      4554      4556      4550      4552      4554      4564
      4550      4594      4592      4590      4550      4594      4592      4598
      4550      4594      4596      4556      4550      4594      4596      4586
      4552      4550      4594      4592      4552      4550      4594      4596
      4552      4554      4556      4558      4552      4554      4556      4596
      4552      4554      4564      4562      4552      4554      4564      4566
      4554      4552      4550      4594      4554      4552      4550      4608
      4554      4556      4558      4560      4554      4556      4558      4582
      4554      4556      4596      4586      4554      4556      4596      4594
      4554      4564      4562      4560      4554      4564      4562      4610
      4554      4564      4566      4568      4554      4564      4566      4570
      4554      4564      4566      4572      4556      4554      4552      4609
      4556      4554      4564      4562      4556      4554      4564      4566
      4556      4558      4560      4562      4556      4558      4560      4574
      4556      4558      4582      4584      4556      4558      4582      4611
      4556      4596      4586      4584      4556      4596      4586      4588
      4556      4596      4594      4592      4558      4556      4554      4564
      4558      4556      4596      4586      4558      4556      4596      4594
      4558      4560      4562      4564      4558      4560      4562      4610
      4558      4560      4574      4576      4558      4560      4574      4578
      4558      4560      4574      4580      4558      4582      4584      4586
      4558      4582      4584      4612      4560      4558      4556      4596
      4560      4558      4582      4584      4560      4558      4582      4611
      4560      4562      4564      4566      4562      4560      4558      4582
      4562      4560      4574      4576      4562      4560      4574      4578
      4562      4560      4574      4580      4562      4564      4566      4568
      4562      4564      4566      4570      4562      4564      4566      4572
      4564      4554      4552      4609      4564      4554      4556      4596
      4564      4562      4560      4574      4566      4564      4562      4610
      4574      4560      4558      4582      4574      4560      4562      4610
      4582      4558      4556      4596      4582      4584      4586      4588
      4582      4584      4586      4596      4584      4586      4588      4590
      4584      4586      4588      4600      4584      4586      4596      4594
      4586      4584      4582      4611      4586      4588      4590      4592
      4586      4588      4590      4613      4586      4588      4600      4602
      4586      4588      4600      4604      4586      4588      4600      4606
      4586      4596      4594      4592      4588      4586      4584      4612
      4588      4586      4596      4594      4588      4590      4592      4594
      4588      4590      4592      4598      4590      4588      4586      4596
      4590      4588      4600      4602      4590      4588      4600      4604
      4590      4588      4600      4606      4590      4592      4594      4596
      4590      4592      4598      4614      4592      4590      4588      4600
      4592      4594      4550      4608      4594      4550      4552      4609
      4594      4592      4590      4613      4594      4592      4598      4614
      4596      4586      4584      4612      4596      4586      4588      4600
      4596      4594      4550      4608      4596      4594      4592      4598
      4598      4592      4590      4613      4600      4588      4590      4613
      4608      4550      4552      4609      4611      4582      4584      4612
      4635      4637      4639      4641      4635      4637      4639      4649
      4635      4679      4677      4675      4635      4679      4677      4683
      4635      4679      4681      4641      4635      4679      4681      4671
      4637      4635      4679      4677      4637      4635      4679      4681
      4637      4639      4641      4643      4637      4639      4641      4681
      4637      4639      4649      4647      4637      4639      4649      4651
      4639      4637      4635      4679      4639      4637      4635      4693
      4639      4641      4643      4645      4639      4641      4643      4667
      4639      4641      4681      4671      4639      4641      4681      4679
      4639      4649      4647      4645      4639      4649      4647      4695
      4639      4649      4651      4653      4639      4649      4651      4655
      4639      4649      4651      4657      4641      4639      4637      4694
      4641      4639      4649      4647      4641      4639      4649      4651
      4641      4643      4645      4647      4641      4643      4645      4659
      4641      4643      4667      4669      4641      4643      4667      4696
      4641      4681      4671      4669      4641      4681      4671      4673
      4641      4681      4679      4677      4643      4641      4639      4649
      4643      4641      4681      4671      4643      4641      4681      4679
      4643      4645      4647      4649      4643      4645      4647      4695
      4643      4645      4659      4661      4643      4645      4659      4663
      4643      4645      4659      4665      4643      4667      4669      4671
      4643      4667      4669      4697      4645      4643      4641      4681
      4645      4643      4667      4669      4645      4643      4667      4696
      4645      4647      4649      4651      4647      4645      4643      4667
      4647      4645      4659      4661      4647      4645      4659      4663
      4647      4645      4659      4665      4647      4649      4651      4653
      4647      4649      4651      4655      4647      4649      4651      4657
      4649      4639      4637      4694      4649      4639      4641      4681
      4649      4647      4645      4659      4651      4649      4647      4695
      4659      4645      4643      4667      4659      4645      4647      4695
      4667      4643      4641      4681      4667      4669      4671      4673
      4667      4669      4671      4681      4669      4671      4673      4675
      4669      4671      4673      4685      4669      4671      4681      4679
      4671      4669      4667      4696      4671      4673      4675      4677
      4671      4673      4675      4698      4671      4673      4685      4687
      4671      4673      4685      4689      4671      4673      4685      4691
      4671      4681      4679      4677      4673      4671      4669      4697
      4673      4671      4681      4679      4673      4675      4677      4679
      4673      4675      4677      4683      4675      4673      4671      4681
      4675      4673      4685      4687      4675      4673      4685      4689
      4675      4673      4685      4691      4675      4677      4679      4681
      4675      4677      4683      4699      4677      4675      4673      4685
      4677      4679      4635      4693      4679      4635      4637      4694
      4679      4677      4675      4698      4679      4677      4683      4699
      4681      4671      4669      4697      4681      4671      4673      4685
      4681      4679      4635      4693      4681      4679      4677      4683
      4683      4677      4675      4698      4685      4673      4675      4698
      4693      4635      4637      4694      4696      4667      4669      4697
      4724      4722      4720      4726      4724      4722      4720      4727
      4724      4722      4720      4728      4725      4722      4720      4726
      4725      4722      4720      4727      4725      4722      4720      4728
      4735      4733      4731      4737      4735      4733      4731      4738
      4735      4733      4731      4739      4736      4733      4731      4737
      4736      4733      4731      4738      4736      4733      4731      4739
      4746      4744      4742      4748      4746      4744      4742      4749
      4746      4744      4742      4750      4747      4744      4742      4748
      4747      4744      4742      4749      4747      4744      4742      4750
      4757      4755      4753      4759      4757      4755      4753      4760
      4757      4755      4753      4761      4758      4755      4753      4759
      4758      4755      4753      4760      4758      4755      4753      4761
      4768      4766      4764      4770      4768      4766      4764      4771
      4768      4766      4764      4772      4769      4766      4764      4770
      4769      4766      4764      4771      4769      4766      4764      4772
      4779      4777      4775      4781      4779      4777      4775      4782
      4779      4777      4775      4783      4780      4777      4775      4781
      4780      4777      4775      4782      4780      4777      4775      4783
      4790      4788      4786      4792      4790      4788      4786      4793
      4790      4788      4786      4794      4791      4788      4786      4792
      4791      4788      4786      4793      4791      4788      4786      4794
      4801      4799      4797      4803      4801      4799      4797      4804
      4801      4799      4797      4805      4802      4799      4797      4803
      4802      4799      4797      4804      4802      4799      4797      4805
      4812      4810      4808      4814      4812      4810      4808      4815
      4812      4810      4808      4816      4813      4810      4808      4814
      4813      4810      4808      4815      4813      4810      4808      4816
      4823      4821      4819      4825      4823      4821      4819      4826
      4823      4821      4819      4827      4824      4821      4819      4825
      4824      4821      4819      4826      4824      4821      4819      4827
      4834      4832      4830      4836      4834      4832      4830      4837
      4834      4832      4830      4838      4835      4832      4830      4836
      4835      4832      4830      4837      4835      4832      4830      4838
      4845      4843      4841      4847      4845      4843      4841      4848
      4845      4843      4841      4849      4846      4843      4841      4847
      4846      4843      4841      4848      4846      4843      4841      4849
      4856      4854      4852      4858      4856      4854      4852      4859
      4856      4854      4852      4860      4857      4854      4852      4858
      4857      4854      4852      4859      4857      4854      4852      4860
      4867      4865      4863      4869      4867      4865      4863      4870
      4867      4865      4863      4871      4868      4865      4863      4869
      4868      4865      4863      4870      4868      4865      4863      4871
      4878      4876      4874      4880      4878      4876      4874      4881
      4878      4876      4874      4882      4879      4876      4874      4880
      4879      4876      4874      4881      4879      4876      4874      4882
      4889      4887      4885      4891      4889      4887      4885      4892
      4889      4887      4885      4893      4890      4887      4885      4891
      4890      4887      4885      4892      4890      4887      4885      4893
      4900      4898      4896      4902      4900      4898      4896      4903
      4900      4898      4896      4904      4901      4898      4896      4902
      4901      4898      4896      4903      4901      4898      4896      4904
      4911      4909      4907      4913      4911      4909      4907      4914
      4911      4909      4907      4915      4912      4909      4907      4913
      4912      4909      4907      4914      4912      4909      4907      4915
      4922      4920      4918      4924      4922      4920      4918      4925
      4922      4920      4918      4926      4923      4920      4918      4924
      4923      4920      4918      4925      4923      4920      4918      4926
      4933      4931      4929      4935      4933      4931      4929      4936
      4933      4931      4929      4937      4934      4931      4929      4935
      4934      4931      4929      4936      4934      4931      4929      4937
      4944      4942      4940      4946      4944      4942      4940      4947
      4944      4942      4940      4948      4945      4942      4940      4946
      4945      4942      4940      4947      4945      4942      4940      4948
      4955      4953      4951      4957      4955      4953      4951      4958
      4955      4953      4951      4959      4956      4953      4951      4957
      4956      4953      4951      4958      4956      4953      4951      4959
      4966      4964      4962      4968      4966      4964      4962      4969
      4966      4964      4962      4970      4967      4964      4962      4968
      4967      4964      4962      4969      4967      4964      4962      4970
      4977      4975      4973      4979      4977      4975      4973      4980
      4977      4975      4973      4981      4978      4975      4973      4979
      4978      4975      4973      4980      4978      4975      4973      4981
      4988      4986      4984      4990      4988      4986      4984      4991
      4988      4986      4984      4992      4989      4986      4984      4990
      4989      4986      4984      4991      4989      4986      4984      4992
      4999      4997      4995      5001      4999      4997      4995      5002
      4999      4997      4995      5003      5000      4997      4995      5001
      5000      4997      4995      5002      5000      4997      4995      5003
      5010      5008      5006      5012      5010      5008      5006      5013
      5010      5008      5006      5014      5011      5008      5006      5012
      5011      5008      5006      5013      5011      5008      5006      5014
      5021      5019      5017      5023      5021      5019      5017      5024
      5021      5019      5017      5025      5022      5019      5017      5023
      5022      5019      5017      5024      5022      5019      5017      5025
      5032      5030      5028      5034      5032      5030      5028      5035
      5032      5030      5028      5036      5033      5030      5028      5034
      5033      5030      5028      5035      5033      5030      5028      5036
      5043      5041      5039      5045      5043      5041      5039      5046
      5043      5041      5039      5047      5044      5041      5039      5045
      5044      5041      5039      5046      5044      5041      5039      5047
      5054      5052      5050      5056      5054      5052      5050      5057
      5054      5052      5050      5058      5055      5052      5050      5056
      5055      5052      5050      5057      5055      5052      5050      5058
      5065      5063      5061      5067      5065      5063      5061      5068
      5065      5063      5061      5069      5066      5063      5061      5067
      5066      5063      5061      5068      5066      5063      5061      5069
      5076      5074      5072      5078      5076      5074      5072      5079
      5076      5074      5072      5080      5077      5074      5072      5078
      5077      5074      5072      5079      5077      5074      5072      5080
      5087      5085      5083      5089      5087      5085      5083      5090
      5087      5085      5083      5091      5088      5085      5083      5089
      5088      5085      5083      5090      5088      5085      5083      5091
      5098      5096      5094      5100      5098      5096      5094      5101
      5098      5096      5094      5102      5099      5096      5094      5100
      5099      5096      5094      5101      5099      5096      5094      5102
      5109      5107      5105      5111      5109      5107      5105      5112
      5109      5107      5105      5113      5110      5107      5105      5111
      5110      5107      5105      5112      5110      5107      5105      5113
      5120      5118      5116      5122      5120      5118      5116      5123
      5120      5118      5116      5124      5121      5118      5116      5122
      5121      5118      5116      5123      5121      5118      5116      5124
      5131      5129      5127      5133      5131      5129      5127      5134
      5131      5129      5127      5135      5132      5129      5127      5133
      5132      5129      5127      5134      5132      5129      5127      5135
      5142      5140      5138      5144      5142      5140      5138      5145
      5142      5140      5138      5146      5143      5140      5138      5144
      5143      5140      5138      5145      5143      5140      5138      5146
      5153      5151      5149      5155      5153      5151      5149      5156
      5153      5151      5149      5157      5154      5151      5149      5155
      5154      5151      5149      5156      5154      5151      5149      5157
      5164      5162      5160      5166      5164      5162      5160      5167
      5164      5162      5160      5168      5165      5162      5160      5166
      5165      5162      5160      5167      5165      5162      5160      5168
      5175      5173      5171      5177      5175      5173      5171      5178
      5175      5173      5171      5179      5176      5173      5171      5177
      5176      5173      5171      5178      5176      5173      5171      5179
      5186      5184      5182      5188      5186      5184      5182      5189
      5186      5184      5182      5190      5187      5184      5182      5188
      5187      5184      5182      5189      5187      5184      5182      5190
      5197      5195      5193      5199      5197      5195      5193      5200
      5197      5195      5193      5201      5198      5195      5193      5199
      5198      5195      5193      5200      5198      5195      5193      5201
      5208      5206      5204      5210      5208      5206      5204      5211
      5208      5206      5204      5212      5209      5206      5204      5210
      5209      5206      5204      5211      5209      5206      5204      5212
      5219      5217      5215      5221      5219      5217      5215      5222
      5219      5217      5215      5223      5220      5217      5215      5221
      5220      5217      5215      5222      5220      5217      5215      5223
      5230      5228      5226      5232      5230      5228      5226      5233
      5230      5228      5226      5234      5231      5228      5226      5232
      5231      5228      5226      5233      5231      5228      5226      5234
      5241      5239      5237      5243      5241      5239      5237      5244
      5241      5239      5237      5245      5242      5239      5237      5243
      5242      5239      5237      5244      5242      5239      5237      5245
      5252      5250      5248      5254      5252      5250      5248      5255
      5252      5250      5248      5256      5253      5250      5248      5254
      5253      5250      5248      5255      5253      5250      5248      5256
      5263      5261      5259      5265      5263      5261      5259      5266
      5263      5261      5259      5267      5264      5261      5259      5265
      5264      5261      5259      5266      5264      5261      5259      5267
      5274      5272      5270      5276      5274      5272      5270      5277
      5274      5272      5270      5278      5275      5272      5270      5276
      5275      5272      5270      5277      5275      5272      5270      5278
      5285      5283      5281      5287      5285      5283      5281      5288
      5285      5283      5281      5289      5286      5283      5281      5287
      5286      5283      5281      5288      5286      5283      5281      5289
      5296      5294      5292      5298      5296      5294      5292      5299
      5296      5294      5292      5300      5297      5294      5292      5298
      5297      5294      5292      5299      5297      5294      5292      5300
      5307      5305      5303      5309      5307      5305      5303      5310
      5307      5305      5303      5311      5308      5305      5303      5309
      5308      5305      5303      5310      5308      5305      5303      5311
      5318      5316      5314      5320      5318      5316      5314      5321
      5318      5316      5314      5322      5319      5316      5314      5320
      5319      5316      5314      5321      5319      5316      5314      5322
      5329      5327      5325      5331      5329      5327      5325      5332
      5329      5327      5325      5333      5330      5327      5325      5331
      5330      5327      5325      5332      5330      5327      5325      5333
      5340      5338      5336      5342      5340      5338      5336      5343
      5340      5338      5336      5344      5341      5338      5336      5342
      5341      5338      5336      5343      5341      5338      5336      5344
      5351      5349      5347      5353      5351      5349      5347      5354
      5351      5349      5347      5355      5352      5349      5347      5353
      5352      5349      5347      5354      5352      5349      5347      5355
      5362      5360      5358      5364      5362      5360      5358      5365
      5362      5360      5358      5366      5363      5360      5358      5364
      5363      5360      5358      5365      5363      5360      5358      5366
      5373      5371      5369      5375      5373      5371      5369      5376
      5373      5371      5369      5377      5374      5371      5369      5375
      5374      5371      5369      5376      5374      5371      5369      5377
      5384      5382      5380      5386      5384      5382      5380      5387
      5384      5382      5380      5388      5385      5382      5380      5386
      5385      5382      5380      5387      5385      5382      5380      5388
      5395      5393      5391      5397      5395      5393      5391      5398
      5395      5393      5391      5399      5396      5393      5391      5397
      5396      5393      5391      5398      5396      5393      5391      5399
      5406      5404      5402      5408      5406      5404      5402      5409
      5406      5404      5402      5410      5407      5404      5402      5408
      5407      5404      5402      5409      5407      5404      5402      5410
      5417      5415      5413      5419      5417      5415      5413      5420
      5417      5415      5413      5421      5418      5415      5413      5419
      5418      5415      5413      5420      5418      5415      5413      5421
      5428      5426      5424      5430      5428      5426      5424      5431
      5428      5426      5424      5432      5429      5426      5424      5430
      5429      5426      5424      5431      5429      5426      5424      5432
      5439      5437      5435      5441      5439      5437      5435      5442
      5439      5437      5435      5443      5440      5437      5435      5441
      5440      5437      5435      5442      5440      5437      5435      5443
      5450      5448      5446      5452      5450      5448      5446      5453
      5450      5448      5446      5454      5451      5448      5446      5452
      5451      5448      5446      5453      5451      5448      5446      5454
      5461      5459      5457      5463      5461      5459      5457      5464
      5461      5459      5457      5465      5462      5459      5457      5463
      5462      5459      5457      5464      5462      5459      5457      5465
      5472      5470      5468      5474      5472      5470      5468      5475
      5472      5470      5468      5476      5473      5470      5468      5474
      5473      5470      5468      5475      5473      5470      5468      5476
      5483      5481      5479      5485      5483      5481      5479      5486
      5483      5481      5479      5487      5484      5481      5479      5485
      5484      5481      5479      5486      5484      5481      5479      5487
      5494      5492      5490      5496      5494      5492      5490      5497
      5494      5492      5490      5498      5495      5492      5490      5496
      5495      5492      5490      5497      5495      5492      5490      5498
      5505      5503      5501      5507      5505      5503      5501      5508
      5505      5503      5501      5509      5506      5503      5501      5507
      5506      5503      5501      5508      5506      5503      5501      5509
      5516      5514      5512      5518      5516      5514      5512      5519
      5516      5514      5512      5520      5517      5514      5512      5518
      5517      5514      5512      5519      5517      5514      5512      5520
      5527      5525      5523      5529      5527      5525      5523      5530
      5527      5525      5523      5531      5528      5525      5523      5529
      5528      5525      5523      5530      5528      5525      5523      5531
      5538      5536      5534      5540      5538      5536      5534      5541
      5538      5536      5534      5542      5539      5536      5534      5540
      5539      5536      5534      5541      5539      5536      5534      5542
      5549      5547      5545      5551      5549      5547      5545      5552
      5549      5547      5545      5553      5550      5547      5545      5551
      5550      5547      5545      5552      5550      5547      5545      5553
      5560      5558      5556      5562      5560      5558      5556      5563
      5560      5558      5556      5564      5561      5558      5556      5562
      5561      5558      5556      5563      5561      5558      5556      5564
      5571      5569      5567      5573      5571      5569      5567      5574
      5571      5569      5567      5575      5572      5569      5567      5573
      5572      5569      5567      5574      5572      5569      5567      5575
      5582      5580      5578      5584      5582      5580      5578      5585
      5582      5580      5578      5586      5583      5580      5578      5584
      5583      5580      5578      5585      5583      5580      5578      5586
      5593      5591      5589      5595      5593      5591      5589      5596
      5593      5591      5589      5597      5594      5591      5589      5595
      5594      5591      5589      5596      5594      5591      5589      5597
      5604      5602      5600      5606      5604      5602      5600      5607
      5604      5602      5600      5608      5605      5602      5600      5606
      5605      5602      5600      5607      5605      5602      5600      5608
      5615      5613      5611      5617      5615      5613      5611      5618
      5615      5613      5611      5619      5616      5613      5611      5617
      5616      5613      5611      5618      5616      5613      5611      5619
      5626      5624      5622      5628      5626      5624      5622      5629
      5626      5624      5622      5630      5627      5624      5622      5628
      5627      5624      5622      5629      5627      5624      5622      5630
      5637      5635      5633      5639      5637      5635      5633      5640
      5637      5635      5633      5641      5638      5635      5633      5639
      5638      5635      5633      5640      5638      5635      5633      5641
      5648      5646      5644      5650      5648      5646      5644      5651
      5648      5646      5644      5652      5649      5646      5644      5650
      5649      5646      5644      5651      5649      5646      5644      5652
      5659      5657      5655      5661      5659      5657      5655      5662
      5659      5657      5655      5663      5660      5657      5655      5661
      5660      5657      5655      5662      5660      5657      5655      5663
      5670      5668      5666      5672      5670      5668      5666      5673
      5670      5668      5666      5674      5671      5668      5666      5672
      5671      5668      5666      5673      5671      5668      5666      5674
      5681      5679      5677      5683      5681      5679      5677      5684
      5681      5679      5677      5685      5682      5679      5677      5683
      5682      5679      5677      5684      5682      5679      5677      5685
      5692      5690      5688      5694      5692      5690      5688      5695
      5692      5690      5688      5696      5693      5690      5688      5694
      5693      5690      5688      5695      5693      5690      5688      5696
      5703      5701      5699      5705      5703      5701      5699      5706
      5703      5701      5699      5707      5704      5701      5699      5705
      5704      5701      5699      5706      5704      5701      5699      5707
      5714      5712      5710      5716      5714      5712      5710      5717
      5714      5712      5710      5718      5715      5712      5710      5716
      5715      5712      5710      5717      5715      5712      5710      5718
      5725      5723      5721      5727      5725      5723      5721      5728
      5725      5723      5721      5729      5726      5723      5721      5727
      5726      5723      5721      5728      5726      5723      5721      5729
      5736      5734      5732      5738      5736      5734      5732      5739
      5736      5734      5732      5740      5737      5734      5732      5738
      5737      5734      5732      5739      5737      5734      5732      5740
      5747      5745      5743      5749      5747      5745      5743      5750
      5747      5745      5743      5751      5748      5745      5743      5749
      5748      5745      5743      5750      5748      5745      5743      5751
      5758      5756      5754      5760      5758      5756      5754      5761
      5758      5756      5754      5762      5759      5756      5754      5760
      5759      5756      5754      5761      5759      5756      5754      5762
      5769      5767      5765      5771      5769      5767      5765      5772
      5769      5767      5765      5773      5770      5767      5765      5771
      5770      5767      5765      5772      5770      5767      5765      5773
      5780      5778      5776      5782      5780      5778      5776      5783
      5780      5778      5776      5784      5781      5778      5776      5782
      5781      5778      5776      5783      5781      5778      5776      5784
      5791      5789      5787      5793      5791      5789      5787      5794
      5791      5789      5787      5795      5792      5789      5787      5793
      5792      5789      5787      5794      5792      5789      5787      5795
      5802      5800      5798      5804      5802      5800      5798      5805
      5802      5800      5798      5806      5803      5800      5798      5804
      5803      5800      5798      5805      5803      5800      5798      5806
      5813      5811      5809      5815      5813      5811      5809      5816
      5813      5811      5809      5817      5814      5811      5809      5815
      5814      5811      5809      5816      5814      5811      5809      5817
      5824      5822      5820      5826      5824      5822      5820      5827
      5824      5822      5820      5828      5825      5822      5820      5826
      5825      5822      5820      5827      5825      5822      5820      5828
      5835      5833      5831      5837      5835      5833      5831      5838
      5835      5833      5831      5839      5836      5833      5831      5837
      5836      5833      5831      5838      5836      5833      5831      5839
      5846      5844      5842      5848      5846      5844      5842      5849
      5846      5844      5842      5850      5847      5844      5842      5848
      5847      5844      5842      5849      5847      5844      5842      5850
      5857      5855      5853      5859      5857      5855      5853      5860
      5857      5855      5853      5861      5858      5855      5853      5859
      5858      5855      5853      5860      5858      5855      5853      5861
      5868      5866      5864      5870      5868      5866      5864      5871
      5868      5866      5864      5872      5869      5866      5864      5870
      5869      5866      5864      5871      5869      5866      5864      5872
      5879      5877      5875      5881      5879      5877      5875      5882
      5879      5877      5875      5883      5880      5877      5875      5881
      5880      5877      5875      5882      5880      5877      5875      5883
      5890      5888      5886      5892      5890      5888      5886      5893
      5890      5888      5886      5894      5891      5888      5886      5892
      5891      5888      5886      5893      5891      5888      5886      5894
      5901      5899      5897      5903      5901      5899      5897      5904
      5901      5899      5897      5905      5902      5899      5897      5903
      5902      5899      5897      5904      5902      5899      5897      5905
      5912      5910      5908      5914      5912      5910      5908      5915
      5912      5910      5908      5916      5913      5910      5908      5914
      5913      5910      5908      5915      5913      5910      5908      5916
      5923      5921      5919      5925      5923      5921      5919      5926
      5923      5921      5919      5927      5924      5921      5919      5925
      5924      5921      5919      5926      5924      5921      5919      5927
      5934      5932      5930      5936      5934      5932      5930      5937
      5934      5932      5930      5938      5935      5932      5930      5936
      5935      5932      5930      5937      5935      5932      5930      5938
      5945      5943      5941      5947      5945      5943      5941      5948
      5945      5943      5941      5949      5946      5943      5941      5947
      5946      5943      5941      5948      5946      5943      5941      5949
      5956      5954      5952      5958      5956      5954      5952      5959
      5956      5954      5952      5960      5957      5954      5952      5958
      5957      5954      5952      5959      5957      5954      5952      5960
      5967      5965      5963      5969      5967      5965      5963      5970
      5967      5965      5963      5971      5968      5965      5963      5969
      5968      5965      5963      5970      5968      5965      5963      5971
      5978      5976      5974      5980      5978      5976      5974      5981
      5978      5976      5974      5982      5979      5976      5974      5980
      5979      5976      5974      5981      5979      5976      5974      5982
      5989      5987      5985      5991      5989      5987      5985      5992
      5989      5987      5985      5993      5990      5987      5985      5991
      5990      5987      5985      5992      5990      5987      5985      5993
      6000      5998      5996      6002      6000      5998      5996      6003
      6000      5998      5996      6004      6001      5998      5996      6002
      6001      5998      5996      6003      6001      5998      5996      6004
      6011      6009      6007      6013      6011      6009      6007      6014
      6011      6009      6007      6015      6012      6009      6007      6013
      6012      6009      6007      6014      6012      6009      6007      6015
      6022      6020      6018      6024      6022      6020      6018      6025
      6022      6020      6018      6026      6023      6020      6018      6024
      6023      6020      6018      6025      6023      6020      6018      6026
      6033      6031      6029      6035      6033      6031      6029      6036
      6033      6031      6029      6037      6034      6031      6029      6035
      6034      6031      6029      6036      6034      6031      6029      6037
      6044      6042      6040      6046      6044      6042      6040      6047
      6044      6042      6040      6048      6045      6042      6040      6046
      6045      6042      6040      6047      6045      6042      6040      6048
      6055      6053      6051      6057      6055      6053      6051      6058
      6055      6053      6051      6059      6056      6053      6051      6057
      6056      6053      6051      6058      6056      6053      6051      6059
      6066      6064      6062      6068      6066      6064      6062      6069
      6066      6064      6062      6070      6067      6064      6062      6068
      6067      6064      6062      6069      6067      6064      6062      6070
      6077      6075      6073      6079      6077      6075      6073      6080
      6077      6075      6073      6081      6078      6075      6073      6079
      6078      6075      6073      6080      6078      6075      6073      6081
      6088      6086      6084      6090      6088      6086      6084      6091
      6088      6086      6084      6092      6089      6086      6084      6090
      6089      6086      6084      6091      6089      6086      6084      6092
      6099      6097      6095      6101      6099      6097      6095      6102
      6099      6097      6095      6103      6100      6097      6095      6101
      6100      6097      6095      6102      6100      6097      6095      6103
      6110      6108      6106      6112      6110      6108      6106      6113
      6110      6108      6106      6114      6111      6108      6106      6112
      6111      6108      6106      6113      6111      6108      6106      6114
      6121      6119      6117      6123      6121      6119      6117      6124
      6121      6119      6117      6125      6122      6119      6117      6123
      6122      6119      6117      6124      6122      6119      6117      6125
      6132      6130      6128      6134      6132      6130      6128      6135
      6132      6130      6128      6136      6133      6130      6128      6134
      6133      6130      6128      6135      6133      6130      6128      6136
      6143      6141      6139      6145      6143      6141      6139      6146
      6143      6141      6139      6147      6144      6141      6139      6145
      6144      6141      6139      6146      6144      6141      6139      6147
      6154      6152      6150      6156      6154      6152      6150      6157
      6154      6152      6150      6158      6155      6152      6150      6156
      6155      6152      6150      6157      6155      6152      6150      6158
      6165      6163      6161      6167      6165      6163      6161      6168
      6165      6163      6161      6169      6166      6163      6161      6167
      6166      6163      6161      6168      6166      6163      6161      6169
      6176      6174      6172      6178      6176      6174      6172      6179
      6176      6174      6172      6180      6177      6174      6172      6178
      6177      6174      6172      6179      6177      6174      6172      6180
      6187      6185      6183      6189      6187      6185      6183      6190
      6187      6185      6183      6191      6188      6185      6183      6189
      6188      6185      6183      6190      6188      6185      6183      6191
      6198      6196      6194      6200      6198      6196      6194      6201
      6198      6196      6194      6202      6199      6196      6194      6200
      6199      6196      6194      6201      6199      6196      6194      6202
      6209      6207      6205      6211      6209      6207      6205      6212
      6209      6207      6205      6213      6210      6207      6205      6211
      6210      6207      6205      6212      6210      6207      6205      6213
      6220      6218      6216      6222      6220      6218      6216      6223
      6220      6218      6216      6224      6221      6218      6216      6222
      6221      6218      6216      6223      6221      6218      6216      6224
      6231      6229      6227      6233      6231      6229      6227      6234
      6231      6229      6227      6235      6232      6229      6227      6233
      6232      6229      6227      6234      6232      6229      6227      6235
      6242      6240      6238      6244      6242      6240      6238      6245
      6242      6240      6238      6246      6243      6240      6238      6244
      6243      6240      6238      6245      6243      6240      6238      6246
      6253      6251      6249      6255      6253      6251      6249      6256
      6253      6251      6249      6257      6254      6251      6249      6255
      6254      6251      6249      6256      6254      6251      6249      6257
      6264      6262      6260      6266      6264      6262      6260      6267
      6264      6262      6260      6268      6265      6262      6260      6266
      6265      6262      6260      6267      6265      6262      6260      6268
      6275      6273      6271      6277      6275      6273      6271      6278
      6275      6273      6271      6279      6276      6273      6271      6277
      6276      6273      6271      6278      6276      6273      6271      6279
      6286      6284      6282      6288      6286      6284      6282      6289
      6286      6284      6282      6290      6287      6284      6282      6288
      6287      6284      6282      6289      6287      6284      6282      6290
      6297      6295      6293      6299      6297      6295      6293      6300
      6297      6295      6293      6301      6298      6295      6293      6299
      6298      6295      6293      6300      6298      6295      6293      6301
      6308      6306      6304      6310      6308      6306      6304      6311
      6308      6306      6304      6312      6309      6306      6304      6310
      6309      6306      6304      6311      6309      6306      6304      6312
      6319      6317      6315      6321      6319      6317      6315      6322
      6319      6317      6315      6323      6320      6317      6315      6321
      6320      6317      6315      6322      6320      6317      6315      6323
      6330      6328      6326      6332      6330      6328      6326      6333
      6330      6328      6326      6334      6331      6328      6326      6332
      6331      6328      6326      6333      6331      6328      6326      6334
      6341      6339      6337      6343      6341      6339      6337      6344
      6341      6339      6337      6345      6342      6339      6337      6343
      6342      6339      6337      6344      6342      6339      6337      6345
      6352      6350      6348      6354      6352      6350      6348      6355
      6352      6350      6348      6356      6353      6350      6348      6354
      6353      6350      6348      6355      6353      6350      6348      6356
      6363      6361      6359      6365      6363      6361      6359      6366
      6363      6361      6359      6367      6364      6361      6359      6365
      6364      6361      6359      6366      6364      6361      6359      6367
      6374      6372      6370      6376      6374      6372      6370      6377
      6374      6372      6370      6378      6375      6372      6370      6376
      6375      6372      6370      6377      6375      6372      6370      6378
      6385      6383      6381      6387      6385      6383      6381      6388
      6385      6383      6381      6389      6386      6383      6381      6387
      6386      6383      6381      6388      6386      6383      6381      6389
      6396      6394      6392      6398      6396      6394      6392      6399
      6396      6394      6392      6400      6397      6394      6392      6398
      6397      6394      6392      6399      6397      6394      6392      6400
      6407      6405      6403      6409      6407      6405      6403      6410
      6407      6405      6403      6411      6408      6405      6403      6409
      6408      6405      6403      6410      6408      6405      6403      6411
      6418      6416      6414      6420      6418      6416      6414      6421
      6418      6416      6414      6422      6419      6416      6414      6420
      6419      6416      6414      6421      6419      6416      6414      6422
      6429      6427      6425      6431      6429      6427      6425      6432
      6429      6427      6425      6433      6430      6427      6425      6431
      6430      6427      6425      6432      6430      6427      6425      6433
      6440      6438      6436      6442      6440      6438      6436      6443
      6440      6438      6436      6444      6441      6438      6436      6442
      6441      6438      6436      6443      6441      6438      6436      6444
      6451      6449      6447      6453      6451      6449      6447      6454
      6451      6449      6447      6455      6452      6449      6447      6453
      6452      6449      6447      6454      6452      6449      6447      6455
      6462      6460      6458      6464      6462      6460      6458      6465
      6462      6460      6458      6466      6463      6460      6458      6464
      6463      6460      6458      6465      6463      6460      6458      6466
      6473      6471      6469      6475      6473      6471      6469      6476
      6473      6471      6469      6477      6474      6471      6469      6475
      6474      6471      6469      6476      6474      6471      6469      6477
      6484      6482      6480      6486      6484      6482      6480      6487
      6484      6482      6480      6488      6485      6482      6480      6486
      6485      6482      6480      6487      6485      6482      6480      6488
      6495      6493      6491      6497      6495      6493      6491      6498
      6495      6493      6491      6499      6496      6493      6491      6497
      6496      6493      6491      6498      6496      6493      6491      6499
      6506      6504      6502      6508      6506      6504      6502      6509
      6506      6504      6502      6510      6507      6504      6502      6508
      6507      6504      6502      6509      6507      6504      6502      6510
      6517      6515      6513      6519      6517      6515      6513      6520
      6517      6515      6513      6521      6518      6515      6513      6519
      6518      6515      6513      6520      6518      6515      6513      6521
      6528      6526      6524      6530      6528      6526      6524      6531
      6528      6526      6524      6532      6529      6526      6524      6530
      6529      6526      6524      6531      6529      6526      6524      6532
      6539      6537      6535      6541      6539      6537      6535      6542
      6539      6537      6535      6543      6540      6537      6535      6541
      6540      6537      6535      6542      6540      6537      6535      6543
      6550      6548      6546      6552      6550      6548      6546      6553
      6550      6548      6546      6554      6551      6548      6546      6552
      6551      6548      6546      6553      6551      6548      6546      6554
      6561      6559      6557      6563      6561      6559      6557      6564
      6561      6559      6557      6565      6562      6559      6557      6563
      6562      6559      6557      6564      6562      6559      6557      6565
      6572      6570      6568      6574      6572      6570      6568      6575
      6572      6570      6568      6576      6573      6570      6568      6574
      6573      6570      6568      6575      6573      6570      6568      6576
      6583      6581      6579      6585      6583      6581      6579      6586
      6583      6581      6579      6587      6584      6581      6579      6585
      6584      6581      6579      6586      6584      6581      6579      6587
      6594      6592      6590      6596      6594      6592      6590      6597
      6594      6592      6590      6598      6595      6592      6590      6596
      6595      6592      6590      6597      6595      6592      6590      6598
      6605      6603      6601      6607      6605      6603      6601      6608
      6605      6603      6601      6609      6606      6603      6601      6607
      6606      6603      6601      6608      6606      6603      6601      6609
      6616      6614      6612      6618      6616      6614      6612      6619
      6616      6614      6612      6620      6617      6614      6612      6618
      6617      6614      6612      6619      6617      6614      6612      6620
      6627      6625      6623      6629      6627      6625      6623      6630
      6627      6625      6623      6631      6628      6625      6623      6629
      6628      6625      6623      6630      6628      6625      6623      6631
      6638      6636      6634      6640      6638      6636      6634      6641
      6638      6636      6634      6642      6639      6636      6634      6640
      6639      6636      6634      6641      6639      6636      6634      6642
      6649      6647      6645      6651      6649      6647      6645      6652
      6649      6647      6645      6653      6650      6647      6645      6651
      6650      6647      6645      6652      6650      6647      6645      6653
      6660      6658      6656      6662      6660      6658      6656      6663
      6660      6658      6656      6664      6661      6658      6656      6662
      6661      6658      6656      6663      6661      6658      6656      6664
      6671      6669      6667      6673      6671      6669      6667      6674
      6671      6669      6667      6675      6672      6669      6667      6673
      6672      6669      6667      6674      6672      6669      6667      6675
      6682      6680      6678      6684      6682      6680      6678      6685
      6682      6680      6678      6686      6683      6680      6678      6684
      6683      6680      6678      6685      6683      6680      6678      6686
      6693      6691      6689      6695      6693      6691      6689      6696
      6693      6691      6689      6697      6694      6691      6689      6695
      6694      6691      6689      6696      6694      6691      6689      6697
      6704      6702      6700      6706      6704      6702      6700      6707
      6704      6702      6700      6708      6705      6702      6700      6706
      6705      6702      6700      6707      6705      6702      6700      6708
      6715      6713      6711      6717      6715      6713      6711      6718
      6715      6713      6711      6719      6716      6713      6711      6717
      6716      6713      6711      6718      6716      6713      6711      6719
      6726      6724      6722      6728      6726      6724      6722      6729
      6726      6724      6722      6730      6727      6724      6722      6728
      6727      6724      6722      6729      6727      6724      6722      6730
      6737      6735      6733      6739      6737      6735      6733      6740
      6737      6735      6733      6741      6738      6735      6733      6739
      6738      6735      6733      6740      6738      6735      6733      6741
      6748      6746      6744      6750      6748      6746      6744      6751
      6748      6746      6744      6752      6749      6746      6744      6750
      6749      6746      6744      6751      6749      6746      6744      6752
      6759      6757      6755      6761      6759      6757      6755      6762
      6759      6757      6755      6763      6760      6757      6755      6761
      6760      6757      6755      6762      6760      6757      6755      6763
      6770      6768      6766      6772      6770      6768      6766      6773
      6770      6768      6766      6774      6771      6768      6766      6772
      6771      6768      6766      6773      6771      6768      6766      6774
      6781      6779      6777      6783      6781      6779      6777      6784
      6781      6779      6777      6785      6782      6779      6777      6783
      6782      6779      6777      6784      6782      6779      6777      6785
      6792      6790      6788      6794      6792      6790      6788      6795
      6792      6790      6788      6796      6793      6790      6788      6794
      6793      6790      6788      6795      6793      6790      6788      6796
      6803      6801      6799      6805      6803      6801      6799      6806
      6803      6801      6799      6807      6804      6801      6799      6805
      6804      6801      6799      6806      6804      6801      6799      6807
      6814      6812      6810      6816      6814      6812      6810      6817
      6814      6812      6810      6818      6815      6812      6810      6816
      6815      6812      6810      6817      6815      6812      6810      6818
      6825      6823      6821      6827      6825      6823      6821      6828
      6825      6823      6821      6829      6826      6823      6821      6827
      6826      6823      6821      6828      6826      6823      6821      6829
      6836      6834      6832      6838      6836      6834      6832      6839
      6836      6834      6832      6840      6837      6834      6832      6838
      6837      6834      6832      6839      6837      6834      6832      6840
      6847      6845      6843      6849      6847      6845      6843      6850
      6847      6845      6843      6851      6848      6845      6843      6849
      6848      6845      6843      6850      6848      6845      6843      6851
      6858      6856      6854      6860      6858      6856      6854      6861
      6858      6856      6854      6862      6859      6856      6854      6860
      6859      6856      6854      6861      6859      6856      6854      6862
      6869      6867      6865      6871      6869      6867      6865      6872
      6869      6867      6865      6873      6870      6867      6865      6871
      6870      6867      6865      6872      6870      6867      6865      6873
      6880      6878      6876      6882      6880      6878      6876      6883
      6880      6878      6876      6884      6881      6878      6876      6882
      6881      6878      6876      6883      6881      6878      6876      6884
      6891      6889      6887      6893      6891      6889      6887      6894
      6891      6889      6887      6895      6892      6889      6887      6893
      6892      6889      6887      6894      6892      6889      6887      6895
      6902      6900      6898      6904      6902      6900      6898      6905
      6902      6900      6898      6906      6903      6900      6898      6904
      6903      6900      6898      6905      6903      6900      6898      6906
      6913      6911      6909      6915      6913      6911      6909      6916
      6913      6911      6909      6917      6914      6911      6909      6915
      6914      6911      6909      6916      6914      6911      6909      6917
      6924      6922      6920      6926      6924      6922      6920      6927
      6924      6922      6920      6928      6925      6922      6920      6926
      6925      6922      6920      6927      6925      6922      6920      6928
      6935      6933      6931      6937      6935      6933      6931      6938
      6935      6933      6931      6939      6936      6933      6931      6937
      6936      6933      6931      6938      6936      6933      6931      6939
      6946      6944      6942      6948      6946      6944      6942      6949
      6946      6944      6942      6950      6947      6944      6942      6948
      6947      6944      6942      6949      6947      6944      6942      6950
      6957      6955      6953      6959      6957      6955      6953      6960
      6957      6955      6953      6961      6958      6955      6953      6959
      6958      6955      6953      6960      6958      6955      6953      6961
      6968      6966      6964      6970      6968      6966      6964      6971
      6968      6966      6964      6972      6969      6966      6964      6970
      6969      6966      6964      6971      6969      6966      6964      6972
      6979      6977      6975      6981      6979      6977      6975      6982
      6979      6977      6975      6983      6980      6977      6975      6981
      6980      6977      6975      6982      6980      6977      6975      6983
      6990      6988      6986      6992      6990      6988      6986      6993
      6990      6988      6986      6994      6991      6988      6986      6992
      6991      6988      6986      6993      6991      6988      6986      6994
      7001      6999      6997      7003      7001      6999      6997      7004
      7001      6999      6997      7005      7002      6999      6997      7003
      7002      6999      6997      7004      7002      6999      6997      7005
      7012      7010      7008      7014      7012      7010      7008      7015
      7012      7010      7008      7016      7013      7010      7008      7014
      7013      7010      7008      7015      7013      7010      7008      7016
      7023      7021      7019      7025      7023      7021      7019      7026
      7023      7021      7019      7027      7024      7021      7019      7025
      7024      7021      7019      7026      7024      7021      7019      7027
      7034      7032      7030      7036      7034      7032      7030      7037
      7034      7032      7030      7038      7035      7032      7030      7036
      7035      7032      7030      7037      7035      7032      7030      7038
      7045      7043      7041      7047      7045      7043      7041      7048
      7045      7043      7041      7049      7046      7043      7041      7047
      7046      7043      7041      7048      7046      7043      7041      7049
      7056      7054      7052      7058      7056      7054      7052      7059
      7056      7054      7052      7060      7057      7054      7052      7058
      7057      7054      7052      7059      7057      7054      7052      7060
      7067      7065      7063      7069      7067      7065      7063      7070
      7067      7065      7063      7071      7068      7065      7063      7069
      7068      7065      7063      7070      7068      7065      7063      7071
      7078      7076      7074      7080      7078      7076      7074      7081
      7078      7076      7074      7082      7079      7076      7074      7080
      7079      7076      7074      7081      7079      7076      7074      7082
      7089      7087      7085      7091      7089      7087      7085      7092
      7089      7087      7085      7093      7090      7087      7085      7091
      7090      7087      7085      7092      7090      7087      7085      7093
      7100      7098      7096      7102      7100      7098      7096      7103
      7100      7098      7096      7104      7101      7098      7096      7102
      7101      7098      7096      7103      7101      7098      7096      7104
      7111      7109      7107      7113      7111      7109      7107      7114
      7111      7109      7107      7115      7112      7109      7107      7113
      7112      7109      7107      7114      7112      7109      7107      7115
      7122      7120      7118      7124      7122      7120      7118      7125
      7122      7120      7118      7126      7123      7120      7118      7124
      7123      7120      7118      7125      7123      7120      7118      7126
      7133      7131      7129      7135      7133      7131      7129      7136
      7133      7131      7129      7137      7134      7131      7129      7135
      7134      7131      7129      7136      7134      7131      7129      7137
      7144      7142      7140      7146      7144      7142      7140      7147
      7144      7142      7140      7148      7145      7142      7140      7146
      7145      7142      7140      7147      7145      7142      7140      7148
      7155      7153      7151      7157      7155      7153      7151      7158
      7155      7153      7151      7159      7156      7153      7151      7157
      7156      7153      7151      7158      7156      7153      7151      7159
      7166      7164      7162      7168      7166      7164      7162      7169
      7166      7164      7162      7170      7167      7164      7162      7168
      7167      7164      7162      7169      7167      7164      7162      7170
      7177      7175      7173      7179      7177      7175      7173      7180
      7177      7175      7173      7181      7178      7175      7173      7179
      7178      7175      7173      7180      7178      7175      7173      7181
      7188      7186      7184      7190      7188      7186      7184      7191
      7188      7186      7184      7192      7189      7186      7184      7190
      7189      7186      7184      7191      7189      7186      7184      7192
      7199      7197      7195      7201      7199      7197      7195      7202
      7199      7197      7195      7203      7200      7197      7195      7201
      7200      7197      7195      7202      7200      7197      7195      7203
      7210      7208      7206      7212      7210      7208      7206      7213
      7210      7208      7206      7214      7211      7208      7206      7212
      7211      7208      7206      7213      7211      7208      7206      7214
      7221      7219      7217      7223      7221      7219      7217      7224
      7221      7219      7217      7225      7222      7219      7217      7223
      7222      7219      7217      7224      7222      7219      7217      7225
      7232      7230      7228      7234      7232      7230      7228      7235
      7232      7230      7228      7236      7233      7230      7228      7234
      7233      7230      7228      7235      7233      7230      7228      7236
      7243      7241      7239      7245      7243      7241      7239      7246
      7243      7241      7239      7247      7244      7241      7239      7245
      7244      7241      7239      7246      7244      7241      7239      7247
      7254      7252      7250      7256      7254      7252      7250      7257
      7254      7252      7250      7258      7255      7252      7250      7256
      7255      7252      7250      7257      7255      7252      7250      7258
      7265      7263      7261      7267      7265      7263      7261      7268
      7265      7263      7261      7269      7266      7263      7261      7267
      7266      7263      7261      7268      7266      7263      7261      7269
      7276      7274      7272      7278      7276      7274      7272      7279
      7276      7274      7272      7280      7277      7274      7272      7278
      7277      7274      7272      7279      7277      7274      7272      7280
      7287      7285      7283      7289      7287      7285      7283      7290
      7287      7285      7283      7291      7288      7285      7283      7289
      7288      7285      7283      7290      7288      7285      7283      7291
      7298      7296      7294      7300      7298      7296      7294      7301
      7298      7296      7294      7302      7299      7296      7294      7300
      7299      7296      7294      7301      7299      7296      7294      7302
      7309      7307      7305      7311      7309      7307      7305      7312
      7309      7307      7305      7313      7310      7307      7305      7311
      7310      7307      7305      7312      7310      7307      7305      7313
      7320      7318      7316      7322      7320      7318      7316      7323
      7320      7318      7316      7324      7321      7318      7316      7322
      7321      7318      7316      7323      7321      7318      7316      7324
      7331      7329      7327      7333      7331      7329      7327      7334
      7331      7329      7327      7335      7332      7329      7327      7333
      7332      7329      7327      7334      7332      7329      7327      7335
      7342      7340      7338      7344      7342      7340      7338      7345
      7342      7340      7338      7346      7343      7340      7338      7344
      7343      7340      7338      7345      7343      7340      7338      7346
      7353      7351      7349      7355      7353      7351      7349      7356
      7353      7351      7349      7357      7354      7351      7349      7355
      7354      7351      7349      7356      7354      7351      7349      7357
      7364      7362      7360      7366      7364      7362      7360      7367
      7364      7362      7360      7368      7365      7362      7360      7366
      7365      7362      7360      7367      7365      7362      7360      7368
      7375      7373      7371      7377      7375      7373      7371      7378
      7375      7373      7371      7379      7376      7373      7371      7377
      7376      7373      7371      7378      7376      7373      7371      7379
      7386      7384      7382      7388      7386      7384      7382      7389
      7386      7384      7382      7390      7387      7384      7382      7388
      7387      7384      7382      7389      7387      7384      7382      7390
      7397      7395      7393      7399      7397      7395      7393      7400
      7397      7395      7393      7401      7398      7395      7393      7399
      7398      7395      7393      7400      7398      7395      7393      7401
      7408      7406      7404      7410      7408      7406      7404      7411
      7408      7406      7404      7412      7409      7406      7404      7410
      7409      7406      7404      7411      7409      7406      7404      7412
      7419      7417      7415      7421      7419      7417      7415      7422
      7419      7417      7415      7423      7420      7417      7415      7421
      7420      7417      7415      7422      7420      7417      7415      7423
      7430      7428      7426      7432      7430      7428      7426      7433
      7430      7428      7426      7434      7431      7428      7426      7432
      7431      7428      7426      7433      7431      7428      7426      7434
      7441      7439      7437      7443      7441      7439      7437      7444
      7441      7439      7437      7445      7442      7439      7437      7443
      7442      7439      7437      7444      7442      7439      7437      7445
      7452      7450      7448      7454      7452      7450      7448      7455
      7452      7450      7448      7456      7453      7450      7448      7454
      7453      7450      7448      7455      7453      7450      7448      7456
      7463      7461      7459      7465      7463      7461      7459      7466
      7463      7461      7459      7467      7464      7461      7459      7465
      7464      7461      7459      7466      7464      7461      7459      7467
      7474      7472      7470      7476      7474      7472      7470      7477
      7474      7472      7470      7478      7475      7472      7470      7476
      7475      7472      7470      7477      7475      7472      7470      7478
      7485      7483      7481      7487      7485      7483      7481      7488
      7485      7483      7481      7489      7486      7483      7481      7487
      7486      7483      7481      7488      7486      7483      7481      7489
      7496      7494      7492      7498      7496      7494      7492      7499
      7496      7494      7492      7500      7497      7494      7492      7498
      7497      7494      7492      7499      7497      7494      7492      7500
      7507      7505      7503      7509      7507      7505      7503      7510
      7507      7505      7503      7511      7508      7505      7503      7509
      7508      7505      7503      7510      7508      7505      7503      7511
      7518      7516      7514      7520      7518      7516      7514      7521
      7518      7516      7514      7522      7519      7516      7514      7520
      7519      7516      7514      7521      7519      7516      7514      7522
      7529      7527      7525      7531      7529      7527      7525      7532
      7529      7527      7525      7533      7530      7527      7525      7531
      7530      7527      7525      7532      7530      7527      7525      7533
      7540      7538      7536      7542      7540      7538      7536      7543
      7540      7538      7536      7544      7541      7538      7536      7542
      7541      7538      7536      7543      7541      7538      7536      7544
      7551      7549      7547      7553      7551      7549      7547      7554
      7551      7549      7547      7555      7552      7549      7547      7553
      7552      7549      7547      7554      7552      7549      7547      7555
      7562      7560      7558      7564      7562      7560      7558      7565
      7562      7560      7558      7566      7563      7560      7558      7564
      7563      7560      7558      7565      7563      7560      7558      7566
      7573      7571      7569      7575      7573      7571      7569      7576
      7573      7571      7569      7577      7574      7571      7569      7575
      7574      7571      7569      7576      7574      7571      7569      7577
      7584      7582      7580      7586      7584      7582      7580      7587
      7584      7582      7580      7588      7585      7582      7580      7586
      7585      7582      7580      7587      7585      7582      7580      7588
      7595      7593      7591      7597      7595      7593      7591      7598
      7595      7593      7591      7599      7596      7593      7591      7597
      7596      7593      7591      7598      7596      7593      7591      7599
      7606      7604      7602      7608      7606      7604      7602      7609
      7606      7604      7602      7610      7607      7604      7602      7608
      7607      7604      7602      7609      7607      7604      7602      7610
      7617      7615      7613      7619      7617      7615      7613      7620
      7617      7615      7613      7621      7618      7615      7613      7619
      7618      7615      7613      7620      7618      7615      7613      7621
      7628      7626      7624      7630      7628      7626      7624      7631
      7628      7626      7624      7632      7629      7626      7624      7630
      7629      7626      7624      7631      7629      7626      7624      7632
      7639      7637      7635      7641      7639      7637      7635      7642
      7639      7637      7635      7643      7640      7637      7635      7641
      7640      7637      7635      7642      7640      7637      7635      7643
      7650      7648      7646      7652      7650      7648      7646      7653
      7650      7648      7646      7654      7651      7648      7646      7652
      7651      7648      7646      7653      7651      7648      7646      7654
      7661      7659      7657      7663      7661      7659      7657      7664
      7661      7659      7657      7665      7662      7659      7657      7663
      7662      7659      7657      7664      7662      7659      7657      7665
      7672      7670      7668      7674      7672      7670      7668      7675
      7672      7670      7668      7676      7673      7670      7668      7674
      7673      7670      7668      7675      7673      7670      7668      7676
      7683      7681      7679      7685      7683      7681      7679      7686
      7683      7681      7679      7687      7684      7681      7679      7685
      7684      7681      7679      7686      7684      7681      7679      7687
      7694      7692      7690      7696      7694      7692      7690      7697
      7694      7692      7690      7698      7695      7692      7690      7696
      7695      7692      7690      7697      7695      7692      7690      7698
      7705      7703      7701      7707      7705      7703      7701      7708
      7705      7703      7701      7709      7706      7703      7701      7707
      7706      7703      7701      7708      7706      7703      7701      7709
      7716      7714      7712      7718      7716      7714      7712      7719
      7716      7714      7712      7720      7717      7714      7712      7718
      7717      7714      7712      7719      7717      7714      7712      7720
      7727      7725      7723      7729      7727      7725      7723      7730
      7727      7725      7723      7731      7728      7725      7723      7729
      7728      7725      7723      7730      7728      7725      7723      7731
      7738      7736      7734      7740      7738      7736      7734      7741
      7738      7736      7734      7742      7739      7736      7734      7740
      7739      7736      7734      7741      7739      7736      7734      7742
      7749      7747      7745      7751      7749      7747      7745      7752
      7749      7747      7745      7753      7750      7747      7745      7751
      7750      7747      7745      7752      7750      7747      7745      7753
      7760      7758      7756      7762      7760      7758      7756      7763
      7760      7758      7756      7764      7761      7758      7756      7762
      7761      7758      7756      7763      7761      7758      7756      7764
      7771      7769      7767      7773      7771      7769      7767      7774
      7771      7769      7767      7775      7772      7769      7767      7773
      7772      7769      7767      7774      7772      7769      7767      7775
      7782      7780      7778      7784      7782      7780      7778      7785
      7782      7780      7778      7786      7783      7780      7778      7784
      7783      7780      7778      7785      7783      7780      7778      7786
      7793      7791      7789      7795      7793      7791      7789      7796
      7793      7791      7789      7797      7794      7791      7789      7795
      7794      7791      7789      7796      7794      7791      7789      7797
      7804      7802      7800      7806      7804      7802      7800      7807
      7804      7802      7800      7808      7805      7802      7800      7806
      7805      7802      7800      7807      7805      7802      7800      7808
      7815      7813      7811      7817      7815      7813      7811      7818
      7815      7813      7811      7819      7816      7813      7811      7817
      7816      7813      7811      7818      7816      7813      7811      7819
      7826      7824      7822      7828      7826      7824      7822      7829
      7826      7824      7822      7830      7827      7824      7822      7828
      7827      7824      7822      7829      7827      7824      7822      7830
      7837      7835      7833      7839      7837      7835      7833      7840
      7837      7835      7833      7841      7838      7835      7833      7839
      7838      7835      7833      7840      7838      7835      7833      7841
      7848      7846      7844      7850      7848      7846      7844      7851
      7848      7846      7844      7852      7849      7846      7844      7850
      7849      7846      7844      7851      7849      7846      7844      7852
      7859      7857      7855      7861      7859      7857      7855      7862
      7859      7857      7855      7863      7860      7857      7855      7861
      7860      7857      7855      7862      7860      7857      7855      7863
      7870      7868      7866      7872      7870      7868      7866      7873
      7870      7868      7866      7874      7871      7868      7866      7872
      7871      7868      7866      7873      7871      7868      7866      7874
      7881      7879      7877      7883      7881      7879      7877      7884
      7881      7879      7877      7885      7882      7879      7877      7883
      7882      7879      7877      7884      7882      7879      7877      7885
      7892      7890      7888      7894      7892      7890      7888      7895
      7892      7890      7888      7896      7893      7890      7888      7894
      7893      7890      7888      7895      7893      7890      7888      7896
      7903      7901      7899      7905      7903      7901      7899      7906
      7903      7901      7899      7907      7904      7901      7899      7905
      7904      7901      7899      7906      7904      7901      7899      7907
      7914      7912      7910      7916      7914      7912      7910      7917
      7914      7912      7910      7918      7915      7912      7910      7916
      7915      7912      7910      7917      7915      7912      7910      7918
      7925      7923      7921      7927      7925      7923      7921      7928
      7925      7923      7921      7929      7926      7923      7921      7927
      7926      7923      7921      7928      7926      7923      7921      7929
      7936      7934      7932      7938      7936      7934      7932      7939
      7936      7934      7932      7940      7937      7934      7932      7938
      7937      7934      7932      7939      7937      7934      7932      7940
      7947      7945      7943      7949      7947      7945      7943      7950
      7947      7945      7943      7951      7948      7945      7943      7949
      7948      7945      7943      7950      7948      7945      7943      7951
      7958      7956      7954      7960      7958      7956      7954      7961
      7958      7956      7954      7962      7959      7956      7954      7960
      7959      7956      7954      7961      7959      7956      7954      7962
      7969      7967      7965      7971      7969      7967      7965      7972
      7969      7967      7965      7973      7970      7967      7965      7971
      7970      7967      7965      7972      7970      7967      7965      7973
      7980      7978      7976      7982      7980      7978      7976      7983
      7980      7978      7976      7984      7981      7978      7976      7982
      7981      7978      7976      7983      7981      7978      7976      7984
      7991      7989      7987      7993      7991      7989      7987      7994
      7991      7989      7987      7995      7992      7989      7987      7993
      7992      7989      7987      7994      7992      7989      7987      7995
      8002      8000      7998      8004      8002      8000      7998      8005
      8002      8000      7998      8006      8003      8000      7998      8004
      8003      8000      7998      8005      8003      8000      7998      8006
      8013      8011      8009      8015      8013      8011      8009      8016
      8013      8011      8009      8017      8014      8011      8009      8015
      8014      8011      8009      8016      8014      8011      8009      8017
      8024      8022      8020      8026      8024      8022      8020      8027
      8024      8022      8020      8028      8025      8022      8020      8026
      8025      8022      8020      8027      8025      8022      8020      8028
      8035      8033      8031      8037      8035      8033      8031      8038
      8035      8033      8031      8039      8036      8033      8031      8037
      8036      8033      8031      8038      8036      8033      8031      8039
      8046      8044      8042      8048      8046      8044      8042      8049
      8046      8044      8042      8050      8047      8044      8042      8048
      8047      8044      8042      8049      8047      8044      8042      8050
      8057      8055      8053      8059      8057      8055      8053      8060
      8057      8055      8053      8061      8058      8055      8053      8059
      8058      8055      8053      8060      8058      8055      8053      8061
      8068      8066      8064      8070      8068      8066      8064      8071
      8068      8066      8064      8072      8069      8066      8064      8070
      8069      8066      8064      8071      8069      8066      8064      8072
      8079      8077      8075      8081      8079      8077      8075      8082
      8079      8077      8075      8083      8080      8077      8075      8081
      8080      8077      8075      8082      8080      8077      8075      8083
      8090      8088      8086      8092      8090      8088      8086      8093
      8090      8088      8086      8094      8091      8088      8086      8092
      8091      8088      8086      8093      8091      8088      8086      8094
      8101      8099      8097      8103      8101      8099      8097      8104
      8101      8099      8097      8105      8102      8099      8097      8103
      8102      8099      8097      8104      8102      8099      8097      8105
      8112      8110      8108      8114      8112      8110      8108      8115
      8112      8110      8108      8116      8113      8110      8108      8114
      8113      8110      8108      8115      8113      8110      8108      8116
      8123      8121      8119      8125      8123      8121      8119      8126
      8123      8121      8119      8127      8124      8121      8119      8125
      8124      8121      8119      8126      8124      8121      8119      8127
      8134      8132      8130      8136      8134      8132      8130      8137
      8134      8132      8130      8138      8135      8132      8130      8136
      8135      8132      8130      8137      8135      8132      8130      8138
      8145      8143      8141      8147      8145      8143      8141      8148
      8145      8143      8141      8149      8146      8143      8141      8147
      8146      8143      8141      8148      8146      8143      8141      8149
      8156      8154      8152      8158      8156      8154      8152      8159
      8156      8154      8152      8160      8157      8154      8152      8158
      8157      8154      8152      8159      8157      8154      8152      8160
      8167      8165      8163      8169      8167      8165      8163      8170
      8167      8165      8163      8171      8168      8165      8163      8169
      8168      8165      8163      8170      8168      8165      8163      8171
      8178      8176      8174      8180      8178      8176      8174      8181
      8178      8176      8174      8182      8179      8176      8174      8180
      8179      8176      8174      8181      8179      8176      8174      8182
      8189      8187      8185      8191      8189      8187      8185      8192
      8189      8187      8185      8193      8190      8187      8185      8191
      8190      8187      8185      8192      8190      8187      8185      8193
      8200      8198      8196      8202      8200      8198      8196      8203
      8200      8198      8196      8204      8201      8198      8196      8202
      8201      8198      8196      8203      8201      8198      8196      8204
      8211      8209      8207      8213      8211      8209      8207      8214
      8211      8209      8207      8215      8212      8209      8207      8213
      8212      8209      8207      8214      8212      8209      8207      8215
      8222      8220      8218      8224      8222      8220      8218      8225
      8222      8220      8218      8226      8223      8220      8218      8224
      8223      8220      8218      8225      8223      8220      8218      8226
      8233      8231      8229      8235      8233      8231      8229      8236
      8233      8231      8229      8237      8234      8231      8229      8235
      8234      8231      8229      8236      8234      8231      8229      8237
      8244      8242      8240      8246      8244      8242      8240      8247
      8244      8242      8240      8248      8245      8242      8240      8246
      8245      8242      8240      8247      8245      8242      8240      8248
      8255      8253      8251      8257      8255      8253      8251      8258
      8255      8253      8251      8259      8256      8253      8251      8257
      8256      8253      8251      8258      8256      8253      8251      8259
      8266      8264      8262      8268      8266      8264      8262      8269
      8266      8264      8262      8270      8267      8264      8262      8268
      8267      8264      8262      8269      8267      8264      8262      8270
      8277      8275      8273      8279      8277      8275      8273      8280
      8277      8275      8273      8281      8278      8275      8273      8279
      8278      8275      8273      8280      8278      8275      8273      8281
      8288      8286      8284      8290      8288      8286      8284      8291
      8288      8286      8284      8292      8289      8286      8284      8290
      8289      8286      8284      8291      8289      8286      8284      8292
      8299      8297      8295      8301      8299      8297      8295      8302
      8299      8297      8295      8303      8300      8297      8295      8301
      8300      8297      8295      8302      8300      8297      8295      8303
      8310      8308      8306      8312      8310      8308      8306      8313
      8310      8308      8306      8314      8311      8308      8306      8312
      8311      8308      8306      8313      8311      8308      8306      8314
      8321      8319      8317      8323      8321      8319      8317      8324
      8321      8319      8317      8325      8322      8319      8317      8323
      8322      8319      8317      8324      8322      8319      8317      8325
      8332      8330      8328      8334      8332      8330      8328      8335
      8332      8330      8328      8336      8333      8330      8328      8334
      8333      8330      8328      8335      8333      8330      8328      8336
      8343      8341      8339      8345      8343      8341      8339      8346
      8343      8341      8339      8347      8344      8341      8339      8345
      8344      8341      8339      8346      8344      8341      8339      8347
      8354      8352      8350      8356      8354      8352      8350      8357
      8354      8352      8350      8358      8355      8352      8350      8356
      8355      8352      8350      8357      8355      8352      8350      8358
      8365      8363      8361      8367      8365      8363      8361      8368
      8365      8363      8361      8369      8366      8363      8361      8367
      8366      8363      8361      8368      8366      8363      8361      8369
      8376      8374      8372      8378      8376      8374      8372      8379
      8376      8374      8372      8380      8377      8374      8372      8378
      8377      8374      8372      8379      8377      8374      8372      8380
      8387      8385      8383      8389      8387      8385      8383      8390
      8387      8385      8383      8391      8388      8385      8383      8389
      8388      8385      8383      8390      8388      8385      8383      8391
      8398      8396      8394      8400      8398      8396      8394      8401
      8398      8396      8394      8402      8399      8396      8394      8400
      8399      8396      8394      8401      8399      8396      8394      8402
      8409      8407      8405      8411      8409      8407      8405      8412
      8409      8407      8405      8413      8410      8407      8405      8411
      8410      8407      8405      8412      8410      8407      8405      8413
      8420      8418      8416      8422      8420      8418      8416      8423
      8420      8418      8416      8424      8421      8418      8416      8422
      8421      8418      8416      8423      8421      8418      8416      8424
      8431      8429      8427      8433      8431      8429      8427      8434
      8431      8429      8427      8435      8432      8429      8427      8433
      8432      8429      8427      8434      8432      8429      8427      8435
      8442      8440      8438      8444      8442      8440      8438      8445
      8442      8440      8438      8446      8443      8440      8438      8444
      8443      8440      8438      8445      8443      8440      8438      8446
      8453      8451      8449      8455      8453      8451      8449      8456
      8453      8451      8449      8457      8454      8451      8449      8455
      8454      8451      8449      8456      8454      8451      8449      8457
      8464      8462      8460      8466      8464      8462      8460      8467
      8464      8462      8460      8468      8465      8462      8460      8466
      8465      8462      8460      8467      8465      8462      8460      8468
      8475      8473      8471      8477      8475      8473      8471      8478
      8475      8473      8471      8479      8476      8473      8471      8477
      8476      8473      8471      8478      8476      8473      8471      8479
      8486      8484      8482      8488      8486      8484      8482      8489
      8486      8484      8482      8490      8487      8484      8482      8488
      8487      8484      8482      8489      8487      8484      8482      8490
      8497      8495      8493      8499      8497      8495      8493      8500
      8497      8495      8493      8501      8498      8495      8493      8499
      8498      8495      8493      8500      8498      8495      8493      8501
      8508      8506      8504      8510      8508      8506      8504      8511
      8508      8506      8504      8512      8509      8506      8504      8510
      8509      8506      8504      8511      8509      8506      8504      8512
      8519      8517      8515      8521      8519      8517      8515      8522
      8519      8517      8515      8523      8520      8517      8515      8521
      8520      8517      8515      8522      8520      8517      8515      8523
      8530      8528      8526      8532      8530      8528      8526      8533
      8530      8528      8526      8534      8531      8528      8526      8532
      8531      8528      8526      8533      8531      8528      8526      8534
      8541      8539      8537      8543      8541      8539      8537      8544
      8541      8539      8537      8545      8542      8539      8537      8543
      8542      8539      8537      8544      8542      8539      8537      8545
      8552      8550      8548      8554      8552      8550      8548      8555
      8552      8550      8548      8556      8553      8550      8548      8554
      8553      8550      8548      8555      8553      8550      8548      8556
      8563      8561      8559      8565      8563      8561      8559      8566
      8563      8561      8559      8567      8564      8561      8559      8565
      8564      8561      8559      8566      8564      8561      8559      8567
      8574      8572      8570      8576      8574      8572      8570      8577
      8574      8572      8570      8578      8575      8572      8570      8576
      8575      8572      8570      8577      8575      8572      8570      8578
      8585      8583      8581      8587      8585      8583      8581      8588
      8585      8583      8581      8589      8586      8583      8581      8587
      8586      8583      8581      8588      8586      8583      8581      8589
      8596      8594      8592      8598      8596      8594      8592      8599
      8596      8594      8592      8600      8597      8594      8592      8598
      8597      8594      8592      8599      8597      8594      8592      8600
      8607      8605      8603      8609      8607      8605      8603      8610
      8607      8605      8603      8611      8608      8605      8603      8609
      8608      8605      8603      8610      8608      8605      8603      8611
      8618      8616      8614      8620      8618      8616      8614      8621
      8618      8616      8614      8622      8619      8616      8614      8620
      8619      8616      8614      8621      8619      8616      8614      8622
      8629      8627      8625      8631      8629      8627      8625      8632
      8629      8627      8625      8633      8630      8627      8625      8631
      8630      8627      8625      8632      8630      8627      8625      8633
      8640      8638      8636      8642      8640      8638      8636      8643
      8640      8638      8636      8644      8641      8638      8636      8642
      8641      8638      8636      8643      8641      8638      8636      8644
      8651      8649      8647      8653      8651      8649      8647      8654
      8651      8649      8647      8655      8652      8649      8647      8653
      8652      8649      8647      8654      8652      8649      8647      8655
      8662      8660      8658      8664      8662      8660      8658      8665
      8662      8660      8658      8666      8663      8660      8658      8664
      8663      8660      8658      8665      8663      8660      8658      8666
      8673      8671      8669      8675      8673      8671      8669      8676
      8673      8671      8669      8677      8674      8671      8669      8675
      8674      8671      8669      8676      8674      8671      8669      8677
      8684      8682      8680      8686      8684      8682      8680      8687
      8684      8682      8680      8688      8685      8682      8680      8686
      8685      8682      8680      8687      8685      8682      8680      8688
      8695      8693      8691      8697      8695      8693      8691      8698
      8695      8693      8691      8699      8696      8693      8691      8697
      8696      8693      8691      8698      8696      8693      8691      8699
      8706      8704      8702      8708      8706      8704      8702      8709
      8706      8704      8702      8710      8707      8704      8702      8708
      8707      8704      8702      8709      8707      8704      8702      8710
      8717      8715      8713      8719      8717      8715      8713      8720
      8717      8715      8713      8721      8718      8715      8713      8719
      8718      8715      8713      8720      8718      8715      8713      8721
      8728      8726      8724      8730      8728      8726      8724      8731
      8728      8726      8724      8732      8729      8726      8724      8730
      8729      8726      8724      8731      8729      8726      8724      8732
      8739      8737      8735      8741      8739      8737      8735      8742
      8739      8737      8735      8743      8740      8737      8735      8741
      8740      8737      8735      8742      8740      8737      8735      8743
      8750      8748      8746      8752      8750      8748      8746      8753
      8750      8748      8746      8754      8751      8748      8746      8752
      8751      8748      8746      8753      8751      8748      8746      8754
      8761      8759      8757      8763      8761      8759      8757      8764
      8761      8759      8757      8765      8762      8759      8757      8763
      8762      8759      8757      8764      8762      8759      8757      8765
      8772      8770      8768      8774      8772      8770      8768      8775
      8772      8770      8768      8776      8773      8770      8768      8774
      8773      8770      8768      8775      8773      8770      8768      8776
      8783      8781      8779      8785      8783      8781      8779      8786
      8783      8781      8779      8787      8784      8781      8779      8785
      8784      8781      8779      8786      8784      8781      8779      8787
      8794      8792      8790      8796      8794      8792      8790      8797
      8794      8792      8790      8798      8795      8792      8790      8796
      8795      8792      8790      8797      8795      8792      8790      8798
      8805      8803      8801      8807      8805      8803      8801      8808
      8805      8803      8801      8809      8806      8803      8801      8807
      8806      8803      8801      8808      8806      8803      8801      8809
      8816      8814      8812      8818      8816      8814      8812      8819
      8816      8814      8812      8820      8817      8814      8812      8818
      8817      8814      8812      8819      8817      8814      8812      8820
      8827      8825      8823      8829      8827      8825      8823      8830
      8827      8825      8823      8831      8828      8825      8823      8829
      8828      8825      8823      8830      8828      8825      8823      8831
      8838      8836      8834      8840      8838      8836      8834      8841
      8838      8836      8834      8842      8839      8836      8834      8840
      8839      8836      8834      8841      8839      8836      8834      8842
      8849      8847      8845      8851      8849      8847      8845      8852
      8849      8847      8845      8853      8850      8847      8845      8851
      8850      8847      8845      8852      8850      8847      8845      8853
      8860      8858      8856      8862      8860      8858      8856      8863
      8860      8858      8856      8864      8861      8858      8856      8862
      8861      8858      8856      8863      8861      8858      8856      8864
      8871      8869      8867      8873      8871      8869      8867      8874
      8871      8869      8867      8875      8872      8869      8867      8873
      8872      8869      8867      8874      8872      8869      8867      8875
      8882      8880      8878      8884      8882      8880      8878      8885
      8882      8880      8878      8886      8883      8880      8878      8884
      8883      8880      8878      8885      8883      8880      8878      8886
      8893      8891      8889      8895      8893      8891      8889      8896
      8893      8891      8889      8897      8894      8891      8889      8895
      8894      8891      8889      8896      8894      8891      8889      8897
      8904      8902      8900      8906      8904      8902      8900      8907
      8904      8902      8900      8908      8905      8902      8900      8906
      8905      8902      8900      8907      8905      8902      8900      8908
      8915      8913      8911      8917      8915      8913      8911      8918
      8915      8913      8911      8919      8916      8913      8911      8917
      8916      8913      8911      8918      8916      8913      8911      8919
      8926      8924      8922      8928      8926      8924      8922      8929
      8926      8924      8922      8930      8927      8924      8922      8928
      8927      8924      8922      8929      8927      8924      8922      8930
      8937      8935      8933      8939      8937      8935      8933      8940
      8937      8935      8933      8941      8938      8935      8933      8939
      8938      8935      8933      8940      8938      8935      8933      8941
      8948      8946      8944      8950      8948      8946      8944      8951
      8948      8946      8944      8952      8949      8946      8944      8950
      8949      8946      8944      8951      8949      8946      8944      8952
      8959      8957      8955      8961      8959      8957      8955      8962
      8959      8957      8955      8963      8960      8957      8955      8961
      8960      8957      8955      8962      8960      8957      8955      8963
      8970      8968      8966      8972      8970      8968      8966      8973
      8970      8968      8966      8974      8971      8968      8966      8972
      8971      8968      8966      8973      8971      8968      8966      8974
      8981      8979      8977      8983      8981      8979      8977      8984
      8981      8979      8977      8985      8982      8979      8977      8983
      8982      8979      8977      8984      8982      8979      8977      8985
      8992      8990      8988      8994      8992      8990      8988      8995
      8992      8990      8988      8996      8993      8990      8988      8994
      8993      8990      8988      8995      8993      8990      8988      8996
      9003      9001      8999      9005      9003      9001      8999      9006
      9003      9001      8999      9007      9004      9001      8999      9005
      9004      9001      8999      9006      9004      9001      8999      9007
      9014      9012      9010      9016      9014      9012      9010      9017
      9014      9012      9010      9018      9015      9012      9010      9016
      9015      9012      9010      9017      9015      9012      9010      9018
      9025      9023      9021      9027      9025      9023      9021      9028
      9025      9023      9021      9029      9026      9023      9021      9027
      9026      9023      9021      9028      9026      9023      9021      9029
      9036      9034      9032      9038      9036      9034      9032      9039
      9036      9034      9032      9040      9037      9034      9032      9038
      9037      9034      9032      9039      9037      9034      9032      9040
      9047      9045      9043      9049      9047      9045      9043      9050
      9047      9045      9043      9051      9048      9045      9043      9049
      9048      9045      9043      9050      9048      9045      9043      9051
      9058      9056      9054      9060      9058      9056      9054      9061
      9058      9056      9054      9062      9059      9056      9054      9060
      9059      9056      9054      9061      9059      9056      9054      9062
      9069      9067      9065      9071      9069      9067      9065      9072
      9069      9067      9065      9073      9070      9067      9065      9071
      9070      9067      9065      9072      9070      9067      9065      9073
      9080      9078      9076      9082      9080      9078      9076      9083
      9080      9078      9076      9084      9081      9078      9076      9082
      9081      9078      9076      9083      9081      9078      9076      9084
      9091      9089      9087      9093      9091      9089      9087      9094
      9091      9089      9087      9095      9092      9089      9087      9093
      9092      9089      9087      9094      9092      9089      9087      9095
      9102      9100      9098      9104      9102      9100      9098      9105
      9102      9100      9098      9106      9103      9100      9098      9104
      9103      9100      9098      9105      9103      9100      9098      9106
      9113      9111      9109      9115      9113      9111      9109      9116
      9113      9111      9109      9117      9114      9111      9109      9115
      9114      9111      9109      9116      9114      9111      9109      9117
      9124      9122      9120      9126      9124      9122      9120      9127
      9124      9122      9120      9128      9125      9122      9120      9126
      9125      9122      9120      9127      9125      9122      9120      9128
      9135      9133      9131      9137      9135      9133      9131      9138
      9135      9133      9131      9139      9136      9133      9131      9137
      9136      9133      9131      9138      9136      9133      9131      9139
      9146      9144      9142      9148      9146      9144      9142      9149
      9146      9144      9142      9150      9147      9144      9142      9148
      9147      9144      9142      9149      9147      9144      9142      9150
      9157      9155      9153      9159      9157      9155      9153      9160
      9157      9155      9153      9161      9158      9155      9153      9159
      9158      9155      9153      9160      9158      9155      9153      9161
      9168      9166      9164      9170      9168      9166      9164      9171
      9168      9166      9164      9172      9169      9166      9164      9170
      9169      9166      9164      9171      9169      9166      9164      9172
      9179      9177      9175      9181      9179      9177      9175      9182
      9179      9177      9175      9183      9180      9177      9175      9181
      9180      9177      9175      9182      9180      9177      9175      9183
      9190      9188      9186      9192      9190      9188      9186      9193
      9190      9188      9186      9194      9191      9188      9186      9192
      9191      9188      9186      9193      9191      9188      9186      9194
      9201      9199      9197      9203      9201      9199      9197      9204
      9201      9199      9197      9205      9202      9199      9197      9203
      9202      9199      9197      9204      9202      9199      9197      9205
      9212      9210      9208      9214      9212      9210      9208      9215
      9212      9210      9208      9216      9213      9210      9208      9214
      9213      9210      9208      9215      9213      9210      9208      9216
      9223      9221      9219      9225      9223      9221      9219      9226
      9223      9221      9219      9227      9224      9221      9219      9225
      9224      9221      9219      9226      9224      9221      9219      9227
      9234      9232      9230      9236      9234      9232      9230      9237
      9234      9232      9230      9238      9235      9232      9230      9236
      9235      9232      9230      9237      9235      9232      9230      9238
      9245      9243      9241      9247      9245      9243      9241      9248
      9245      9243      9241      9249      9246      9243      9241      9247
      9246      9243      9241      9248      9246      9243      9241      9249
      9256      9254      9252      9258      9256      9254      9252      9259
      9256      9254      9252      9260      9257      9254      9252      9258
      9257      9254      9252      9259      9257      9254      9252      9260
      9267      9265      9263      9269      9267      9265      9263      9270
      9267      9265      9263      9271      9268      9265      9263      9269
      9268      9265      9263      9270      9268      9265      9263      9271
      9278      9276      9274      9280      9278      9276      9274      9281
      9278      9276      9274      9282      9279      9276      9274      9280
      9279      9276      9274      9281      9279      9276      9274      9282
      9289      9287      9285      9291      9289      9287      9285      9292
      9289      9287      9285      9293      9290      9287      9285      9291
      9290      9287      9285      9292      9290      9287      9285      9293
      9300      9298      9296      9302      9300      9298      9296      9303
      9300      9298      9296      9304      9301      9298      9296      9302
      9301      9298      9296      9303      9301      9298      9296      9304
      9311      9309      9307      9313      9311      9309      9307      9314
      9311      9309      9307      9315      9312      9309      9307      9313
      9312      9309      9307      9314      9312      9309      9307      9315
      9322      9320      9318      9324      9322      9320      9318      9325
      9322      9320      9318      9326      9323      9320      9318      9324
      9323      9320      9318      9325      9323      9320      9318      9326
      9333      9331      9329      9335      9333      9331      9329      9336
      9333      9331      9329      9337      9334      9331      9329      9335
      9334      9331      9329      9336      9334      9331      9329      9337
      9344      9342      9340      9346      9344      9342      9340      9347
      9344      9342      9340      9348      9345      9342      9340      9346
      9345      9342      9340      9347      9345      9342      9340      9348
      9355      9353      9351      9357      9355      9353      9351      9358
      9355      9353      9351      9359      9356      9353      9351      9357
      9356      9353      9351      9358      9356      9353      9351      9359
      9366      9364      9362      9368      9366      9364      9362      9369
      9366      9364      9362      9370      9367      9364      9362      9368
      9367      9364      9362      9369      9367      9364      9362      9370
      9377      9375      9373      9379      9377      9375      9373      9380
      9377      9375      9373      9381      9378      9375      9373      9379
      9378      9375      9373      9380      9378      9375      9373      9381
      9388      9386      9384      9390      9388      9386      9384      9391
      9388      9386      9384      9392      9389      9386      9384      9390
      9389      9386      9384      9391      9389      9386      9384      9392
      9399      9397      9395      9401      9399      9397      9395      9402
      9399      9397      9395      9403      9400      9397      9395      9401
      9400      9397      9395      9402      9400      9397      9395      9403
      9410      9408      9406      9412      9410      9408      9406      9413
      9410      9408      9406      9414      9411      9408      9406      9412
      9411      9408      9406      9413      9411      9408      9406      9414
      9421      9419      9417      9423      9421      9419      9417      9424
      9421      9419      9417      9425      9422      9419      9417      9423
      9422      9419      9417      9424      9422      9419      9417      9425
      9432      9430      9428      9434      9432      9430      9428      9435
      9432      9430      9428      9436      9433      9430      9428      9434
      9433      9430      9428      9435      9433      9430      9428      9436
      9443      9441      9439      9445      9443      9441      9439      9446
      9443      9441      9439      9447      9444      9441      9439      9445
      9444      9441      9439      9446      9444      9441      9439      9447
      9454      9452      9450      9456      9454      9452      9450      9457
      9454      9452      9450      9458      9455      9452      9450      9456
      9455      9452      9450      9457      9455      9452      9450      9458
      9465      9463      9461      9467      9465      9463      9461      9468
      9465      9463      9461      9469      9466      9463      9461      9467
      9466      9463      9461      9468      9466      9463      9461      9469
      9476      9474      9472      9478      9476      9474      9472      9479
      9476      9474      9472      9480      9477      9474      9472      9478
      9477      9474      9472      9479      9477      9474      9472      9480
      9487      9485      9483      9489      9487      9485      9483      9490
      9487      9485      9483      9491      9488      9485      9483      9489
      9488      9485      9483      9490      9488      9485      9483      9491
      9498      9496      9494      9500      9498      9496      9494      9501
      9498      9496      9494      9502      9499      9496      9494      9500
      9499      9496      9494      9501      9499      9496      9494      9502
      9509      9507      9505      9511      9509      9507      9505      9512
      9509      9507      9505      9513      9510      9507      9505      9511
      9510      9507      9505      9512      9510      9507      9505      9513
      9520      9518      9516      9522      9520      9518      9516      9523
      9520      9518      9516      9524      9521      9518      9516      9522
      9521      9518      9516      9523      9521      9518      9516      9524
      9531      9529      9527      9533      9531      9529      9527      9534
      9531      9529      9527      9535      9532      9529      9527      9533
      9532      9529      9527      9534      9532      9529      9527      9535
      9542      9540      9538      9544      9542      9540      9538      9545
      9542      9540      9538      9546      9543      9540      9538      9544
      9543      9540      9538      9545      9543      9540      9538      9546
      9553      9551      9549      9555      9553      9551      9549      9556
      9553      9551      9549      9557      9554      9551      9549      9555
      9554      9551      9549      9556      9554      9551      9549      9557
      9564      9562      9560      9566      9564      9562      9560      9567
      9564      9562      9560      9568      9565      9562      9560      9566
      9565      9562      9560      9567      9565      9562      9560      9568
      9575      9573      9571      9577      9575      9573      9571      9578
      9575      9573      9571      9579      9576      9573      9571      9577
      9576      9573      9571      9578      9576      9573      9571      9579
      9586      9584      9582      9588      9586      9584      9582      9589
      9586      9584      9582      9590      9587      9584      9582      9588
      9587      9584      9582      9589      9587      9584      9582      9590
      9597      9595      9593      9599      9597      9595      9593      9600
      9597      9595      9593      9601      9598      9595      9593      9599
      9598      9595      9593      9600      9598      9595      9593      9601
      9608      9606      9604      9610      9608      9606      9604      9611
      9608      9606      9604      9612      9609      9606      9604      9610
      9609      9606      9604      9611      9609      9606      9604      9612
      9619      9617      9615      9621      9619      9617      9615      9622
      9619      9617      9615      9623      9620      9617      9615      9621
      9620      9617      9615      9622      9620      9617      9615      9623
      9630      9628      9626      9632      9630      9628      9626      9633
      9630      9628      9626      9634      9631      9628      9626      9632
      9631      9628      9626      9633      9631      9628      9626      9634
      9641      9639      9637      9643      9641      9639      9637      9644
      9641      9639      9637      9645      9642      9639      9637      9643
      9642      9639      9637      9644      9642      9639      9637      9645
      9652      9650      9648      9654      9652      9650      9648      9655
      9652      9650      9648      9656      9653      9650      9648      9654
      9653      9650      9648      9655      9653      9650      9648      9656
      9663      9661      9659      9665      9663      9661      9659      9666
      9663      9661      9659      9667      9664      9661      9659      9665
      9664      9661      9659      9666      9664      9661      9659      9667
      9674      9672      9670      9676      9674      9672      9670      9677
      9674      9672      9670      9678      9675      9672      9670      9676
      9675      9672      9670      9677      9675      9672      9670      9678
      9685      9683      9681      9687      9685      9683      9681      9688
      9685      9683      9681      9689      9686      9683      9681      9687
      9686      9683      9681      9688      9686      9683      9681      9689
      9696      9694      9692      9698      9696      9694      9692      9699
      9696      9694      9692      9700      9697      9694      9692      9698
      9697      9694      9692      9699      9697      9694      9692      9700
      9707      9705      9703      9709      9707      9705      9703      9710
      9707      9705      9703      9711      9708      9705      9703      9709
      9708      9705      9703      9710      9708      9705      9703      9711
      9718      9716      9714      9720      9718      9716      9714      9721
      9718      9716      9714      9722      9719      9716      9714      9720
      9719      9716      9714      9721      9719      9716      9714      9722
      9729      9727      9725      9731      9729      9727      9725      9732
      9729      9727      9725      9733      9730      9727      9725      9731
      9730      9727      9725      9732      9730      9727      9725      9733
      9740      9738      9736      9742      9740      9738      9736      9743
      9740      9738      9736      9744      9741      9738      9736      9742
      9741      9738      9736      9743      9741      9738      9736      9744
      9751      9749      9747      9753      9751      9749      9747      9754
      9751      9749      9747      9755      9752      9749      9747      9753
      9752      9749      9747      9754      9752      9749      9747      9755
      9762      9760      9758      9764      9762      9760      9758      9765
      9762      9760      9758      9766      9763      9760      9758      9764
      9763      9760      9758      9765      9763      9760      9758      9766
      9773      9771      9769      9775      9773      9771      9769      9776
      9773      9771      9769      9777      9774      9771      9769      9775
      9774      9771      9769      9776      9774      9771      9769      9777
      9784      9782      9780      9786      9784      9782      9780      9787
      9784      9782      9780      9788      9785      9782      9780      9786
      9785      9782      9780      9787      9785      9782      9780      9788
      9795      9793      9791      9797      9795      9793      9791      9798
      9795      9793      9791      9799      9796      9793      9791      9797
      9796      9793      9791      9798      9796      9793      9791      9799
      9806      9804      9802      9808      9806      9804      9802      9809
      9806      9804      9802      9810      9807      9804      9802      9808
      9807      9804      9802      9809      9807      9804      9802      9810
      9817      9815      9813      9819      9817      9815      9813      9820
      9817      9815      9813      9821      9818      9815      9813      9819
      9818      9815      9813      9820      9818      9815      9813      9821
      9828      9826      9824      9830      9828      9826      9824      9831
      9828      9826      9824      9832      9829      9826      9824      9830
      9829      9826      9824      9831      9829      9826      9824      9832
      9839      9837      9835      9841      9839      9837      9835      9842
      9839      9837      9835      9843      9840      9837      9835      9841
      9840      9837      9835      9842      9840      9837      9835      9843
      9850      9848      9846      9852      9850      9848      9846      9853
      9850      9848      9846      9854      9851      9848      9846      9852
      9851      9848      9846      9853      9851      9848      9846      9854
      9861      9859      9857      9863      9861      9859      9857      9864
      9861      9859      9857      9865      9862      9859      9857      9863
      9862      9859      9857      9864      9862      9859      9857      9865
      9872      9870      9868      9874      9872      9870      9868      9875
      9872      9870      9868      9876      9873      9870      9868      9874
      9873      9870      9868      9875      9873      9870      9868      9876
      9883      9881      9879      9885      9883      9881      9879      9886
      9883      9881      9879      9887      9884      9881      9879      9885
      9884      9881      9879      9886      9884      9881      9879      9887
      9894      9892      9890      9896      9894      9892      9890      9897
      9894      9892      9890      9898      9895      9892      9890      9896
      9895      9892      9890      9897      9895      9892      9890      9898
      9905      9903      9901      9907      9905      9903      9901      9908
      9905      9903      9901      9909      9906      9903      9901      9907
      9906      9903      9901      9908      9906      9903      9901      9909
      9916      9914      9912      9918      9916      9914      9912      9919
      9916      9914      9912      9920      9917      9914      9912      9918
      9917      9914      9912      9919      9917      9914      9912      9920
      9927      9925      9923      9929      9927      9925      9923      9930
      9927      9925      9923      9931      9928      9925      9923      9929
      9928      9925      9923      9930      9928      9925      9923      9931
      9938      9936      9934      9940      9938      9936      9934      9941
      9938      9936      9934      9942      9939      9936      9934      9940
      9939      9936      9934      9941      9939      9936      9934      9942
      9949      9947      9945      9951      9949      9947      9945      9952
      9949      9947      9945      9953      9950      9947      9945      9951
      9950      9947      9945      9952      9950      9947      9945      9953
      9960      9958      9956      9962      9960      9958      9956      9963
      9960      9958      9956      9964      9961      9958      9956      9962
      9961      9958      9956      9963      9961      9958      9956      9964
      9971      9969      9967      9973      9971      9969      9967      9974
      9971      9969      9967      9975      9972      9969      9967      9973
      9972      9969      9967      9974      9972      9969      9967      9975
      9982      9980      9978      9984      9982      9980      9978      9985
      9982      9980      9978      9986      9983      9980      9978      9984
      9983      9980      9978      9985      9983      9980      9978      9986
      9993      9991      9989      9995      9993      9991      9989      9996
      9993      9991      9989      9997      9994      9991      9989      9995
      9994      9991      9989      9996      9994      9991      9989      9997
     10004     10002     10000     10006     10004     10002     10000     10007
     10004     10002     10000     10008     10005     10002     10000     10006
     10005     10002     10000     10007     10005     10002     10000     10008
     10015     10013     10011     10017     10015     10013     10011     10018
     10015     10013     10011     10019     10016     10013     10011     10017
     10016     10013     10011     10018     10016     10013     10011     10019
     10026     10024     10022     10028     10026     10024     10022     10029
     10026     10024     10022     10030     10027     10024     10022     10028
     10027     10024     10022     10029     10027     10024     10022     10030
     10037     10035     10033     10039     10037     10035     10033     10040
     10037     10035     10033     10041     10038     10035     10033     10039
     10038     10035     10033     10040     10038     10035     10033     10041
     10048     10046     10044     10050     10048     10046     10044     10051
     10048     10046     10044     10052     10049     10046     10044     10050
     10049     10046     10044     10051     10049     10046     10044     10052
     10059     10057     10055     10061     10059     10057     10055     10062
     10059     10057     10055     10063     10060     10057     10055     10061
     10060     10057     10055     10062     10060     10057     10055     10063
     10070     10068     10066     10072     10070     10068     10066     10073
     10070     10068     10066     10074     10071     10068     10066     10072
     10071     10068     10066     10073     10071     10068     10066     10074
     10081     10079     10077     10083     10081     10079     10077     10084
     10081     10079     10077     10085     10082     10079     10077     10083
     10082     10079     10077     10084     10082     10079     10077     10085
     10092     10090     10088     10094     10092     10090     10088     10095
     10092     10090     10088     10096     10093     10090     10088     10094
     10093     10090     10088     10095     10093     10090     10088     10096
     10103     10101     10099     10105     10103     10101     10099     10106
     10103     10101     10099     10107     10104     10101     10099     10105
     10104     10101     10099     10106     10104     10101     10099     10107
     10114     10112     10110     10116     10114     10112     10110     10117
     10114     10112     10110     10118     10115     10112     10110     10116
     10115     10112     10110     10117     10115     10112     10110     10118
     10125     10123     10121     10127     10125     10123     10121     10128
     10125     10123     10121     10129     10126     10123     10121     10127
     10126     10123     10121     10128     10126     10123     10121     10129
     10136     10134     10132     10138     10136     10134     10132     10139
     10136     10134     10132     10140     10137     10134     10132     10138
     10137     10134     10132     10139     10137     10134     10132     10140
     10147     10145     10143     10149     10147     10145     10143     10150
     10147     10145     10143     10151     10148     10145     10143     10149
     10148     10145     10143     10150     10148     10145     10143     10151
     10158     10156     10154     10160     10158     10156     10154     10161
     10158     10156     10154     10162     10159     10156     10154     10160
     10159     10156     10154     10161     10159     10156     10154     10162
     10169     10167     10165     10171     10169     10167     10165     10172
     10169     10167     10165     10173     10170     10167     10165     10171
     10170     10167     10165     10172     10170     10167     10165     10173
     10180     10178     10176     10182     10180     10178     10176     10183
     10180     10178     10176     10184     10181     10178     10176     10182
     10181     10178     10176     10183     10181     10178     10176     10184
     10191     10189     10187     10193     10191     10189     10187     10194
     10191     10189     10187     10195     10192     10189     10187     10193
     10192     10189     10187     10194     10192     10189     10187     10195
     10202     10200     10198     10204     10202     10200     10198     10205
     10202     10200     10198     10206     10203     10200     10198     10204
     10203     10200     10198     10205     10203     10200     10198     10206
     10213     10211     10209     10215     10213     10211     10209     10216
     10213     10211     10209     10217     10214     10211     10209     10215
     10214     10211     10209     10216     10214     10211     10209     10217
     10224     10222     10220     10226     10224     10222     10220     10227
     10224     10222     10220     10228     10225     10222     10220     10226
     10225     10222     10220     10227     10225     10222     10220     10228
     10235     10233     10231     10237     10235     10233     10231     10238
     10235     10233     10231     10239     10236     10233     10231     10237
     10236     10233     10231     10238     10236     10233     10231     10239
     10246     10244     10242     10248     10246     10244     10242     10249
     10246     10244     10242     10250     10247     10244     10242     10248
     10247     10244     10242     10249     10247     10244     10242     10250
     10257     10255     10253     10259     10257     10255     10253     10260
     10257     10255     10253     10261     10258     10255     10253     10259
     10258     10255     10253     10260     10258     10255     10253     10261
     10268     10266     10264     10270     10268     10266     10264     10271
     10268     10266     10264     10272     10269     10266     10264     10270
     10269     10266     10264     10271     10269     10266     10264     10272
     10279     10277     10275     10281     10279     10277     10275     10282
     10279     10277     10275     10283     10280     10277     10275     10281
     10280     10277     10275     10282     10280     10277     10275     10283
     10290     10288     10286     10292     10290     10288     10286     10293
     10290     10288     10286     10294     10291     10288     10286     10292
     10291     10288     10286     10293     10291     10288     10286     10294
     10301     10299     10297     10303     10301     10299     10297     10304
     10301     10299     10297     10305     10302     10299     10297     10303
     10302     10299     10297     10304     10302     10299     10297     10305
     10312     10310     10308     10314     10312     10310     10308     10315
     10312     10310     10308     10316     10313     10310     10308     10314
     10313     10310     10308     10315     10313     10310     10308     10316
     10323     10321     10319     10325     10323     10321     10319     10326
     10323     10321     10319     10327     10324     10321     10319     10325
     10324     10321     10319     10326     10324     10321     10319     10327
     10334     10332     10330     10336     10334     10332     10330     10337
     10334     10332     10330     10338     10335     10332     10330     10336
     10335     10332     10330     10337     10335     10332     10330     10338
     10345     10343     10341     10347     10345     10343     10341     10348
     10345     10343     10341     10349     10346     10343     10341     10347
     10346     10343     10341     10348     10346     10343     10341     10349
     10356     10354     10352     10358     10356     10354     10352     10359
     10356     10354     10352     10360     10357     10354     10352     10358
     10357     10354     10352     10359     10357     10354     10352     10360
     10367     10365     10363     10369     10367     10365     10363     10370
     10367     10365     10363     10371     10368     10365     10363     10369
     10368     10365     10363     10370     10368     10365     10363     10371
     10378     10376     10374     10380     10378     10376     10374     10381
     10378     10376     10374     10382     10379     10376     10374     10380
     10379     10376     10374     10381     10379     10376     10374     10382
     10389     10387     10385     10391     10389     10387     10385     10392
     10389     10387     10385     10393     10390     10387     10385     10391
     10390     10387     10385     10392     10390     10387     10385     10393
     10400     10398     10396     10402     10400     10398     10396     10403
     10400     10398     10396     10404     10401     10398     10396     10402
     10401     10398     10396     10403     10401     10398     10396     10404
     10411     10409     10407     10413     10411     10409     10407     10414
     10411     10409     10407     10415     10412     10409     10407     10413
     10412     10409     10407     10414     10412     10409     10407     10415
     10422     10420     10418     10424     10422     10420     10418     10425
     10422     10420     10418     10426     10423     10420     10418     10424
     10423     10420     10418     10425     10423     10420     10418     10426
     10433     10431     10429     10435     10433     10431     10429     10436
     10433     10431     10429     10437     10434     10431     10429     10435
     10434     10431     10429     10436     10434     10431     10429     10437
     10444     10442     10440     10446     10444     10442     10440     10447
     10444     10442     10440     10448     10445     10442     10440     10446
     10445     10442     10440     10447     10445     10442     10440     10448
     10455     10453     10451     10457     10455     10453     10451     10458
     10455     10453     10451     10459     10456     10453     10451     10457
     10456     10453     10451     10458     10456     10453     10451     10459
     10466     10464     10462     10468     10466     10464     10462     10469
     10466     10464     10462     10470     10467     10464     10462     10468
     10467     10464     10462     10469     10467     10464     10462     10470
     10477     10475     10473     10479     10477     10475     10473     10480
     10477     10475     10473     10481     10478     10475     10473     10479
     10478     10475     10473     10480     10478     10475     10473     10481
     10488     10486     10484     10490     10488     10486     10484     10491
     10488     10486     10484     10492     10489     10486     10484     10490
     10489     10486     10484     10491     10489     10486     10484     10492
     10499     10497     10495     10501     10499     10497     10495     10502
     10499     10497     10495     10503     10500     10497     10495     10501
     10500     10497     10495     10502     10500     10497     10495     10503
     10510     10508     10506     10512     10510     10508     10506     10513
     10510     10508     10506     10514     10511     10508     10506     10512
     10511     10508     10506     10513     10511     10508     10506     10514
     10521     10519     10517     10523     10521     10519     10517     10524
     10521     10519     10517     10525     10522     10519     10517     10523
     10522     10519     10517     10524     10522     10519     10517     10525
     10532     10530     10528     10534     10532     10530     10528     10535
     10532     10530     10528     10536     10533     10530     10528     10534
     10533     10530     10528     10535     10533     10530     10528     10536
     10543     10541     10539     10545     10543     10541     10539     10546
     10543     10541     10539     10547     10544     10541     10539     10545
     10544     10541     10539     10546     10544     10541     10539     10547
     10554     10552     10550     10556     10554     10552     10550     10557
     10554     10552     10550     10558     10555     10552     10550     10556
     10555     10552     10550     10557     10555     10552     10550     10558
     10565     10563     10561     10567     10565     10563     10561     10568
     10565     10563     10561     10569     10566     10563     10561     10567
     10566     10563     10561     10568     10566     10563     10561     10569
     10576     10574     10572     10578     10576     10574     10572     10579
     10576     10574     10572     10580     10577     10574     10572     10578
     10577     10574     10572     10579     10577     10574     10572     10580
     10587     10585     10583     10589     10587     10585     10583     10590
     10587     10585     10583     10591     10588     10585     10583     10589
     10588     10585     10583     10590     10588     10585     10583     10591
     10598     10596     10594     10600     10598     10596     10594     10601
     10598     10596     10594     10602     10599     10596     10594     10600
     10599     10596     10594     10601     10599     10596     10594     10602
     10609     10607     10605     10611     10609     10607     10605     10612
     10609     10607     10605     10613     10610     10607     10605     10611
     10610     10607     10605     10612     10610     10607     10605     10613
     10620     10618     10616     10622     10620     10618     10616     10623
     10620     10618     10616     10624     10621     10618     10616     10622
     10621     10618     10616     10623     10621     10618     10616     10624
     10631     10629     10627     10633     10631     10629     10627     10634
     10631     10629     10627     10635     10632     10629     10627     10633
     10632     10629     10627     10634     10632     10629     10627     10635
     10642     10640     10638     10644     10642     10640     10638     10645
     10642     10640     10638     10646     10643     10640     10638     10644
     10643     10640     10638     10645     10643     10640     10638     10646
     10653     10651     10649     10655     10653     10651     10649     10656
     10653     10651     10649     10657     10654     10651     10649     10655
     10654     10651     10649     10656     10654     10651     10649     10657
     10664     10662     10660     10666     10664     10662     10660     10667
     10664     10662     10660     10668     10665     10662     10660     10666
     10665     10662     10660     10667     10665     10662     10660     10668
     10675     10673     10671     10677     10675     10673     10671     10678
     10675     10673     10671     10679     10676     10673     10671     10677
     10676     10673     10671     10678     10676     10673     10671     10679
     10686     10684     10682     10688     10686     10684     10682     10689
     10686     10684     10682     10690     10687     10684     10682     10688
     10687     10684     10682     10689     10687     10684     10682     10690
     10697     10695     10693     10699     10697     10695     10693     10700
     10697     10695     10693     10701     10698     10695     10693     10699
     10698     10695     10693     10700     10698     10695     10693     10701
     10708     10706     10704     10710     10708     10706     10704     10711
     10708     10706     10704     10712     10709     10706     10704     10710
     10709     10706     10704     10711     10709     10706     10704     10712
     10719     10717     10715     10721     10719     10717     10715     10722
     10719     10717     10715     10723     10720     10717     10715     10721
     10720     10717     10715     10722     10720     10717     10715     10723
     10730     10728     10726     10732     10730     10728     10726     10733
     10730     10728     10726     10734     10731     10728     10726     10732
     10731     10728     10726     10733     10731     10728     10726     10734
     10741     10739     10737     10743     10741     10739     10737     10744
     10741     10739     10737     10745     10742     10739     10737     10743
     10742     10739     10737     10744     10742     10739     10737     10745
     10752     10750     10748     10754     10752     10750     10748     10755
     10752     10750     10748     10756     10753     10750     10748     10754
     10753     10750     10748     10755     10753     10750     10748     10756
     10763     10761     10759     10765     10763     10761     10759     10766
     10763     10761     10759     10767     10764     10761     10759     10765
     10764     10761     10759     10766     10764     10761     10759     10767
     10774     10772     10770     10776     10774     10772     10770     10777
     10774     10772     10770     10778     10775     10772     10770     10776
     10775     10772     10770     10777     10775     10772     10770     10778
     10785     10783     10781     10787     10785     10783     10781     10788
     10785     10783     10781     10789     10786     10783     10781     10787
     10786     10783     10781     10788     10786     10783     10781     10789
     10796     10794     10792     10798     10796     10794     10792     10799
     10796     10794     10792     10800     10797     10794     10792     10798
     10797     10794     10792     10799     10797     10794     10792     10800
     10807     10805     10803     10809     10807     10805     10803     10810
     10807     10805     10803     10811     10808     10805     10803     10809
     10808     10805     10803     10810     10808     10805     10803     10811
     10818     10816     10814     10820     10818     10816     10814     10821
     10818     10816     10814     10822     10819     10816     10814     10820
     10819     10816     10814     10821     10819     10816     10814     10822
     10829     10827     10825     10831     10829     10827     10825     10832
     10829     10827     10825     10833     10830     10827     10825     10831
     10830     10827     10825     10832     10830     10827     10825     10833
     10840     10838     10836     10842     10840     10838     10836     10843
     10840     10838     10836     10844     10841     10838     10836     10842
     10841     10838     10836     10843     10841     10838     10836     10844
     10851     10849     10847     10853     10851     10849     10847     10854
     10851     10849     10847     10855     10852     10849     10847     10853
     10852     10849     10847     10854     10852     10849     10847     10855
     10862     10860     10858     10864     10862     10860     10858     10865
     10862     10860     10858     10866     10863     10860     10858     10864
     10863     10860     10858     10865     10863     10860     10858     10866
     10873     10871     10869     10875     10873     10871     10869     10876
     10873     10871     10869     10877     10874     10871     10869     10875
     10874     10871     10869     10876     10874     10871     10869     10877
     10884     10882     10880     10886     10884     10882     10880     10887
     10884     10882     10880     10888     10885     10882     10880     10886
     10885     10882     10880     10887     10885     10882     10880     10888
     10895     10893     10891     10897     10895     10893     10891     10898
     10895     10893     10891     10899     10896     10893     10891     10897
     10896     10893     10891     10898     10896     10893     10891     10899
     10906     10904     10902     10908     10906     10904     10902     10909
     10906     10904     10902     10910     10907     10904     10902     10908
     10907     10904     10902     10909     10907     10904     10902     10910
     10917     10915     10913     10919     10917     10915     10913     10920
     10917     10915     10913     10921     10918     10915     10913     10919
     10918     10915     10913     10920     10918     10915     10913     10921
     10928     10926     10924     10930     10928     10926     10924     10931
     10928     10926     10924     10932     10929     10926     10924     10930
     10929     10926     10924     10931     10929     10926     10924     10932
     10939     10937     10935     10941     10939     10937     10935     10942
     10939     10937     10935     10943     10940     10937     10935     10941
     10940     10937     10935     10942     10940     10937     10935     10943
     10950     10948     10946     10952     10950     10948     10946     10953
     10950     10948     10946     10954     10951     10948     10946     10952
     10951     10948     10946     10953     10951     10948     10946     10954
     10961     10959     10957     10963     10961     10959     10957     10964
     10961     10959     10957     10965     10962     10959     10957     10963
     10962     10959     10957     10964     10962     10959     10957     10965
     10972     10970     10968     10974     10972     10970     10968     10975
     10972     10970     10968     10976     10973     10970     10968     10974
     10973     10970     10968     10975     10973     10970     10968     10976
     10983     10981     10979     10985     10983     10981     10979     10986
     10983     10981     10979     10987     10984     10981     10979     10985
     10984     10981     10979     10986     10984     10981     10979     10987
     10994     10992     10990     10996     10994     10992     10990     10997
     10994     10992     10990     10998     10995     10992     10990     10996
     10995     10992     10990     10997     10995     10992     10990     10998
     11005     11003     11001     11007     11005     11003     11001     11008
     11005     11003     11001     11009     11006     11003     11001     11007
     11006     11003     11001     11008     11006     11003     11001     11009
     11016     11014     11012     11018     11016     11014     11012     11019
     11016     11014     11012     11020     11017     11014     11012     11018
     11017     11014     11012     11019     11017     11014     11012     11020
     11027     11025     11023     11029     11027     11025     11023     11030
     11027     11025     11023     11031     11028     11025     11023     11029
     11028     11025     11023     11030     11028     11025     11023     11031
     11038     11036     11034     11040     11038     11036     11034     11041
     11038     11036     11034     11042     11039     11036     11034     11040
     11039     11036     11034     11041     11039     11036     11034     11042
     11049     11047     11045     11051     11049     11047     11045     11052
     11049     11047     11045     11053     11050     11047     11045     11051
     11050     11047     11045     11052     11050     11047     11045     11053
     11060     11058     11056     11062     11060     11058     11056     11063
     11060     11058     11056     11064     11061     11058     11056     11062
     11061     11058     11056     11063     11061     11058     11056     11064
     11071     11069     11067     11073     11071     11069     11067     11074
     11071     11069     11067     11075     11072     11069     11067     11073
     11072     11069     11067     11074     11072     11069     11067     11075
     11082     11080     11078     11084     11082     11080     11078     11085
     11082     11080     11078     11086     11083     11080     11078     11084
     11083     11080     11078     11085     11083     11080     11078     11086
     11093     11091     11089     11095     11093     11091     11089     11096
     11093     11091     11089     11097     11094     11091     11089     11095
     11094     11091     11089     11096     11094     11091     11089     11097
     11104     11102     11100     11106     11104     11102     11100     11107
     11104     11102     11100     11108     11105     11102     11100     11106
     11105     11102     11100     11107     11105     11102     11100     11108
     11115     11113     11111     11117     11115     11113     11111     11118
     11115     11113     11111     11119     11116     11113     11111     11117
     11116     11113     11111     11118     11116     11113     11111     11119
     11126     11124     11122     11128     11126     11124     11122     11129
     11126     11124     11122     11130     11127     11124     11122     11128
     11127     11124     11122     11129     11127     11124     11122     11130
     11137     11135     11133     11139     11137     11135     11133     11140
     11137     11135     11133     11141     11138     11135     11133     11139
     11138     11135     11133     11140     11138     11135     11133     11141
     11148     11146     11144     11150     11148     11146     11144     11151
     11148     11146     11144     11152     11149     11146     11144     11150
     11149     11146     11144     11151     11149     11146     11144     11152
     11159     11157     11155     11161     11159     11157     11155     11162
     11159     11157     11155     11163     11160     11157     11155     11161
     11160     11157     11155     11162     11160     11157     11155     11163
     11170     11168     11166     11172     11170     11168     11166     11173
     11170     11168     11166     11174     11171     11168     11166     11172
     11171     11168     11166     11173     11171     11168     11166     11174
     11181     11179     11177     11183     11181     11179     11177     11184
     11181     11179     11177     11185     11182     11179     11177     11183
     11182     11179     11177     11184     11182     11179     11177     11185
     11192     11190     11188     11194     11192     11190     11188     11195
     11192     11190     11188     11196     11193     11190     11188     11194
     11193     11190     11188     11195     11193     11190     11188     11196
     11203     11201     11199     11205     11203     11201     11199     11206
     11203     11201     11199     11207     11204     11201     11199     11205
     11204     11201     11199     11206     11204     11201     11199     11207
     11214     11212     11210     11216     11214     11212     11210     11217
     11214     11212     11210     11218     11215     11212     11210     11216
     11215     11212     11210     11217     11215     11212     11210     11218
     11225     11223     11221     11227     11225     11223     11221     11228
     11225     11223     11221     11229     11226     11223     11221     11227
     11226     11223     11221     11228     11226     11223     11221     11229
     11236     11234     11232     11238     11236     11234     11232     11239
     11236     11234     11232     11240     11237     11234     11232     11238
     11237     11234     11232     11239     11237     11234     11232     11240
     11247     11245     11243     11249     11247     11245     11243     11250
     11247     11245     11243     11251     11248     11245     11243     11249
     11248     11245     11243     11250     11248     11245     11243     11251
     11258     11256     11254     11260     11258     11256     11254     11261
     11258     11256     11254     11262     11259     11256     11254     11260
     11259     11256     11254     11261     11259     11256     11254     11262
     11269     11267     11265     11271     11269     11267     11265     11272
     11269     11267     11265     11273     11270     11267     11265     11271
     11270     11267     11265     11272     11270     11267     11265     11273
     11280     11278     11276     11282     11280     11278     11276     11283
     11280     11278     11276     11284     11281     11278     11276     11282
     11281     11278     11276     11283     11281     11278     11276     11284
     11291     11289     11287     11293     11291     11289     11287     11294
     11291     11289     11287     11295     11292     11289     11287     11293
     11292     11289     11287     11294     11292     11289     11287     11295
     11302     11300     11298     11304     11302     11300     11298     11305
     11302     11300     11298     11306     11303     11300     11298     11304
     11303     11300     11298     11305     11303     11300     11298     11306
     11313     11311     11309     11315     11313     11311     11309     11316
     11313     11311     11309     11317     11314     11311     11309     11315
     11314     11311     11309     11316     11314     11311     11309     11317
     11324     11322     11320     11326     11324     11322     11320     11327
     11324     11322     11320     11328     11325     11322     11320     11326
     11325     11322     11320     11327     11325     11322     11320     11328
     11335     11333     11331     11337     11335     11333     11331     11338
     11335     11333     11331     11339     11336     11333     11331     11337
     11336     11333     11331     11338     11336     11333     11331     11339
     11346     11344     11342     11348     11346     11344     11342     11349
     11346     11344     11342     11350     11347     11344     11342     11348
     11347     11344     11342     11349     11347     11344     11342     11350
     11357     11355     11353     11359     11357     11355     11353     11360
     11357     11355     11353     11361     11358     11355     11353     11359
     11358     11355     11353     11360     11358     11355     11353     11361
     11368     11366     11364     11370     11368     11366     11364     11371
     11368     11366     11364     11372     11369     11366     11364     11370
     11369     11366     11364     11371     11369     11366     11364     11372
     11379     11377     11375     11381     11379     11377     11375     11382
     11379     11377     11375     11383     11380     11377     11375     11381
     11380     11377     11375     11382     11380     11377     11375     11383
     11390     11388     11386     11392     11390     11388     11386     11393
     11390     11388     11386     11394     11391     11388     11386     11392
     11391     11388     11386     11393     11391     11388     11386     11394
     11401     11399     11397     11403     11401     11399     11397     11404
     11401     11399     11397     11405     11402     11399     11397     11403
     11402     11399     11397     11404     11402     11399     11397     11405
     11412     11410     11408     11414     11412     11410     11408     11415
     11412     11410     11408     11416     11413     11410     11408     11414
     11413     11410     11408     11415     11413     11410     11408     11416
     11423     11421     11419     11425     11423     11421     11419     11426
     11423     11421     11419     11427     11424     11421     11419     11425
     11424     11421     11419     11426     11424     11421     11419     11427
     11434     11432     11430     11436     11434     11432     11430     11437
     11434     11432     11430     11438     11435     11432     11430     11436
     11435     11432     11430     11437     11435     11432     11430     11438
     11445     11443     11441     11447     11445     11443     11441     11448
     11445     11443     11441     11449     11446     11443     11441     11447
     11446     11443     11441     11448     11446     11443     11441     11449
     11456     11454     11452     11458     11456     11454     11452     11459
     11456     11454     11452     11460     11457     11454     11452     11458
     11457     11454     11452     11459     11457     11454     11452     11460
     11467     11465     11463     11469     11467     11465     11463     11470
     11467     11465     11463     11471     11468     11465     11463     11469
     11468     11465     11463     11470     11468     11465     11463     11471
     11478     11476     11474     11480     11478     11476     11474     11481
     11478     11476     11474     11482     11479     11476     11474     11480
     11479     11476     11474     11481     11479     11476     11474     11482
     11489     11487     11485     11491     11489     11487     11485     11492
     11489     11487     11485     11493     11490     11487     11485     11491
     11490     11487     11485     11492     11490     11487     11485     11493
     11500     11498     11496     11502     11500     11498     11496     11503
     11500     11498     11496     11504     11501     11498     11496     11502
     11501     11498     11496     11503     11501     11498     11496     11504
     11511     11509     11507     11513     11511     11509     11507     11514
     11511     11509     11507     11515     11512     11509     11507     11513
     11512     11509     11507     11514     11512     11509     11507     11515
     11522     11520     11518     11524     11522     11520     11518     11525
     11522     11520     11518     11526     11523     11520     11518     11524
     11523     11520     11518     11525     11523     11520     11518     11526
     11533     11531     11529     11535     11533     11531     11529     11536
     11533     11531     11529     11537     11534     11531     11529     11535
     11534     11531     11529     11536     11534     11531     11529     11537
     11544     11542     11540     11546     11544     11542     11540     11547
     11544     11542     11540     11548     11545     11542     11540     11546
     11545     11542     11540     11547     11545     11542     11540     11548
     11555     11553     11551     11557     11555     11553     11551     11558
     11555     11553     11551     11559     11556     11553     11551     11557
     11556     11553     11551     11558     11556     11553     11551     11559
     11566     11564     11562     11568     11566     11564     11562     11569
     11566     11564     11562     11570     11567     11564     11562     11568
     11567     11564     11562     11569     11567     11564     11562     11570
     11577     11575     11573     11579     11577     11575     11573     11580
     11577     11575     11573     11581     11578     11575     11573     11579
     11578     11575     11573     11580     11578     11575     11573     11581
     11588     11586     11584     11590     11588     11586     11584     11591
     11588     11586     11584     11592     11589     11586     11584     11590
     11589     11586     11584     11591     11589     11586     11584     11592
     11599     11597     11595     11601     11599     11597     11595     11602
     11599     11597     11595     11603     11600     11597     11595     11601
     11600     11597     11595     11602     11600     11597     11595     11603
     11610     11608     11606     11612     11610     11608     11606     11613
     11610     11608     11606     11614     11611     11608     11606     11612
     11611     11608     11606     11613     11611     11608     11606     11614
     11621     11619     11617     11623     11621     11619     11617     11624
     11621     11619     11617     11625     11622     11619     11617     11623
     11622     11619     11617     11624     11622     11619     11617     11625
     11632     11630     11628     11634     11632     11630     11628     11635
     11632     11630     11628     11636     11633     11630     11628     11634
     11633     11630     11628     11635     11633     11630     11628     11636
     11643     11641     11639     11645     11643     11641     11639     11646
     11643     11641     11639     11647     11644     11641     11639     11645
     11644     11641     11639     11646     11644     11641     11639     11647
     11654     11652     11650     11656     11654     11652     11650     11657
     11654     11652     11650     11658     11655     11652     11650     11656
     11655     11652     11650     11657     11655     11652     11650     11658
     11665     11663     11661     11667     11665     11663     11661     11668
     11665     11663     11661     11669     11666     11663     11661     11667
     11666     11663     11661     11668     11666     11663     11661     11669
     11676     11674     11672     11678     11676     11674     11672     11679
     11676     11674     11672     11680     11677     11674     11672     11678
     11677     11674     11672     11679     11677     11674     11672     11680
     11687     11685     11683     11689     11687     11685     11683     11690
     11687     11685     11683     11691     11688     11685     11683     11689
     11688     11685     11683     11690     11688     11685     11683     11691
     11698     11696     11694     11700     11698     11696     11694     11701
     11698     11696     11694     11702     11699     11696     11694     11700
     11699     11696     11694     11701     11699     11696     11694     11702
     11709     11707     11705     11711     11709     11707     11705     11712
     11709     11707     11705     11713     11710     11707     11705     11711
     11710     11707     11705     11712     11710     11707     11705     11713
     11720     11718     11716     11722     11720     11718     11716     11723
     11720     11718     11716     11724     11721     11718     11716     11722
     11721     11718     11716     11723     11721     11718     11716     11724
     11731     11729     11727     11733     11731     11729     11727     11734
     11731     11729     11727     11735     11732     11729     11727     11733
     11732     11729     11727     11734     11732     11729     11727     11735
     11742     11740     11738     11744     11742     11740     11738     11745
     11742     11740     11738     11746     11743     11740     11738     11744
     11743     11740     11738     11745     11743     11740     11738     11746
     11753     11751     11749     11755     11753     11751     11749     11756
     11753     11751     11749     11757     11754     11751     11749     11755
     11754     11751     11749     11756     11754     11751     11749     11757
     11764     11762     11760     11766     11764     11762     11760     11767
     11764     11762     11760     11768     11765     11762     11760     11766
     11765     11762     11760     11767     11765     11762     11760     11768
     11775     11773     11771     11777     11775     11773     11771     11778
     11775     11773     11771     11779     11776     11773     11771     11777
     11776     11773     11771     11778     11776     11773     11771     11779
     11786     11784     11782     11788     11786     11784     11782     11789
     11786     11784     11782     11790     11787     11784     11782     11788
     11787     11784     11782     11789     11787     11784     11782     11790
     11797     11795     11793     11799     11797     11795     11793     11800
     11797     11795     11793     11801     11798     11795     11793     11799
     11798     11795     11793     11800     11798     11795     11793     11801
     11808     11806     11804     11810     11808     11806     11804     11811
     11808     11806     11804     11812     11809     11806     11804     11810
     11809     11806     11804     11811     11809     11806     11804     11812
     11819     11817     11815     11821     11819     11817     11815     11822
     11819     11817     11815     11823     11820     11817     11815     11821
     11820     11817     11815     11822     11820     11817     11815     11823
     11830     11828     11826     11832     11830     11828     11826     11833
     11830     11828     11826     11834     11831     11828     11826     11832
     11831     11828     11826     11833     11831     11828     11826     11834
     11841     11839     11837     11843     11841     11839     11837     11844
     11841     11839     11837     11845     11842     11839     11837     11843
     11842     11839     11837     11844     11842     11839     11837     11845
     11852     11850     11848     11854     11852     11850     11848     11855
     11852     11850     11848     11856     11853     11850     11848     11854
     11853     11850     11848     11855     11853     11850     11848     11856
     11863     11861     11859     11865     11863     11861     11859     11866
     11863     11861     11859     11867     11864     11861     11859     11865
     11864     11861     11859     11866     11864     11861     11859     11867
     11874     11872     11870     11876     11874     11872     11870     11877
     11874     11872     11870     11878     11875     11872     11870     11876
     11875     11872     11870     11877     11875     11872     11870     11878
     11885     11883     11881     11887     11885     11883     11881     11888
     11885     11883     11881     11889     11886     11883     11881     11887
     11886     11883     11881     11888     11886     11883     11881     11889
     11896     11894     11892     11898     11896     11894     11892     11899
     11896     11894     11892     11900     11897     11894     11892     11898
     11897     11894     11892     11899     11897     11894     11892     11900
     11907     11905     11903     11909     11907     11905     11903     11910
     11907     11905     11903     11911     11908     11905     11903     11909
     11908     11905     11903     11910     11908     11905     11903     11911
     11918     11916     11914     11920     11918     11916     11914     11921
     11918     11916     11914     11922     11919     11916     11914     11920
     11919     11916     11914     11921     11919     11916     11914     11922
     11929     11927     11925     11931     11929     11927     11925     11932
     11929     11927     11925     11933     11930     11927     11925     11931
     11930     11927     11925     11932     11930     11927     11925     11933
     11940     11938     11936     11942     11940     11938     11936     11943
     11940     11938     11936     11944     11941     11938     11936     11942
     11941     11938     11936     11943     11941     11938     11936     11944
     11951     11949     11947     11953     11951     11949     11947     11954
     11951     11949     11947     11955     11952     11949     11947     11953
     11952     11949     11947     11954     11952     11949     11947     11955
     11962     11960     11958     11964     11962     11960     11958     11965
     11962     11960     11958     11966     11963     11960     11958     11964
     11963     11960     11958     11965     11963     11960     11958     11966
     11973     11971     11969     11975     11973     11971     11969     11976
     11973     11971     11969     11977     11974     11971     11969     11975
     11974     11971     11969     11976     11974     11971     11969     11977
     11984     11982     11980     11986     11984     11982     11980     11987
     11984     11982     11980     11988     11985     11982     11980     11986
     11985     11982     11980     11987     11985     11982     11980     11988
     11995     11993     11991     11997     11995     11993     11991     11998
     11995     11993     11991     11999     11996     11993     11991     11997
     11996     11993     11991     11998     11996     11993     11991     11999
     12006     12004     12002     12008     12006     12004     12002     12009
     12006     12004     12002     12010     12007     12004     12002     12008
     12007     12004     12002     12009     12007     12004     12002     12010
     12017     12015     12013     12019     12017     12015     12013     12020
     12017     12015     12013     12021     12018     12015     12013     12019
     12018     12015     12013     12020     12018     12015     12013     12021
     12028     12026     12024     12030     12028     12026     12024     12031
     12028     12026     12024     12032     12029     12026     12024     12030
     12029     12026     12024     12031     12029     12026     12024     12032
     12039     12037     12035     12041     12039     12037     12035     12042
     12039     12037     12035     12043     12040     12037     12035     12041
     12040     12037     12035     12042     12040     12037     12035     12043
     12050     12048     12046     12052     12050     12048     12046     12053
     12050     12048     12046     12054     12051     12048     12046     12052
     12051     12048     12046     12053     12051     12048     12046     12054
     12061     12059     12057     12063     12061     12059     12057     12064
     12061     12059     12057     12065     12062     12059     12057     12063
     12062     12059     12057     12064     12062     12059     12057     12065
     12072     12070     12068     12074     12072     12070     12068     12075
     12072     12070     12068     12076     12073     12070     12068     12074
     12073     12070     12068     12075     12073     12070     12068     12076
     12083     12081     12079     12085     12083     12081     12079     12086
     12083     12081     12079     12087     12084     12081     12079     12085
     12084     12081     12079     12086     12084     12081     12079     12087
     12094     12092     12090     12096     12094     12092     12090     12097
     12094     12092     12090     12098     12095     12092     12090     12096
     12095     12092     12090     12097     12095     12092     12090     12098
     12105     12103     12101     12107     12105     12103     12101     12108
     12105     12103     12101     12109     12106     12103     12101     12107
     12106     12103     12101     12108     12106     12103     12101     12109
     12116     12114     12112     12118     12116     12114     12112     12119
     12116     12114     12112     12120     12117     12114     12112     12118
     12117     12114     12112     12119     12117     12114     12112     12120
     12127     12125     12123     12129     12127     12125     12123     12130
     12127     12125     12123     12131     12128     12125     12123     12129
     12128     12125     12123     12130     12128     12125     12123     12131
     12138     12136     12134     12140     12138     12136     12134     12141
     12138     12136     12134     12142     12139     12136     12134     12140
     12139     12136     12134     12141     12139     12136     12134     12142
     12149     12147     12145     12151     12149     12147     12145     12152
     12149     12147     12145     12153     12150     12147     12145     12151
     12150     12147     12145     12152     12150     12147     12145     12153
     12160     12158     12156     12162     12160     12158     12156     12163
     12160     12158     12156     12164     12161     12158     12156     12162
     12161     12158     12156     12163     12161     12158     12156     12164
     12171     12169     12167     12173     12171     12169     12167     12174
     12171     12169     12167     12175     12172     12169     12167     12173
     12172     12169     12167     12174     12172     12169     12167     12175
     12182     12180     12178     12184     12182     12180     12178     12185
     12182     12180     12178     12186     12183     12180     12178     12184
     12183     12180     12178     12185     12183     12180     12178     12186
     12193     12191     12189     12195     12193     12191     12189     12196
     12193     12191     12189     12197     12194     12191     12189     12195
     12194     12191     12189     12196     12194     12191     12189     12197
     12204     12202     12200     12206     12204     12202     12200     12207
     12204     12202     12200     12208     12205     12202     12200     12206
     12205     12202     12200     12207     12205     12202     12200     12208
     12215     12213     12211     12217     12215     12213     12211     12218
     12215     12213     12211     12219     12216     12213     12211     12217
     12216     12213     12211     12218     12216     12213     12211     12219
     12226     12224     12222     12228     12226     12224     12222     12229
     12226     12224     12222     12230     12227     12224     12222     12228
     12227     12224     12222     12229     12227     12224     12222     12230
     12237     12235     12233     12239     12237     12235     12233     12240
     12237     12235     12233     12241     12238     12235     12233     12239
     12238     12235     12233     12240     12238     12235     12233     12241
     12248     12246     12244     12250     12248     12246     12244     12251
     12248     12246     12244     12252     12249     12246     12244     12250
     12249     12246     12244     12251     12249     12246     12244     12252
     12259     12257     12255     12261     12259     12257     12255     12262
     12259     12257     12255     12263     12260     12257     12255     12261
     12260     12257     12255     12262     12260     12257     12255     12263
     12270     12268     12266     12272     12270     12268     12266     12273
     12270     12268     12266     12274     12271     12268     12266     12272
     12271     12268     12266     12273     12271     12268     12266     12274
     12281     12279     12277     12283     12281     12279     12277     12284
     12281     12279     12277     12285     12282     12279     12277     12283
     12282     12279     12277     12284     12282     12279     12277     12285
     12292     12290     12288     12294     12292     12290     12288     12295
     12292     12290     12288     12296     12293     12290     12288     12294
     12293     12290     12288     12295     12293     12290     12288     12296
     12303     12301     12299     12305     12303     12301     12299     12306
     12303     12301     12299     12307     12304     12301     12299     12305
     12304     12301     12299     12306     12304     12301     12299     12307
     12314     12312     12310     12316     12314     12312     12310     12317
     12314     12312     12310     12318     12315     12312     12310     12316
     12315     12312     12310     12317     12315     12312     12310     12318
     12325     12323     12321     12327     12325     12323     12321     12328
     12325     12323     12321     12329     12326     12323     12321     12327
     12326     12323     12321     12328     12326     12323     12321     12329
     12336     12334     12332     12338     12336     12334     12332     12339
     12336     12334     12332     12340     12337     12334     12332     12338
     12337     12334     12332     12339     12337     12334     12332     12340
     12347     12345     12343     12349     12347     12345     12343     12350
     12347     12345     12343     12351     12348     12345     12343     12349
     12348     12345     12343     12350     12348     12345     12343     12351
     12358     12356     12354     12360     12358     12356     12354     12361
     12358     12356     12354     12362     12359     12356     12354     12360
     12359     12356     12354     12361     12359     12356     12354     12362
     12369     12367     12365     12371     12369     12367     12365     12372
     12369     12367     12365     12373     12370     12367     12365     12371
     12370     12367     12365     12372     12370     12367     12365     12373
     12380     12378     12376     12382     12380     12378     12376     12383
     12380     12378     12376     12384     12381     12378     12376     12382
     12381     12378     12376     12383     12381     12378     12376     12384
     12391     12389     12387     12393     12391     12389     12387     12394
     12391     12389     12387     12395     12392     12389     12387     12393
     12392     12389     12387     12394     12392     12389     12387     12395
     12402     12400     12398     12404     12402     12400     12398     12405
     12402     12400     12398     12406     12403     12400     12398     12404
     12403     12400     12398     12405     12403     12400     12398     12406
     12413     12411     12409     12415     12413     12411     12409     12416
     12413     12411     12409     12417     12414     12411     12409     12415
     12414     12411     12409     12416     12414     12411     12409     12417
     12424     12422     12420     12426     12424     12422     12420     12427
     12424     12422     12420     12428     12425     12422     12420     12426
     12425     12422     12420     12427     12425     12422     12420     12428
     12435     12433     12431     12437     12435     12433     12431     12438
     12435     12433     12431     12439     12436     12433     12431     12437
     12436     12433     12431     12438     12436     12433     12431     12439
     12446     12444     12442     12448     12446     12444     12442     12449
     12446     12444     12442     12450     12447     12444     12442     12448
     12447     12444     12442     12449     12447     12444     12442     12450
     12457     12455     12453     12459     12457     12455     12453     12460
     12457     12455     12453     12461     12458     12455     12453     12459
     12458     12455     12453     12460     12458     12455     12453     12461
     12468     12466     12464     12470     12468     12466     12464     12471
     12468     12466     12464     12472     12469     12466     12464     12470
     12469     12466     12464     12471     12469     12466     12464     12472
     12479     12477     12475     12481     12479     12477     12475     12482
     12479     12477     12475     12483     12480     12477     12475     12481
     12480     12477     12475     12482     12480     12477     12475     12483
     12490     12488     12486     12492     12490     12488     12486     12493
     12490     12488     12486     12494     12491     12488     12486     12492
     12491     12488     12486     12493     12491     12488     12486     12494
     12501     12499     12497     12503     12501     12499     12497     12504
     12501     12499     12497     12505     12502     12499     12497     12503
     12502     12499     12497     12504     12502     12499     12497     12505
     12512     12510     12508     12514     12512     12510     12508     12515
     12512     12510     12508     12516     12513     12510     12508     12514
     12513     12510     12508     12515     12513     12510     12508     12516
     12523     12521     12519     12525     12523     12521     12519     12526
     12523     12521     12519     12527     12524     12521     12519     12525
     12524     12521     12519     12526     12524     12521     12519     12527
     12534     12532     12530     12536     12534     12532     12530     12537
     12534     12532     12530     12538     12535     12532     12530     12536
     12535     12532     12530     12537     12535     12532     12530     12538
     12545     12543     12541     12547     12545     12543     12541     12548
     12545     12543     12541     12549     12546     12543     12541     12547
     12546     12543     12541     12548     12546     12543     12541     12549
     12556     12554     12552     12558     12556     12554     12552     12559
     12556     12554     12552     12560     12557     12554     12552     12558
     12557     12554     12552     12559     12557     12554     12552     12560
     12567     12565     12563     12569     12567     12565     12563     12570
     12567     12565     12563     12571     12568     12565     12563     12569
     12568     12565     12563     12570     12568     12565     12563     12571
     12578     12576     12574     12580     12578     12576     12574     12581
     12578     12576     12574     12582     12579     12576     12574     12580
     12579     12576     12574     12581     12579     12576     12574     12582
     12589     12587     12585     12591     12589     12587     12585     12592
     12589     12587     12585     12593     12590     12587     12585     12591
     12590     12587     12585     12592     12590     12587     12585     12593
     12600     12598     12596     12602     12600     12598     12596     12603
     12600     12598     12596     12604     12601     12598     12596     12602
     12601     12598     12596     12603     12601     12598     12596     12604
     12611     12609     12607     12613     12611     12609     12607     12614
     12611     12609     12607     12615     12612     12609     12607     12613
     12612     12609     12607     12614     12612     12609     12607     12615
     12622     12620     12618     12624     12622     12620     12618     12625
     12622     12620     12618     12626     12623     12620     12618     12624
     12623     12620     12618     12625     12623     12620     12618     12626
     12633     12631     12629     12635     12633     12631     12629     12636
     12633     12631     12629     12637     12634     12631     12629     12635
     12634     12631     12629     12636     12634     12631     12629     12637
     12644     12642     12640     12646     12644     12642     12640     12647
     12644     12642     12640     12648     12645     12642     12640     12646
     12645     12642     12640     12647     12645     12642     12640     12648
     12655     12653     12651     12657     12655     12653     12651     12658
     12655     12653     12651     12659     12656     12653     12651     12657
     12656     12653     12651     12658     12656     12653     12651     12659
     12666     12664     12662     12668     12666     12664     12662     12669
     12666     12664     12662     12670     12667     12664     12662     12668
     12667     12664     12662     12669     12667     12664     12662     12670
     12677     12675     12673     12679     12677     12675     12673     12680
     12677     12675     12673     12681     12678     12675     12673     12679
     12678     12675     12673     12680     12678     12675     12673     12681
     12688     12686     12684     12690     12688     12686     12684     12691
     12688     12686     12684     12692     12689     12686     12684     12690
     12689     12686     12684     12691     12689     12686     12684     12692
     12699     12697     12695     12701     12699     12697     12695     12702
     12699     12697     12695     12703     12700     12697     12695     12701
     12700     12697     12695     12702     12700     12697     12695     12703
     12710     12708     12706     12712     12710     12708     12706     12713
     12710     12708     12706     12714     12711     12708     12706     12712
     12711     12708     12706     12713     12711     12708     12706     12714
     12721     12719     12717     12723     12721     12719     12717     12724
     12721     12719     12717     12725     12722     12719     12717     12723
     12722     12719     12717     12724     12722     12719     12717     12725
     12732     12730     12728     12734     12732     12730     12728     12735
     12732     12730     12728     12736     12733     12730     12728     12734
     12733     12730     12728     12735     12733     12730     12728     12736
     12743     12741     12739     12745     12743     12741     12739     12746
     12743     12741     12739     12747     12744     12741     12739     12745
     12744     12741     12739     12746     12744     12741     12739     12747
     12754     12752     12750     12756     12754     12752     12750     12757
     12754     12752     12750     12758     12755     12752     12750     12756
     12755     12752     12750     12757     12755     12752     12750     12758
     12765     12763     12761     12767     12765     12763     12761     12768
     12765     12763     12761     12769     12766     12763     12761     12767
     12766     12763     12761     12768     12766     12763     12761     12769
     12776     12774     12772     12778     12776     12774     12772     12779
     12776     12774     12772     12780     12777     12774     12772     12778
     12777     12774     12772     12779     12777     12774     12772     12780
     12787     12785     12783     12789     12787     12785     12783     12790
     12787     12785     12783     12791     12788     12785     12783     12789
     12788     12785     12783     12790     12788     12785     12783     12791
     12798     12796     12794     12800     12798     12796     12794     12801
     12798     12796     12794     12802     12799     12796     12794     12800
     12799     12796     12794     12801     12799     12796     12794     12802
     12809     12807     12805     12811     12809     12807     12805     12812
     12809     12807     12805     12813     12810     12807     12805     12811
     12810     12807     12805     12812     12810     12807     12805     12813
     12820     12818     12816     12822     12820     12818     12816     12823
     12820     12818     12816     12824     12821     12818     12816     12822
     12821     12818     12816     12823     12821     12818     12816     12824
     12831     12829     12827     12833     12831     12829     12827     12834
     12831     12829     12827     12835     12832     12829     12827     12833
     12832     12829     12827     12834     12832     12829     12827     12835
     12842     12840     12838     12844     12842     12840     12838     12845
     12842     12840     12838     12846     12843     12840     12838     12844
     12843     12840     12838     12845     12843     12840     12838     12846
     12853     12851     12849     12855     12853     12851     12849     12856
     12853     12851     12849     12857     12854     12851     12849     12855
     12854     12851     12849     12856     12854     12851     12849     12857
     12864     12862     12860     12866     12864     12862     12860     12867
     12864     12862     12860     12868     12865     12862     12860     12866
     12865     12862     12860     12867     12865     12862     12860     12868
     12875     12873     12871     12877     12875     12873     12871     12878
     12875     12873     12871     12879     12876     12873     12871     12877
     12876     12873     12871     12878     12876     12873     12871     12879
     12886     12884     12882     12888     12886     12884     12882     12889
     12886     12884     12882     12890     12887     12884     12882     12888
     12887     12884     12882     12889     12887     12884     12882     12890
     12897     12895     12893     12899     12897     12895     12893     12900
     12897     12895     12893     12901     12898     12895     12893     12899
     12898     12895     12893     12900     12898     12895     12893     12901
     12908     12906     12904     12910     12908     12906     12904     12911
     12908     12906     12904     12912     12909     12906     12904     12910
     12909     12906     12904     12911     12909     12906     12904     12912
     12919     12917     12915     12921     12919     12917     12915     12922
     12919     12917     12915     12923     12920     12917     12915     12921
     12920     12917     12915     12922     12920     12917     12915     12923
     12930     12928     12926     12932     12930     12928     12926     12933
     12930     12928     12926     12934     12931     12928     12926     12932
     12931     12928     12926     12933     12931     12928     12926     12934
     12941     12939     12937     12943     12941     12939     12937     12944
     12941     12939     12937     12945     12942     12939     12937     12943
     12942     12939     12937     12944     12942     12939     12937     12945
     12952     12950     12948     12954     12952     12950     12948     12955
     12952     12950     12948     12956     12953     12950     12948     12954
     12953     12950     12948     12955     12953     12950     12948     12956
     12963     12961     12959     12965     12963     12961     12959     12966
     12963     12961     12959     12967     12964     12961     12959     12965
     12964     12961     12959     12966     12964     12961     12959     12967
     12974     12972     12970     12976     12974     12972     12970     12977
     12974     12972     12970     12978     12975     12972     12970     12976
     12975     12972     12970     12977     12975     12972     12970     12978
     12985     12983     12981     12987     12985     12983     12981     12988
     12985     12983     12981     12989     12986     12983     12981     12987
     12986     12983     12981     12988     12986     12983     12981     12989
     12996     12994     12992     12998     12996     12994     12992     12999
     12996     12994     12992     13000     12997     12994     12992     12998
     12997     12994     12992     12999     12997     12994     12992     13000
     13007     13005     13003     13009     13007     13005     13003     13010
     13007     13005     13003     13011     13008     13005     13003     13009
     13008     13005     13003     13010     13008     13005     13003     13011
     13018     13016     13014     13020     13018     13016     13014     13021
     13018     13016     13014     13022     13019     13016     13014     13020
     13019     13016     13014     13021     13019     13016     13014     13022
     13029     13027     13025     13031     13029     13027     13025     13032
     13029     13027     13025     13033     13030     13027     13025     13031
     13030     13027     13025     13032     13030     13027     13025     13033
     13040     13038     13036     13042     13040     13038     13036     13043
     13040     13038     13036     13044     13041     13038     13036     13042
     13041     13038     13036     13043     13041     13038     13036     13044
     13051     13049     13047     13053     13051     13049     13047     13054
     13051     13049     13047     13055     13052     13049     13047     13053
     13052     13049     13047     13054     13052     13049     13047     13055
     13062     13060     13058     13064     13062     13060     13058     13065
     13062     13060     13058     13066     13063     13060     13058     13064
     13063     13060     13058     13065     13063     13060     13058     13066
     13073     13071     13069     13075     13073     13071     13069     13076
     13073     13071     13069     13077     13074     13071     13069     13075
     13074     13071     13069     13076     13074     13071     13069     13077
     13084     13082     13080     13086     13084     13082     13080     13087
     13084     13082     13080     13088     13085     13082     13080     13086
     13085     13082     13080     13087     13085     13082     13080     13088
     13095     13093     13091     13097     13095     13093     13091     13098
     13095     13093     13091     13099     13096     13093     13091     13097
     13096     13093     13091     13098     13096     13093     13091     13099
     13106     13104     13102     13108     13106     13104     13102     13109
     13106     13104     13102     13110     13107     13104     13102     13108
     13107     13104     13102     13109     13107     13104     13102     13110
     13117     13115     13113     13119     13117     13115     13113     13120
     13117     13115     13113     13121     13118     13115     13113     13119
     13118     13115     13113     13120     13118     13115     13113     13121
     13128     13126     13124     13130     13128     13126     13124     13131
     13128     13126     13124     13132     13129     13126     13124     13130
     13129     13126     13124     13131     13129     13126     13124     13132
     13139     13137     13135     13141     13139     13137     13135     13142
     13139     13137     13135     13143     13140     13137     13135     13141
     13140     13137     13135     13142     13140     13137     13135     13143
     13150     13148     13146     13152     13150     13148     13146     13153
     13150     13148     13146     13154     13151     13148     13146     13152
     13151     13148     13146     13153     13151     13148     13146     13154
     13161     13159     13157     13163     13161     13159     13157     13164
     13161     13159     13157     13165     13162     13159     13157     13163
     13162     13159     13157     13164     13162     13159     13157     13165
     13172     13170     13168     13174     13172     13170     13168     13175
     13172     13170     13168     13176     13173     13170     13168     13174
     13173     13170     13168     13175     13173     13170     13168     13176
     13183     13181     13179     13185     13183     13181     13179     13186
     13183     13181     13179     13187     13184     13181     13179     13185
     13184     13181     13179     13186     13184     13181     13179     13187
     13194     13192     13190     13196     13194     13192     13190     13197
     13194     13192     13190     13198     13195     13192     13190     13196
     13195     13192     13190     13197     13195     13192     13190     13198
     13205     13203     13201     13207     13205     13203     13201     13208
     13205     13203     13201     13209     13206     13203     13201     13207
     13206     13203     13201     13208     13206     13203     13201     13209
     13216     13214     13212     13218     13216     13214     13212     13219
     13216     13214     13212     13220     13217     13214     13212     13218
     13217     13214     13212     13219     13217     13214     13212     13220
     13227     13225     13223     13229     13227     13225     13223     13230
     13227     13225     13223     13231     13228     13225     13223     13229
     13228     13225     13223     13230     13228     13225     13223     13231
     13238     13236     13234     13240     13238     13236     13234     13241
     13238     13236     13234     13242     13239     13236     13234     13240
     13239     13236     13234     13241     13239     13236     13234     13242
     13249     13247     13245     13251     13249     13247     13245     13252
     13249     13247     13245     13253     13250     13247     13245     13251
     13250     13247     13245     13252     13250     13247     13245     13253
     13260     13258     13256     13262     13260     13258     13256     13263
     13260     13258     13256     13264     13261     13258     13256     13262
     13261     13258     13256     13263     13261     13258     13256     13264
     13271     13269     13267     13273     13271     13269     13267     13274
     13271     13269     13267     13275     13272     13269     13267     13273
     13272     13269     13267     13274     13272     13269     13267     13275
     13282     13280     13278     13284     13282     13280     13278     13285
     13282     13280     13278     13286     13283     13280     13278     13284
     13283     13280     13278     13285     13283     13280     13278     13286
     13293     13291     13289     13295     13293     13291     13289     13296
     13293     13291     13289     13297     13294     13291     13289     13295
     13294     13291     13289     13296     13294     13291     13289     13297
     13304     13302     13300     13306     13304     13302     13300     13307
     13304     13302     13300     13308     13305     13302     13300     13306
     13305     13302     13300     13307     13305     13302     13300     13308
     13315     13313     13311     13317     13315     13313     13311     13318
     13315     13313     13311     13319     13316     13313     13311     13317
     13316     13313     13311     13318     13316     13313     13311     13319
     13326     13324     13322     13328     13326     13324     13322     13329
     13326     13324     13322     13330     13327     13324     13322     13328
     13327     13324     13322     13329     13327     13324     13322     13330
     13337     13335     13333     13339     13337     13335     13333     13340
     13337     13335     13333     13341     13338     13335     13333     13339
     13338     13335     13333     13340     13338     13335     13333     13341
     13348     13346     13344     13350     13348     13346     13344     13351
     13348     13346     13344     13352     13349     13346     13344     13350
     13349     13346     13344     13351     13349     13346     13344     13352
     13359     13357     13355     13361     13359     13357     13355     13362
     13359     13357     13355     13363     13360     13357     13355     13361
     13360     13357     13355     13362     13360     13357     13355     13363
     13370     13368     13366     13372     13370     13368     13366     13373
     13370     13368     13366     13374     13371     13368     13366     13372
     13371     13368     13366     13373     13371     13368     13366     13374
     13381     13379     13377     13383     13381     13379     13377     13384
     13381     13379     13377     13385     13382     13379     13377     13383
     13382     13379     13377     13384     13382     13379     13377     13385
     13392     13390     13388     13394     13392     13390     13388     13395
     13392     13390     13388     13396     13393     13390     13388     13394
     13393     13390     13388     13395     13393     13390     13388     13396
     13403     13401     13399     13405     13403     13401     13399     13406
     13403     13401     13399     13407     13404     13401     13399     13405
     13404     13401     13399     13406     13404     13401     13399     13407
     13414     13412     13410     13416     13414     13412     13410     13417
     13414     13412     13410     13418     13415     13412     13410     13416
     13415     13412     13410     13417     13415     13412     13410     13418
     13425     13423     13421     13427     13425     13423     13421     13428
     13425     13423     13421     13429     13426     13423     13421     13427
     13426     13423     13421     13428     13426     13423     13421     13429
     13436     13434     13432     13438     13436     13434     13432     13439
     13436     13434     13432     13440     13437     13434     13432     13438
     13437     13434     13432     13439     13437     13434     13432     13440
     13447     13445     13443     13449     13447     13445     13443     13450
     13447     13445     13443     13451     13448     13445     13443     13449
     13448     13445     13443     13450     13448     13445     13443     13451
     13458     13456     13454     13460     13458     13456     13454     13461
     13458     13456     13454     13462     13459     13456     13454     13460
     13459     13456     13454     13461     13459     13456     13454     13462
     13469     13467     13465     13471     13469     13467     13465     13472
     13469     13467     13465     13473     13470     13467     13465     13471
     13470     13467     13465     13472     13470     13467     13465     13473
     13480     13478     13476     13482     13480     13478     13476     13483
     13480     13478     13476     13484     13481     13478     13476     13482
     13481     13478     13476     13483     13481     13478     13476     13484
     13491     13489     13487     13493     13491     13489     13487     13494
     13491     13489     13487     13495     13492     13489     13487     13493
     13492     13489     13487     13494     13492     13489     13487     13495
     13502     13500     13498     13504     13502     13500     13498     13505
     13502     13500     13498     13506     13503     13500     13498     13504
     13503     13500     13498     13505     13503     13500     13498     13506
     13513     13511     13509     13515     13513     13511     13509     13516
     13513     13511     13509     13517     13514     13511     13509     13515
     13514     13511     13509     13516     13514     13511     13509     13517
     13524     13522     13520     13526     13524     13522     13520     13527
     13524     13522     13520     13528     13525     13522     13520     13526
     13525     13522     13520     13527     13525     13522     13520     13528
     13535     13533     13531     13537     13535     13533     13531     13538
     13535     13533     13531     13539     13536     13533     13531     13537
     13536     13533     13531     13538     13536     13533     13531     13539
     13546     13544     13542     13548     13546     13544     13542     13549
     13546     13544     13542     13550     13547     13544     13542     13548
     13547     13544     13542     13549     13547     13544     13542     13550
     13557     13555     13553     13559     13557     13555     13553     13560
     13557     13555     13553     13561     13558     13555     13553     13559
     13558     13555     13553     13560     13558     13555     13553     13561
     13568     13566     13564     13570     13568     13566     13564     13571
     13568     13566     13564     13572     13569     13566     13564     13570
     13569     13566     13564     13571     13569     13566     13564     13572
     13579     13577     13575     13581     13579     13577     13575     13582
     13579     13577     13575     13583     13580     13577     13575     13581
     13580     13577     13575     13582     13580     13577     13575     13583
     13590     13588     13586     13592     13590     13588     13586     13593
     13590     13588     13586     13594     13591     13588     13586     13592
     13591     13588     13586     13593     13591     13588     13586     13594
     13601     13599     13597     13603     13601     13599     13597     13604
     13601     13599     13597     13605     13602     13599     13597     13603
     13602     13599     13597     13604     13602     13599     13597     13605
     13612     13610     13608     13614     13612     13610     13608     13615
     13612     13610     13608     13616     13613     13610     13608     13614
     13613     13610     13608     13615     13613     13610     13608     13616
     13623     13621     13619     13625     13623     13621     13619     13626
     13623     13621     13619     13627     13624     13621     13619     13625
     13624     13621     13619     13626     13624     13621     13619     13627
     13634     13632     13630     13636     13634     13632     13630     13637
     13634     13632     13630     13638     13635     13632     13630     13636
     13635     13632     13630     13637     13635     13632     13630     13638
     13645     13643     13641     13647     13645     13643     13641     13648
     13645     13643     13641     13649     13646     13643     13641     13647
     13646     13643     13641     13648     13646     13643     13641     13649
     13656     13654     13652     13658     13656     13654     13652     13659
     13656     13654     13652     13660     13657     13654     13652     13658
     13657     13654     13652     13659     13657     13654     13652     13660
     13667     13665     13663     13669     13667     13665     13663     13670
     13667     13665     13663     13671     13668     13665     13663     13669
     13668     13665     13663     13670     13668     13665     13663     13671
     13678     13676     13674     13680     13678     13676     13674     13681
     13678     13676     13674     13682     13679     13676     13674     13680
     13679     13676     13674     13681     13679     13676     13674     13682
     13689     13687     13685     13691     13689     13687     13685     13692
     13689     13687     13685     13693     13690     13687     13685     13691
     13690     13687     13685     13692     13690     13687     13685     13693
     13700     13698     13696     13702     13700     13698     13696     13703
     13700     13698     13696     13704     13701     13698     13696     13702
     13701     13698     13696     13703     13701     13698     13696     13704
     13711     13709     13707     13713     13711     13709     13707     13714
     13711     13709     13707     13715     13712     13709     13707     13713
     13712     13709     13707     13714     13712     13709     13707     13715
     13722     13720     13718     13724     13722     13720     13718     13725
     13722     13720     13718     13726     13723     13720     13718     13724
     13723     13720     13718     13725     13723     13720     13718     13726
     13733     13731     13729     13735     13733     13731     13729     13736
     13733     13731     13729     13737     13734     13731     13729     13735
     13734     13731     13729     13736     13734     13731     13729     13737
     13744     13742     13740     13746     13744     13742     13740     13747
     13744     13742     13740     13748     13745     13742     13740     13746
     13745     13742     13740     13747     13745     13742     13740     13748
     13755     13753     13751     13757     13755     13753     13751     13758
     13755     13753     13751     13759     13756     13753     13751     13757
     13756     13753     13751     13758     13756     13753     13751     13759
     13766     13764     13762     13768     13766     13764     13762     13769
     13766     13764     13762     13770     13767     13764     13762     13768
     13767     13764     13762     13769     13767     13764     13762     13770
     13777     13775     13773     13779     13777     13775     13773     13780
     13777     13775     13773     13781     13778     13775     13773     13779
     13778     13775     13773     13780     13778     13775     13773     13781
     13788     13786     13784     13790     13788     13786     13784     13791
     13788     13786     13784     13792     13789     13786     13784     13790
     13789     13786     13784     13791     13789     13786     13784     13792
     13799     13797     13795     13801     13799     13797     13795     13802
     13799     13797     13795     13803     13800     13797     13795     13801
     13800     13797     13795     13802     13800     13797     13795     13803
     13810     13808     13806     13812     13810     13808     13806     13813
     13810     13808     13806     13814     13811     13808     13806     13812
     13811     13808     13806     13813     13811     13808     13806     13814
     13821     13819     13817     13823     13821     13819     13817     13824
     13821     13819     13817     13825     13822     13819     13817     13823
     13822     13819     13817     13824     13822     13819     13817     13825
     13832     13830     13828     13834     13832     13830     13828     13835
     13832     13830     13828     13836     13833     13830     13828     13834
     13833     13830     13828     13835     13833     13830     13828     13836
     13843     13841     13839     13845     13843     13841     13839     13846
     13843     13841     13839     13847     13844     13841     13839     13845
     13844     13841     13839     13846     13844     13841     13839     13847
     13854     13852     13850     13856     13854     13852     13850     13857
     13854     13852     13850     13858     13855     13852     13850     13856
     13855     13852     13850     13857     13855     13852     13850     13858
     13865     13863     13861     13867     13865     13863     13861     13868
     13865     13863     13861     13869     13866     13863     13861     13867
     13866     13863     13861     13868     13866     13863     13861     13869
     13876     13874     13872     13878     13876     13874     13872     13879
     13876     13874     13872     13880     13877     13874     13872     13878
     13877     13874     13872     13879     13877     13874     13872     13880
     13887     13885     13883     13889     13887     13885     13883     13890
     13887     13885     13883     13891     13888     13885     13883     13889
     13888     13885     13883     13890     13888     13885     13883     13891
     13898     13896     13894     13900     13898     13896     13894     13901
     13898     13896     13894     13902     13899     13896     13894     13900
     13899     13896     13894     13901     13899     13896     13894     13902
     13909     13907     13905     13911     13909     13907     13905     13912
     13909     13907     13905     13913     13910     13907     13905     13911
     13910     13907     13905     13912     13910     13907     13905     13913
     13920     13918     13916     13922     13920     13918     13916     13923
     13920     13918     13916     13924     13921     13918     13916     13922
     13921     13918     13916     13923     13921     13918     13916     13924
     13931     13929     13927     13933     13931     13929     13927     13934
     13931     13929     13927     13935     13932     13929     13927     13933
     13932     13929     13927     13934     13932     13929     13927     13935
     13942     13940     13938     13944     13942     13940     13938     13945
     13942     13940     13938     13946     13943     13940     13938     13944
     13943     13940     13938     13945     13943     13940     13938     13946
     13953     13951     13949     13955     13953     13951     13949     13956
     13953     13951     13949     13957     13954     13951     13949     13955
     13954     13951     13949     13956     13954     13951     13949     13957
     13964     13962     13960     13966     13964     13962     13960     13967
     13964     13962     13960     13968     13965     13962     13960     13966
     13965     13962     13960     13967     13965     13962     13960     13968
     13975     13973     13971     13977     13975     13973     13971     13978
     13975     13973     13971     13979     13976     13973     13971     13977
     13976     13973     13971     13978     13976     13973     13971     13979
     13986     13984     13982     13988     13986     13984     13982     13989
     13986     13984     13982     13990     13987     13984     13982     13988
     13987     13984     13982     13989     13987     13984     13982     13990
     13997     13995     13993     13999     13997     13995     13993     14000
     13997     13995     13993     14001     13998     13995     13993     13999
     13998     13995     13993     14000     13998     13995     13993     14001
     14008     14006     14004     14010     14008     14006     14004     14011
     14008     14006     14004     14012     14009     14006     14004     14010
     14009     14006     14004     14011     14009     14006     14004     14012
     14019     14017     14015     14021     14019     14017     14015     14022
     14019     14017     14015     14023     14020     14017     14015     14021
     14020     14017     14015     14022     14020     14017     14015     14023
     14030     14028     14026     14032     14030     14028     14026     14033
     14030     14028     14026     14034     14031     14028     14026     14032
     14031     14028     14026     14033     14031     14028     14026     14034
     14041     14039     14037     14043     14041     14039     14037     14044
     14041     14039     14037     14045     14042     14039     14037     14043
     14042     14039     14037     14044     14042     14039     14037     14045
     14052     14050     14048     14054     14052     14050     14048     14055
     14052     14050     14048     14056     14053     14050     14048     14054
     14053     14050     14048     14055     14053     14050     14048     14056
     14063     14061     14059     14065     14063     14061     14059     14066
     14063     14061     14059     14067     14064     14061     14059     14065
     14064     14061     14059     14066     14064     14061     14059     14067
     14074     14072     14070     14076     14074     14072     14070     14077
     14074     14072     14070     14078     14075     14072     14070     14076
     14075     14072     14070     14077     14075     14072     14070     14078
     14085     14083     14081     14087     14085     14083     14081     14088
     14085     14083     14081     14089     14086     14083     14081     14087
     14086     14083     14081     14088     14086     14083     14081     14089
     14096     14094     14092     14098     14096     14094     14092     14099
     14096     14094     14092     14100     14097     14094     14092     14098
     14097     14094     14092     14099     14097     14094     14092     14100
     14107     14105     14103     14109     14107     14105     14103     14110
     14107     14105     14103     14111     14108     14105     14103     14109
     14108     14105     14103     14110     14108     14105     14103     14111
     14118     14116     14114     14120     14118     14116     14114     14121
     14118     14116     14114     14122     14119     14116     14114     14120
     14119     14116     14114     14121     14119     14116     14114     14122
     14129     14127     14125     14131     14129     14127     14125     14132
     14129     14127     14125     14133     14130     14127     14125     14131
     14130     14127     14125     14132     14130     14127     14125     14133
     14140     14138     14136     14142     14140     14138     14136     14143
     14140     14138     14136     14144     14141     14138     14136     14142
     14141     14138     14136     14143     14141     14138     14136     14144
     14151     14149     14147     14153     14151     14149     14147     14154
     14151     14149     14147     14155     14152     14149     14147     14153
     14152     14149     14147     14154     14152     14149     14147     14155
     14162     14160     14158     14164     14162     14160     14158     14165
     14162     14160     14158     14166     14163     14160     14158     14164
     14163     14160     14158     14165     14163     14160     14158     14166
     14173     14171     14169     14175     14173     14171     14169     14176
     14173     14171     14169     14177     14174     14171     14169     14175
     14174     14171     14169     14176     14174     14171     14169     14177
     14184     14182     14180     14186     14184     14182     14180     14187
     14184     14182     14180     14188     14185     14182     14180     14186
     14185     14182     14180     14187     14185     14182     14180     14188
     14195     14193     14191     14197     14195     14193     14191     14198
     14195     14193     14191     14199     14196     14193     14191     14197
     14196     14193     14191     14198     14196     14193     14191     14199
     14206     14204     14202     14208     14206     14204     14202     14209
     14206     14204     14202     14210     14207     14204     14202     14208
     14207     14204     14202     14209     14207     14204     14202     14210
     14217     14215     14213     14219     14217     14215     14213     14220
     14217     14215     14213     14221     14218     14215     14213     14219
     14218     14215     14213     14220     14218     14215     14213     14221
     14228     14226     14224     14230     14228     14226     14224     14231
     14228     14226     14224     14232     14229     14226     14224     14230
     14229     14226     14224     14231     14229     14226     14224     14232
     14239     14237     14235     14241     14239     14237     14235     14242
     14239     14237     14235     14243     14240     14237     14235     14241
     14240     14237     14235     14242     14240     14237     14235     14243
     14250     14248     14246     14252     14250     14248     14246     14253
     14250     14248     14246     14254     14251     14248     14246     14252
     14251     14248     14246     14253     14251     14248     14246     14254
     14261     14259     14257     14263     14261     14259     14257     14264
     14261     14259     14257     14265     14262     14259     14257     14263
     14262     14259     14257     14264     14262     14259     14257     14265
     14272     14270     14268     14274     14272     14270     14268     14275
     14272     14270     14268     14276     14273     14270     14268     14274
     14273     14270     14268     14275     14273     14270     14268     14276
     14283     14281     14279     14285     14283     14281     14279     14286
     14283     14281     14279     14287     14284     14281     14279     14285
     14284     14281     14279     14286     14284     14281     14279     14287
     14294     14292     14290     14296     14294     14292     14290     14297
     14294     14292     14290     14298     14295     14292     14290     14296
     14295     14292     14290     14297     14295     14292     14290     14298
     14305     14303     14301     14307     14305     14303     14301     14308
     14305     14303     14301     14309     14306     14303     14301     14307
     14306     14303     14301     14308     14306     14303     14301     14309
     14316     14314     14312     14318     14316     14314     14312     14319
     14316     14314     14312     14320     14317     14314     14312     14318
     14317     14314     14312     14319     14317     14314     14312     14320
     14327     14325     14323     14329     14327     14325     14323     14330
     14327     14325     14323     14331     14328     14325     14323     14329
     14328     14325     14323     14330     14328     14325     14323     14331
     14338     14336     14334     14340     14338     14336     14334     14341
     14338     14336     14334     14342     14339     14336     14334     14340
     14339     14336     14334     14341     14339     14336     14334     14342
     14349     14347     14345     14351     14349     14347     14345     14352
     14349     14347     14345     14353     14350     14347     14345     14351
     14350     14347     14345     14352     14350     14347     14345     14353
     14360     14358     14356     14362     14360     14358     14356     14363
     14360     14358     14356     14364     14361     14358     14356     14362
     14361     14358     14356     14363     14361     14358     14356     14364
     14371     14369     14367     14373     14371     14369     14367     14374
     14371     14369     14367     14375     14372     14369     14367     14373
     14372     14369     14367     14374     14372     14369     14367     14375
     14382     14380     14378     14384     14382     14380     14378     14385
     14382     14380     14378     14386     14383     14380     14378     14384
     14383     14380     14378     14385     14383     14380     14378     14386
     14393     14391     14389     14395     14393     14391     14389     14396
     14393     14391     14389     14397     14394     14391     14389     14395
     14394     14391     14389     14396     14394     14391     14389     14397
     14404     14402     14400     14406     14404     14402     14400     14407
     14404     14402     14400     14408     14405     14402     14400     14406
     14405     14402     14400     14407     14405     14402     14400     14408
     14415     14413     14411     14417     14415     14413     14411     14418
     14415     14413     14411     14419     14416     14413     14411     14417
     14416     14413     14411     14418     14416     14413     14411     14419
     14426     14424     14422     14428     14426     14424     14422     14429
     14426     14424     14422     14430     14427     14424     14422     14428
     14427     14424     14422     14429     14427     14424     14422     14430
     14437     14435     14433     14439     14437     14435     14433     14440
     14437     14435     14433     14441     14438     14435     14433     14439
     14438     14435     14433     14440     14438     14435     14433     14441
     14448     14446     14444     14450     14448     14446     14444     14451
     14448     14446     14444     14452     14449     14446     14444     14450
     14449     14446     14444     14451     14449     14446     14444     14452
     14459     14457     14455     14461     14459     14457     14455     14462
     14459     14457     14455     14463     14460     14457     14455     14461
     14460     14457     14455     14462     14460     14457     14455     14463
     14470     14468     14466     14472     14470     14468     14466     14473
     14470     14468     14466     14474     14471     14468     14466     14472
     14471     14468     14466     14473     14471     14468     14466     14474
     14481     14479     14477     14483     14481     14479     14477     14484
     14481     14479     14477     14485     14482     14479     14477     14483
     14482     14479     14477     14484     14482     14479     14477     14485
     14492     14490     14488     14494     14492     14490     14488     14495
     14492     14490     14488     14496     14493     14490     14488     14494
     14493     14490     14488     14495     14493     14490     14488     14496
     14503     14501     14499     14505     14503     14501     14499     14506
     14503     14501     14499     14507     14504     14501     14499     14505
     14504     14501     14499     14506     14504     14501     14499     14507
     14514     14512     14510     14516     14514     14512     14510     14517
     14514     14512     14510     14518     14515     14512     14510     14516
     14515     14512     14510     14517     14515     14512     14510     14518
     14525     14523     14521     14527     14525     14523     14521     14528
     14525     14523     14521     14529     14526     14523     14521     14527
     14526     14523     14521     14528     14526     14523     14521     14529
     14536     14534     14532     14538     14536     14534     14532     14539
     14536     14534     14532     14540     14537     14534     14532     14538
     14537     14534     14532     14539     14537     14534     14532     14540
     14547     14545     14543     14549     14547     14545     14543     14550
     14547     14545     14543     14551     14548     14545     14543     14549
     14548     14545     14543     14550     14548     14545     14543     14551
     14558     14556     14554     14560     14558     14556     14554     14561
     14558     14556     14554     14562     14559     14556     14554     14560
     14559     14556     14554     14561     14559     14556     14554     14562
     14569     14567     14565     14571     14569     14567     14565     14572
     14569     14567     14565     14573     14570     14567     14565     14571
     14570     14567     14565     14572     14570     14567     14565     14573
     14580     14578     14576     14582     14580     14578     14576     14583
     14580     14578     14576     14584     14581     14578     14576     14582
     14581     14578     14576     14583     14581     14578     14576     14584
     14591     14589     14587     14593     14591     14589     14587     14594
     14591     14589     14587     14595     14592     14589     14587     14593
     14592     14589     14587     14594     14592     14589     14587     14595
     14602     14600     14598     14604     14602     14600     14598     14605
     14602     14600     14598     14606     14603     14600     14598     14604
     14603     14600     14598     14605     14603     14600     14598     14606
     14613     14611     14609     14615     14613     14611     14609     14616
     14613     14611     14609     14617     14614     14611     14609     14615
     14614     14611     14609     14616     14614     14611     14609     14617
     14624     14622     14620     14626     14624     14622     14620     14627
     14624     14622     14620     14628     14625     14622     14620     14626
     14625     14622     14620     14627     14625     14622     14620     14628
     14635     14633     14631     14637     14635     14633     14631     14638
     14635     14633     14631     14639     14636     14633     14631     14637
     14636     14633     14631     14638     14636     14633     14631     14639
     14646     14644     14642     14648     14646     14644     14642     14649
     14646     14644     14642     14650     14647     14644     14642     14648
     14647     14644     14642     14649     14647     14644     14642     14650
     14657     14655     14653     14659     14657     14655     14653     14660
     14657     14655     14653     14661     14658     14655     14653     14659
     14658     14655     14653     14660     14658     14655     14653     14661
     14668     14666     14664     14670     14668     14666     14664     14671
     14668     14666     14664     14672     14669     14666     14664     14670
     14669     14666     14664     14671     14669     14666     14664     14672
     14679     14677     14675     14681     14679     14677     14675     14682
     14679     14677     14675     14683     14680     14677     14675     14681
     14680     14677     14675     14682     14680     14677     14675     14683
     14690     14688     14686     14692     14690     14688     14686     14693
     14690     14688     14686     14694     14691     14688     14686     14692
     14691     14688     14686     14693     14691     14688     14686     14694
     14701     14699     14697     14703     14701     14699     14697     14704
     14701     14699     14697     14705     14702     14699     14697     14703
     14702     14699     14697     14704     14702     14699     14697     14705
     14712     14710     14708     14714     14712     14710     14708     14715
     14712     14710     14708     14716     14713     14710     14708     14714
     14713     14710     14708     14715     14713     14710     14708     14716
     14723     14721     14719     14725     14723     14721     14719     14726
     14723     14721     14719     14727     14724     14721     14719     14725
     14724     14721     14719     14726     14724     14721     14719     14727
     14734     14732     14730     14736     14734     14732     14730     14737
     14734     14732     14730     14738     14735     14732     14730     14736
     14735     14732     14730     14737     14735     14732     14730     14738
     14745     14743     14741     14747     14745     14743     14741     14748
     14745     14743     14741     14749     14746     14743     14741     14747
     14746     14743     14741     14748     14746     14743     14741     14749
     14756     14754     14752     14758     14756     14754     14752     14759
     14756     14754     14752     14760     14757     14754     14752     14758
     14757     14754     14752     14759     14757     14754     14752     14760
     14767     14765     14763     14769     14767     14765     14763     14770
     14767     14765     14763     14771     14768     14765     14763     14769
     14768     14765     14763     14770     14768     14765     14763     14771
     14778     14776     14774     14780     14778     14776     14774     14781
     14778     14776     14774     14782     14779     14776     14774     14780
     14779     14776     14774     14781     14779     14776     14774     14782
     14789     14787     14785     14791     14789     14787     14785     14792
     14789     14787     14785     14793     14790     14787     14785     14791
     14790     14787     14785     14792     14790     14787     14785     14793
     14800     14798     14796     14802     14800     14798     14796     14803
     14800     14798     14796     14804     14801     14798     14796     14802
     14801     14798     14796     14803     14801     14798     14796     14804
     14811     14809     14807     14813     14811     14809     14807     14814
     14811     14809     14807     14815     14812     14809     14807     14813
     14812     14809     14807     14814     14812     14809     14807     14815
     14822     14820     14818     14824     14822     14820     14818     14825
     14822     14820     14818     14826     14823     14820     14818     14824
     14823     14820     14818     14825     14823     14820     14818     14826
     14833     14831     14829     14835     14833     14831     14829     14836
     14833     14831     14829     14837     14834     14831     14829     14835
     14834     14831     14829     14836     14834     14831     14829     14837
     14844     14842     14840     14846     14844     14842     14840     14847
     14844     14842     14840     14848     14845     14842     14840     14846
     14845     14842     14840     14847     14845     14842     14840     14848
     14855     14853     14851     14857     14855     14853     14851     14858
     14855     14853     14851     14859     14856     14853     14851     14857
     14856     14853     14851     14858     14856     14853     14851     14859
     14866     14864     14862     14868     14866     14864     14862     14869
     14866     14864     14862     14870     14867     14864     14862     14868
     14867     14864     14862     14869     14867     14864     14862     14870
     14877     14875     14873     14879     14877     14875     14873     14880
     14877     14875     14873     14881     14878     14875     14873     14879
     14878     14875     14873     14880     14878     14875     14873     14881
     14888     14886     14884     14890     14888     14886     14884     14891
     14888     14886     14884     14892     14889     14886     14884     14890
     14889     14886     14884     14891     14889     14886     14884     14892
     14899     14897     14895     14901     14899     14897     14895     14902
     14899     14897     14895     14903     14900     14897     14895     14901
     14900     14897     14895     14902     14900     14897     14895     14903
     14910     14908     14906     14912     14910     14908     14906     14913
     14910     14908     14906     14914     14911     14908     14906     14912
     14911     14908     14906     14913     14911     14908     14906     14914
     14921     14919     14917     14923     14921     14919     14917     14924
     14921     14919     14917     14925     14922     14919     14917     14923
     14922     14919     14917     14924     14922     14919     14917     14925
     14932     14930     14928     14934     14932     14930     14928     14935
     14932     14930     14928     14936     14933     14930     14928     14934
     14933     14930     14928     14935     14933     14930     14928     14936
     14943     14941     14939     14945     14943     14941     14939     14946
     14943     14941     14939     14947     14944     14941     14939     14945
     14944     14941     14939     14946     14944     14941     14939     14947
     14954     14952     14950     14956     14954     14952     14950     14957
     14954     14952     14950     14958     14955     14952     14950     14956
     14955     14952     14950     14957     14955     14952     14950     14958
     14965     14963     14961     14967     14965     14963     14961     14968
     14965     14963     14961     14969     14966     14963     14961     14967
     14966     14963     14961     14968     14966     14963     14961     14969
     14976     14974     14972     14978     14976     14974     14972     14979
     14976     14974     14972     14980     14977     14974     14972     14978
     14977     14974     14972     14979     14977     14974     14972     14980
     14987     14985     14983     14989     14987     14985     14983     14990
     14987     14985     14983     14991     14988     14985     14983     14989
     14988     14985     14983     14990     14988     14985     14983     14991
     14998     14996     14994     15000     14998     14996     14994     15001
     14998     14996     14994     15002     14999     14996     14994     15000
     14999     14996     14994     15001     14999     14996     14994     15002
     15009     15007     15005     15011     15009     15007     15005     15012
     15009     15007     15005     15013     15010     15007     15005     15011
     15010     15007     15005     15012     15010     15007     15005     15013
     15020     15018     15016     15022     15020     15018     15016     15023
     15020     15018     15016     15024     15021     15018     15016     15022
     15021     15018     15016     15023     15021     15018     15016     15024
     15031     15029     15027     15033     15031     15029     15027     15034
     15031     15029     15027     15035     15032     15029     15027     15033
     15032     15029     15027     15034     15032     15029     15027     15035
     15042     15040     15038     15044     15042     15040     15038     15045
     15042     15040     15038     15046     15043     15040     15038     15044
     15043     15040     15038     15045     15043     15040     15038     15046
     15053     15051     15049     15055     15053     15051     15049     15056
     15053     15051     15049     15057     15054     15051     15049     15055
     15054     15051     15049     15056     15054     15051     15049     15057
     15064     15062     15060     15066     15064     15062     15060     15067
     15064     15062     15060     15068     15065     15062     15060     15066
     15065     15062     15060     15067     15065     15062     15060     15068
     15075     15073     15071     15077     15075     15073     15071     15078
     15075     15073     15071     15079     15076     15073     15071     15077
     15076     15073     15071     15078     15076     15073     15071     15079
     15086     15084     15082     15088     15086     15084     15082     15089
     15086     15084     15082     15090     15087     15084     15082     15088
     15087     15084     15082     15089     15087     15084     15082     15090
     15097     15095     15093     15099     15097     15095     15093     15100
     15097     15095     15093     15101     15098     15095     15093     15099
     15098     15095     15093     15100     15098     15095     15093     15101
     15108     15106     15104     15110     15108     15106     15104     15111
     15108     15106     15104     15112     15109     15106     15104     15110
     15109     15106     15104     15111     15109     15106     15104     15112
     15119     15117     15115     15121     15119     15117     15115     15122
     15119     15117     15115     15123     15120     15117     15115     15121
     15120     15117     15115     15122     15120     15117     15115     15123
     15130     15128     15126     15132     15130     15128     15126     15133
     15130     15128     15126     15134     15131     15128     15126     15132
     15131     15128     15126     15133     15131     15128     15126     15134
     15141     15139     15137     15143     15141     15139     15137     15144
     15141     15139     15137     15145     15142     15139     15137     15143
     15142     15139     15137     15144     15142     15139     15137     15145
     15152     15150     15148     15154     15152     15150     15148     15155
     15152     15150     15148     15156     15153     15150     15148     15154
     15153     15150     15148     15155     15153     15150     15148     15156
     15163     15161     15159     15165     15163     15161     15159     15166
     15163     15161     15159     15167     15164     15161     15159     15165
     15164     15161     15159     15166     15164     15161     15159     15167
     15174     15172     15170     15176     15174     15172     15170     15177
     15174     15172     15170     15178     15175     15172     15170     15176
     15175     15172     15170     15177     15175     15172     15170     15178
     15185     15183     15181     15187     15185     15183     15181     15188
     15185     15183     15181     15189     15186     15183     15181     15187
     15186     15183     15181     15188     15186     15183     15181     15189
     15196     15194     15192     15198     15196     15194     15192     15199
     15196     15194     15192     15200     15197     15194     15192     15198
     15197     15194     15192     15199     15197     15194     15192     15200
     15207     15205     15203     15209     15207     15205     15203     15210
     15207     15205     15203     15211     15208     15205     15203     15209
     15208     15205     15203     15210     15208     15205     15203     15211
     15218     15216     15214     15220     15218     15216     15214     15221
     15218     15216     15214     15222     15219     15216     15214     15220
     15219     15216     15214     15221     15219     15216     15214     15222
     15229     15227     15225     15231     15229     15227     15225     15232
     15229     15227     15225     15233     15230     15227     15225     15231
     15230     15227     15225     15232     15230     15227     15225     15233
     15240     15238     15236     15242     15240     15238     15236     15243
     15240     15238     15236     15244     15241     15238     15236     15242
     15241     15238     15236     15243     15241     15238     15236     15244
     15251     15249     15247     15253     15251     15249     15247     15254
     15251     15249     15247     15255     15252     15249     15247     15253
     15252     15249     15247     15254     15252     15249     15247     15255
     15262     15260     15258     15264     15262     15260     15258     15265
     15262     15260     15258     15266     15263     15260     15258     15264
     15263     15260     15258     15265     15263     15260     15258     15266
     15273     15271     15269     15275     15273     15271     15269     15276
     15273     15271     15269     15277     15274     15271     15269     15275
     15274     15271     15269     15276     15274     15271     15269     15277
     15284     15282     15280     15286     15284     15282     15280     15287
     15284     15282     15280     15288     15285     15282     15280     15286
     15285     15282     15280     15287     15285     15282     15280     15288
     15295     15293     15291     15297     15295     15293     15291     15298
     15295     15293     15291     15299     15296     15293     15291     15297
     15296     15293     15291     15298     15296     15293     15291     15299
     15306     15304     15302     15308     15306     15304     15302     15309
     15306     15304     15302     15310     15307     15304     15302     15308
     15307     15304     15302     15309     15307     15304     15302     15310
     15317     15315     15313     15319     15317     15315     15313     15320
     15317     15315     15313     15321     15318     15315     15313     15319
     15318     15315     15313     15320     15318     15315     15313     15321
     15328     15326     15324     15330     15328     15326     15324     15331
     15328     15326     15324     15332     15329     15326     15324     15330
     15329     15326     15324     15331     15329     15326     15324     15332
     15339     15337     15335     15341     15339     15337     15335     15342
     15339     15337     15335     15343     15340     15337     15335     15341
     15340     15337     15335     15342     15340     15337     15335     15343
     15350     15348     15346     15352     15350     15348     15346     15353
     15350     15348     15346     15354     15351     15348     15346     15352
     15351     15348     15346     15353     15351     15348     15346     15354
     15361     15359     15357     15363     15361     15359     15357     15364
     15361     15359     15357     15365     15362     15359     15357     15363
     15362     15359     15357     15364     15362     15359     15357     15365
     15372     15370     15368     15374     15372     15370     15368     15375
     15372     15370     15368     15376     15373     15370     15368     15374
     15373     15370     15368     15375     15373     15370     15368     15376
     15383     15381     15379     15385     15383     15381     15379     15386
     15383     15381     15379     15387     15384     15381     15379     15385
     15384     15381     15379     15386     15384     15381     15379     15387
     15394     15392     15390     15396     15394     15392     15390     15397
     15394     15392     15390     15398     15395     15392     15390     15396
     15395     15392     15390     15397     15395     15392     15390     15398
     15405     15403     15401     15407     15405     15403     15401     15408
     15405     15403     15401     15409     15406     15403     15401     15407
     15406     15403     15401     15408     15406     15403     15401     15409
     15416     15414     15412     15418     15416     15414     15412     15419
     15416     15414     15412     15420     15417     15414     15412     15418
     15417     15414     15412     15419     15417     15414     15412     15420
     15427     15425     15423     15429     15427     15425     15423     15430
     15427     15425     15423     15431     15428     15425     15423     15429
     15428     15425     15423     15430     15428     15425     15423     15431
     15438     15436     15434     15440     15438     15436     15434     15441
     15438     15436     15434     15442     15439     15436     15434     15440
     15439     15436     15434     15441     15439     15436     15434     15442
     15449     15447     15445     15451     15449     15447     15445     15452
     15449     15447     15445     15453     15450     15447     15445     15451
     15450     15447     15445     15452     15450     15447     15445     15453
     15460     15458     15456     15462     15460     15458     15456     15463
     15460     15458     15456     15464     15461     15458     15456     15462
     15461     15458     15456     15463     15461     15458     15456     15464
     15471     15469     15467     15473     15471     15469     15467     15474
     15471     15469     15467     15475     15472     15469     15467     15473
     15472     15469     15467     15474     15472     15469     15467     15475
     15482     15480     15478     15484     15482     15480     15478     15485
     15482     15480     15478     15486     15483     15480     15478     15484
     15483     15480     15478     15485     15483     15480     15478     15486
     15493     15491     15489     15495     15493     15491     15489     15496
     15493     15491     15489     15497     15494     15491     15489     15495
     15494     15491     15489     15496     15494     15491     15489     15497
     15504     15502     15500     15506     15504     15502     15500     15507
     15504     15502     15500     15508     15505     15502     15500     15506
     15505     15502     15500     15507     15505     15502     15500     15508
     15515     15513     15511     15517     15515     15513     15511     15518
     15515     15513     15511     15519     15516     15513     15511     15517
     15516     15513     15511     15518     15516     15513     15511     15519
     15526     15524     15522     15528     15526     15524     15522     15529
     15526     15524     15522     15530     15527     15524     15522     15528
     15527     15524     15522     15529     15527     15524     15522     15530
     15537     15535     15533     15539     15537     15535     15533     15540
     15537     15535     15533     15541     15538     15535     15533     15539
     15538     15535     15533     15540     15538     15535     15533     15541
     15548     15546     15544     15550     15548     15546     15544     15551
     15548     15546     15544     15552     15549     15546     15544     15550
     15549     15546     15544     15551     15549     15546     15544     15552
     15559     15557     15555     15561     15559     15557     15555     15562
     15559     15557     15555     15563     15560     15557     15555     15561
     15560     15557     15555     15562     15560     15557     15555     15563
     15570     15568     15566     15572     15570     15568     15566     15573
     15570     15568     15566     15574     15571     15568     15566     15572
     15571     15568     15566     15573     15571     15568     15566     15574
     15581     15579     15577     15583     15581     15579     15577     15584
     15581     15579     15577     15585     15582     15579     15577     15583
     15582     15579     15577     15584     15582     15579     15577     15585
     15592     15590     15588     15594     15592     15590     15588     15595
     15592     15590     15588     15596     15593     15590     15588     15594
     15593     15590     15588     15595     15593     15590     15588     15596
     15603     15601     15599     15605     15603     15601     15599     15606
     15603     15601     15599     15607     15604     15601     15599     15605
     15604     15601     15599     15606     15604     15601     15599     15607
     15614     15612     15610     15616     15614     15612     15610     15617
     15614     15612     15610     15618     15615     15612     15610     15616
     15615     15612     15610     15617     15615     15612     15610     15618
     15625     15623     15621     15627     15625     15623     15621     15628
     15625     15623     15621     15629     15626     15623     15621     15627
     15626     15623     15621     15628     15626     15623     15621     15629
     15636     15634     15632     15638     15636     15634     15632     15639
     15636     15634     15632     15640     15637     15634     15632     15638
     15637     15634     15632     15639     15637     15634     15632     15640
     15647     15645     15643     15649     15647     15645     15643     15650
     15647     15645     15643     15651     15648     15645     15643     15649
     15648     15645     15643     15650     15648     15645     15643     15651
     15658     15656     15654     15660     15658     15656     15654     15661
     15658     15656     15654     15662     15659     15656     15654     15660
     15659     15656     15654     15661     15659     15656     15654     15662
     15669     15667     15665     15671     15669     15667     15665     15672
     15669     15667     15665     15673     15670     15667     15665     15671
     15670     15667     15665     15672     15670     15667     15665     15673
     15680     15678     15676     15682     15680     15678     15676     15683
     15680     15678     15676     15684     15681     15678     15676     15682
     15681     15678     15676     15683     15681     15678     15676     15684
     15691     15689     15687     15693     15691     15689     15687     15694
     15691     15689     15687     15695     15692     15689     15687     15693
     15692     15689     15687     15694     15692     15689     15687     15695
     15702     15700     15698     15704     15702     15700     15698     15705
     15702     15700     15698     15706     15703     15700     15698     15704
     15703     15700     15698     15705     15703     15700     15698     15706
     15713     15711     15709     15715     15713     15711     15709     15716
     15713     15711     15709     15717     15714     15711     15709     15715
     15714     15711     15709     15716     15714     15711     15709     15717
     15724     15722     15720     15726     15724     15722     15720     15727
     15724     15722     15720     15728     15725     15722     15720     15726
     15725     15722     15720     15727     15725     15722     15720     15728
     15735     15733     15731     15737     15735     15733     15731     15738
     15735     15733     15731     15739     15736     15733     15731     15737
     15736     15733     15731     15738     15736     15733     15731     15739
     15746     15744     15742     15748     15746     15744     15742     15749
     15746     15744     15742     15750     15747     15744     15742     15748
     15747     15744     15742     15749     15747     15744     15742     15750
     15757     15755     15753     15759     15757     15755     15753     15760
     15757     15755     15753     15761     15758     15755     15753     15759
     15758     15755     15753     15760     15758     15755     15753     15761
     15768     15766     15764     15770     15768     15766     15764     15771
     15768     15766     15764     15772     15769     15766     15764     15770
     15769     15766     15764     15771     15769     15766     15764     15772
     15779     15777     15775     15781     15779     15777     15775     15782
     15779     15777     15775     15783     15780     15777     15775     15781
     15780     15777     15775     15782     15780     15777     15775     15783
     15790     15788     15786     15792     15790     15788     15786     15793
     15790     15788     15786     15794     15791     15788     15786     15792
     15791     15788     15786     15793     15791     15788     15786     15794
     15801     15799     15797     15803     15801     15799     15797     15804
     15801     15799     15797     15805     15802     15799     15797     15803
     15802     15799     15797     15804     15802     15799     15797     15805
     15812     15810     15808     15814     15812     15810     15808     15815
     15812     15810     15808     15816     15813     15810     15808     15814
     15813     15810     15808     15815     15813     15810     15808     15816
     15823     15821     15819     15825     15823     15821     15819     15826
     15823     15821     15819     15827     15824     15821     15819     15825
     15824     15821     15819     15826     15824     15821     15819     15827
     15834     15832     15830     15836     15834     15832     15830     15837
     15834     15832     15830     15838     15835     15832     15830     15836
     15835     15832     15830     15837     15835     15832     15830     15838
     15845     15843     15841     15847     15845     15843     15841     15848
     15845     15843     15841     15849     15846     15843     15841     15847
     15846     15843     15841     15848     15846     15843     15841     15849
     15856     15854     15852     15858     15856     15854     15852     15859
     15856     15854     15852     15860     15857     15854     15852     15858
     15857     15854     15852     15859     15857     15854     15852     15860
     15867     15865     15863     15869     15867     15865     15863     15870
     15867     15865     15863     15871     15868     15865     15863     15869
     15868     15865     15863     15870     15868     15865     15863     15871
     15878     15876     15874     15880     15878     15876     15874     15881
     15878     15876     15874     15882     15879     15876     15874     15880
     15879     15876     15874     15881     15879     15876     15874     15882
     15889     15887     15885     15891     15889     15887     15885     15892
     15889     15887     15885     15893     15890     15887     15885     15891
     15890     15887     15885     15892     15890     15887     15885     15893
     15900     15898     15896     15902     15900     15898     15896     15903
     15900     15898     15896     15904     15901     15898     15896     15902
     15901     15898     15896     15903     15901     15898     15896     15904
     15911     15909     15907     15913     15911     15909     15907     15914
     15911     15909     15907     15915     15912     15909     15907     15913
     15912     15909     15907     15914     15912     15909     15907     15915
     15922     15920     15918     15924     15922     15920     15918     15925
     15922     15920     15918     15926     15923     15920     15918     15924
     15923     15920     15918     15925     15923     15920     15918     15926
     15933     15931     15929     15935     15933     15931     15929     15936
     15933     15931     15929     15937     15934     15931     15929     15935
     15934     15931     15929     15936     15934     15931     15929     15937
     15944     15942     15940     15946     15944     15942     15940     15947
     15944     15942     15940     15948     15945     15942     15940     15946
     15945     15942     15940     15947     15945     15942     15940     15948
     15955     15953     15951     15957     15955     15953     15951     15958
     15955     15953     15951     15959     15956     15953     15951     15957
     15956     15953     15951     15958     15956     15953     15951     15959
     15966     15964     15962     15968     15966     15964     15962     15969
     15966     15964     15962     15970     15967     15964     15962     15968
     15967     15964     15962     15969     15967     15964     15962     15970
     15977     15975     15973     15979     15977     15975     15973     15980
     15977     15975     15973     15981     15978     15975     15973     15979
     15978     15975     15973     15980     15978     15975     15973     15981
     15988     15986     15984     15990     15988     15986     15984     15991
     15988     15986     15984     15992     15989     15986     15984     15990
     15989     15986     15984     15991     15989     15986     15984     15992
     15999     15997     15995     16001     15999     15997     15995     16002
     15999     15997     15995     16003     16000     15997     15995     16001
     16000     15997     15995     16002     16000     15997     15995     16003
     16010     16008     16006     16012     16010     16008     16006     16013
     16010     16008     16006     16014     16011     16008     16006     16012
     16011     16008     16006     16013     16011     16008     16006     16014
     16021     16019     16017     16023     16021     16019     16017     16024
     16021     16019     16017     16025     16022     16019     16017     16023
     16022     16019     16017     16024     16022     16019     16017     16025
     16032     16030     16028     16034     16032     16030     16028     16035
     16032     16030     16028     16036     16033     16030     16028     16034
     16033     16030     16028     16035     16033     16030     16028     16036
     16043     16041     16039     16045     16043     16041     16039     16046
     16043     16041     16039     16047     16044     16041     16039     16045
     16044     16041     16039     16046     16044     16041     16039     16047
     16054     16052     16050     16056     16054     16052     16050     16057
     16054     16052     16050     16058     16055     16052     16050     16056
     16055     16052     16050     16057     16055     16052     16050     16058
     16065     16063     16061     16067     16065     16063     16061     16068
     16065     16063     16061     16069     16066     16063     16061     16067
     16066     16063     16061     16068     16066     16063     16061     16069
     16076     16074     16072     16078     16076     16074     16072     16079
     16076     16074     16072     16080     16077     16074     16072     16078
     16077     16074     16072     16079     16077     16074     16072     16080
     16087     16085     16083     16089     16087     16085     16083     16090
     16087     16085     16083     16091     16088     16085     16083     16089
     16088     16085     16083     16090     16088     16085     16083     16091
     16098     16096     16094     16100     16098     16096     16094     16101
     16098     16096     16094     16102     16099     16096     16094     16100
     16099     16096     16094     16101     16099     16096     16094     16102
     16109     16107     16105     16111     16109     16107     16105     16112
     16109     16107     16105     16113     16110     16107     16105     16111
     16110     16107     16105     16112     16110     16107     16105     16113
     16120     16118     16116     16122     16120     16118     16116     16123
     16120     16118     16116     16124     16121     16118     16116     16122
     16121     16118     16116     16123     16121     16118     16116     16124
     16131     16129     16127     16133     16131     16129     16127     16134
     16131     16129     16127     16135     16132     16129     16127     16133
     16132     16129     16127     16134     16132     16129     16127     16135
     16142     16140     16138     16144     16142     16140     16138     16145
     16142     16140     16138     16146     16143     16140     16138     16144
     16143     16140     16138     16145     16143     16140     16138     16146
     16153     16151     16149     16155     16153     16151     16149     16156
     16153     16151     16149     16157     16154     16151     16149     16155
     16154     16151     16149     16156     16154     16151     16149     16157
     16164     16162     16160     16166     16164     16162     16160     16167
     16164     16162     16160     16168     16165     16162     16160     16166
     16165     16162     16160     16167     16165     16162     16160     16168
     16175     16173     16171     16177     16175     16173     16171     16178
     16175     16173     16171     16179     16176     16173     16171     16177
     16176     16173     16171     16178     16176     16173     16171     16179
     16186     16184     16182     16188     16186     16184     16182     16189
     16186     16184     16182     16190     16187     16184     16182     16188
     16187     16184     16182     16189     16187     16184     16182     16190
     16197     16195     16193     16199     16197     16195     16193     16200
     16197     16195     16193     16201     16198     16195     16193     16199
     16198     16195     16193     16200     16198     16195     16193     16201
     16208     16206     16204     16210     16208     16206     16204     16211
     16208     16206     16204     16212     16209     16206     16204     16210
     16209     16206     16204     16211     16209     16206     16204     16212
     16219     16217     16215     16221     16219     16217     16215     16222
     16219     16217     16215     16223     16220     16217     16215     16221
     16220     16217     16215     16222     16220     16217     16215     16223
     16230     16228     16226     16232     16230     16228     16226     16233
     16230     16228     16226     16234     16231     16228     16226     16232
     16231     16228     16226     16233     16231     16228     16226     16234
     16241     16239     16237     16243     16241     16239     16237     16244
     16241     16239     16237     16245     16242     16239     16237     16243
     16242     16239     16237     16244     16242     16239     16237     16245
     16252     16250     16248     16254     16252     16250     16248     16255
     16252     16250     16248     16256     16253     16250     16248     16254
     16253     16250     16248     16255     16253     16250     16248     16256
     16263     16261     16259     16265     16263     16261     16259     16266
     16263     16261     16259     16267     16264     16261     16259     16265
     16264     16261     16259     16266     16264     16261     16259     16267
     16274     16272     16270     16276     16274     16272     16270     16277
     16274     16272     16270     16278     16275     16272     16270     16276
     16275     16272     16270     16277     16275     16272     16270     16278
     16285     16283     16281     16287     16285     16283     16281     16288
     16285     16283     16281     16289     16286     16283     16281     16287
     16286     16283     16281     16288     16286     16283     16281     16289
     16296     16294     16292     16298     16296     16294     16292     16299
     16296     16294     16292     16300     16297     16294     16292     16298
     16297     16294     16292     16299     16297     16294     16292     16300
     16307     16305     16303     16309     16307     16305     16303     16310
     16307     16305     16303     16311     16308     16305     16303     16309
     16308     16305     16303     16310     16308     16305     16303     16311
     16318     16316     16314     16320     16318     16316     16314     16321
     16318     16316     16314     16322     16319     16316     16314     16320
     16319     16316     16314     16321     16319     16316     16314     16322
     16329     16327     16325     16331     16329     16327     16325     16332
     16329     16327     16325     16333     16330     16327     16325     16331
     16330     16327     16325     16332     16330     16327     16325     16333
     16340     16338     16336     16342     16340     16338     16336     16343
     16340     16338     16336     16344     16341     16338     16336     16342
     16341     16338     16336     16343     16341     16338     16336     16344
     16351     16349     16347     16353     16351     16349     16347     16354
     16351     16349     16347     16355     16352     16349     16347     16353
     16352     16349     16347     16354     16352     16349     16347     16355
     16362     16360     16358     16364     16362     16360     16358     16365
     16362     16360     16358     16366     16363     16360     16358     16364
     16363     16360     16358     16365     16363     16360     16358     16366
     16373     16371     16369     16375     16373     16371     16369     16376
     16373     16371     16369     16377     16374     16371     16369     16375
     16374     16371     16369     16376     16374     16371     16369     16377
     16384     16382     16380     16386     16384     16382     16380     16387
     16384     16382     16380     16388     16385     16382     16380     16386
     16385     16382     16380     16387     16385     16382     16380     16388
     16395     16393     16391     16397     16395     16393     16391     16398
     16395     16393     16391     16399     16396     16393     16391     16397
     16396     16393     16391     16398     16396     16393     16391     16399
     16406     16404     16402     16408     16406     16404     16402     16409
     16406     16404     16402     16410     16407     16404     16402     16408
     16407     16404     16402     16409     16407     16404     16402     16410
     16417     16415     16413     16419     16417     16415     16413     16420
     16417     16415     16413     16421     16418     16415     16413     16419
     16418     16415     16413     16420     16418     16415     16413     16421
     16428     16426     16424     16430     16428     16426     16424     16431
     16428     16426     16424     16432     16429     16426     16424     16430
     16429     16426     16424     16431     16429     16426     16424     16432
     16439     16437     16435     16441     16439     16437     16435     16442
     16439     16437     16435     16443     16440     16437     16435     16441
     16440     16437     16435     16442     16440     16437     16435     16443
     16450     16448     16446     16452     16450     16448     16446     16453
     16450     16448     16446     16454     16451     16448     16446     16452
     16451     16448     16446     16453     16451     16448     16446     16454
     16461     16459     16457     16463     16461     16459     16457     16464
     16461     16459     16457     16465     16462     16459     16457     16463
     16462     16459     16457     16464     16462     16459     16457     16465
     16472     16470     16468     16474     16472     16470     16468     16475
     16472     16470     16468     16476     16473     16470     16468     16474
     16473     16470     16468     16475     16473     16470     16468     16476
     16483     16481     16479     16485     16483     16481     16479     16486
     16483     16481     16479     16487     16484     16481     16479     16485
     16484     16481     16479     16486     16484     16481     16479     16487
     16494     16492     16490     16496     16494     16492     16490     16497
     16494     16492     16490     16498     16495     16492     16490     16496
     16495     16492     16490     16497     16495     16492     16490     16498
     16505     16503     16501     16507     16505     16503     16501     16508
     16505     16503     16501     16509     16506     16503     16501     16507
     16506     16503     16501     16508     16506     16503     16501     16509
     16516     16514     16512     16518     16516     16514     16512     16519
     16516     16514     16512     16520     16517     16514     16512     16518
     16517     16514     16512     16519     16517     16514     16512     16520
     16527     16525     16523     16529     16527     16525     16523     16530
     16527     16525     16523     16531     16528     16525     16523     16529
     16528     16525     16523     16530     16528     16525     16523     16531
     16538     16536     16534     16540     16538     16536     16534     16541
     16538     16536     16534     16542     16539     16536     16534     16540
     16539     16536     16534     16541     16539     16536     16534     16542
     16549     16547     16545     16551     16549     16547     16545     16552
     16549     16547     16545     16553     16550     16547     16545     16551
     16550     16547     16545     16552     16550     16547     16545     16553
     16560     16558     16556     16562     16560     16558     16556     16563
     16560     16558     16556     16564     16561     16558     16556     16562
     16561     16558     16556     16563     16561     16558     16556     16564
     16571     16569     16567     16573     16571     16569     16567     16574
     16571     16569     16567     16575     16572     16569     16567     16573
     16572     16569     16567     16574     16572     16569     16567     16575
     16582     16580     16578     16584     16582     16580     16578     16585
     16582     16580     16578     16586     16583     16580     16578     16584
     16583     16580     16578     16585     16583     16580     16578     16586
     16593     16591     16589     16595     16593     16591     16589     16596
     16593     16591     16589     16597     16594     16591     16589     16595
     16594     16591     16589     16596     16594     16591     16589     16597
     16604     16602     16600     16606     16604     16602     16600     16607
     16604     16602     16600     16608     16605     16602     16600     16606
     16605     16602     16600     16607     16605     16602     16600     16608
     16615     16613     16611     16617     16615     16613     16611     16618
     16615     16613     16611     16619     16616     16613     16611     16617
     16616     16613     16611     16618     16616     16613     16611     16619
     16626     16624     16622     16628     16626     16624     16622     16629
     16626     16624     16622     16630     16627     16624     16622     16628
     16627     16624     16622     16629     16627     16624     16622     16630
     16637     16635     16633     16639     16637     16635     16633     16640
     16637     16635     16633     16641     16638     16635     16633     16639
     16638     16635     16633     16640     16638     16635     16633     16641
     16648     16646     16644     16650     16648     16646     16644     16651
     16648     16646     16644     16652     16649     16646     16644     16650
     16649     16646     16644     16651     16649     16646     16644     16652
     16659     16657     16655     16661     16659     16657     16655     16662
     16659     16657     16655     16663     16660     16657     16655     16661
     16660     16657     16655     16662     16660     16657     16655     16663
     16670     16668     16666     16672     16670     16668     16666     16673
     16670     16668     16666     16674     16671     16668     16666     16672
     16671     16668     16666     16673     16671     16668     16666     16674
     16681     16679     16677     16683     16681     16679     16677     16684
     16681     16679     16677     16685     16682     16679     16677     16683
     16682     16679     16677     16684     16682     16679     16677     16685
     16692     16690     16688     16694     16692     16690     16688     16695
     16692     16690     16688     16696     16693     16690     16688     16694
     16693     16690     16688     16695     16693     16690     16688     16696
     16703     16701     16699     16705     16703     16701     16699     16706
     16703     16701     16699     16707     16704     16701     16699     16705
     16704     16701     16699     16706     16704     16701     16699     16707
     16714     16712     16710     16716     16714     16712     16710     16717
     16714     16712     16710     16718     16715     16712     16710     16716
     16715     16712     16710     16717     16715     16712     16710     16718
     16725     16723     16721     16727     16725     16723     16721     16728
     16725     16723     16721     16729     16726     16723     16721     16727
     16726     16723     16721     16728     16726     16723     16721     16729
     16736     16734     16732     16738     16736     16734     16732     16739
     16736     16734     16732     16740     16737     16734     16732     16738
     16737     16734     16732     16739     16737     16734     16732     16740
     16747     16745     16743     16749     16747     16745     16743     16750
     16747     16745     16743     16751     16748     16745     16743     16749
     16748     16745     16743     16750     16748     16745     16743     16751
     16758     16756     16754     16760     16758     16756     16754     16761
     16758     16756     16754     16762     16759     16756     16754     16760
     16759     16756     16754     16761     16759     16756     16754     16762
     16769     16767     16765     16771     16769     16767     16765     16772
     16769     16767     16765     16773     16770     16767     16765     16771
     16770     16767     16765     16772     16770     16767     16765     16773
     16780     16778     16776     16782     16780     16778     16776     16783
     16780     16778     16776     16784     16781     16778     16776     16782
     16781     16778     16776     16783     16781     16778     16776     16784
     16791     16789     16787     16793     16791     16789     16787     16794
     16791     16789     16787     16795     16792     16789     16787     16793
     16792     16789     16787     16794     16792     16789     16787     16795
     16802     16800     16798     16804     16802     16800     16798     16805
     16802     16800     16798     16806     16803     16800     16798     16804
     16803     16800     16798     16805     16803     16800     16798     16806
     16813     16811     16809     16815     16813     16811     16809     16816
     16813     16811     16809     16817     16814     16811     16809     16815
     16814     16811     16809     16816     16814     16811     16809     16817
     16824     16822     16820     16826     16824     16822     16820     16827
     16824     16822     16820     16828     16825     16822     16820     16826
     16825     16822     16820     16827     16825     16822     16820     16828
     16835     16833     16831     16837     16835     16833     16831     16838
     16835     16833     16831     16839     16836     16833     16831     16837
     16836     16833     16831     16838     16836     16833     16831     16839
     16846     16844     16842     16848     16846     16844     16842     16849
     16846     16844     16842     16850     16847     16844     16842     16848
     16847     16844     16842     16849     16847     16844     16842     16850
     16857     16855     16853     16859     16857     16855     16853     16860
     16857     16855     16853     16861     16858     16855     16853     16859
     16858     16855     16853     16860     16858     16855     16853     16861
     16868     16866     16864     16870     16868     16866     16864     16871
     16868     16866     16864     16872     16869     16866     16864     16870
     16869     16866     16864     16871     16869     16866     16864     16872
     16879     16877     16875     16881     16879     16877     16875     16882
     16879     16877     16875     16883     16880     16877     16875     16881
     16880     16877     16875     16882     16880     16877     16875     16883
     16890     16888     16886     16892     16890     16888     16886     16893
     16890     16888     16886     16894     16891     16888     16886     16892
     16891     16888     16886     16893     16891     16888     16886     16894
     16901     16899     16897     16903     16901     16899     16897     16904
     16901     16899     16897     16905     16902     16899     16897     16903
     16902     16899     16897     16904     16902     16899     16897     16905
     16912     16910     16908     16914     16912     16910     16908     16915
     16912     16910     16908     16916     16913     16910     16908     16914
     16913     16910     16908     16915     16913     16910     16908     16916
     16923     16921     16919     16925     16923     16921     16919     16926
     16923     16921     16919     16927     16924     16921     16919     16925
     16924     16921     16919     16926     16924     16921     16919     16927
     16934     16932     16930     16936     16934     16932     16930     16937
     16934     16932     16930     16938     16935     16932     16930     16936
     16935     16932     16930     16937     16935     16932     16930     16938
     16945     16943     16941     16947     16945     16943     16941     16948
     16945     16943     16941     16949     16946     16943     16941     16947
     16946     16943     16941     16948     16946     16943     16941     16949
     16956     16954     16952     16958     16956     16954     16952     16959
     16956     16954     16952     16960     16957     16954     16952     16958
     16957     16954     16952     16959     16957     16954     16952     16960
     16967     16965     16963     16969     16967     16965     16963     16970
     16967     16965     16963     16971     16968     16965     16963     16969
     16968     16965     16963     16970     16968     16965     16963     16971
     16978     16976     16974     16980     16978     16976     16974     16981
     16978     16976     16974     16982     16979     16976     16974     16980
     16979     16976     16974     16981     16979     16976     16974     16982
     16989     16987     16985     16991     16989     16987     16985     16992
     16989     16987     16985     16993     16990     16987     16985     16991
     16990     16987     16985     16992     16990     16987     16985     16993
     17000     16998     16996     17002     17000     16998     16996     17003
     17000     16998     16996     17004     17001     16998     16996     17002
     17001     16998     16996     17003     17001     16998     16996     17004
     17011     17009     17007     17013     17011     17009     17007     17014
     17011     17009     17007     17015     17012     17009     17007     17013
     17012     17009     17007     17014     17012     17009     17007     17015
     17022     17020     17018     17024     17022     17020     17018     17025
     17022     17020     17018     17026     17023     17020     17018     17024
     17023     17020     17018     17025     17023     17020     17018     17026
     17033     17031     17029     17035     17033     17031     17029     17036
     17033     17031     17029     17037     17034     17031     17029     17035
     17034     17031     17029     17036     17034     17031     17029     17037
     17044     17042     17040     17046     17044     17042     17040     17047
     17044     17042     17040     17048     17045     17042     17040     17046
     17045     17042     17040     17047     17045     17042     17040     17048
     17055     17053     17051     17057     17055     17053     17051     17058
     17055     17053     17051     17059     17056     17053     17051     17057
     17056     17053     17051     17058     17056     17053     17051     17059
     17066     17064     17062     17068     17066     17064     17062     17069
     17066     17064     17062     17070     17067     17064     17062     17068
     17067     17064     17062     17069     17067     17064     17062     17070
     17077     17075     17073     17079     17077     17075     17073     17080
     17077     17075     17073     17081     17078     17075     17073     17079
     17078     17075     17073     17080     17078     17075     17073     17081
     17088     17086     17084     17090     17088     17086     17084     17091
     17088     17086     17084     17092     17089     17086     17084     17090
     17089     17086     17084     17091     17089     17086     17084     17092
     17099     17097     17095     17101     17099     17097     17095     17102
     17099     17097     17095     17103     17100     17097     17095     17101
     17100     17097     17095     17102     17100     17097     17095     17103
     17110     17108     17106     17112     17110     17108     17106     17113
     17110     17108     17106     17114     17111     17108     17106     17112
     17111     17108     17106     17113     17111     17108     17106     17114
     17121     17119     17117     17123     17121     17119     17117     17124
     17121     17119     17117     17125     17122     17119     17117     17123
     17122     17119     17117     17124     17122     17119     17117     17125
     17132     17130     17128     17134     17132     17130     17128     17135
     17132     17130     17128     17136     17133     17130     17128     17134
     17133     17130     17128     17135     17133     17130     17128     17136
     17143     17141     17139     17145     17143     17141     17139     17146
     17143     17141     17139     17147     17144     17141     17139     17145
     17144     17141     17139     17146     17144     17141     17139     17147
     17154     17152     17150     17156     17154     17152     17150     17157
     17154     17152     17150     17158     17155     17152     17150     17156
     17155     17152     17150     17157     17155     17152     17150     17158
     17165     17163     17161     17167     17165     17163     17161     17168
     17165     17163     17161     17169     17166     17163     17161     17167
     17166     17163     17161     17168     17166     17163     17161     17169
     17176     17174     17172     17178     17176     17174     17172     17179
     17176     17174     17172     17180     17177     17174     17172     17178
     17177     17174     17172     17179     17177     17174     17172     17180
     17187     17185     17183     17189     17187     17185     17183     17190
     17187     17185     17183     17191     17188     17185     17183     17189
     17188     17185     17183     17190     17188     17185     17183     17191
     17198     17196     17194     17200     17198     17196     17194     17201
     17198     17196     17194     17202     17199     17196     17194     17200
     17199     17196     17194     17201     17199     17196     17194     17202
     17209     17207     17205     17211     17209     17207     17205     17212
     17209     17207     17205     17213     17210     17207     17205     17211
     17210     17207     17205     17212     17210     17207     17205     17213
     17220     17218     17216     17222     17220     17218     17216     17223
     17220     17218     17216     17224     17221     17218     17216     17222
     17221     17218     17216     17223     17221     17218     17216     17224
     17231     17229     17227     17233     17231     17229     17227     17234
     17231     17229     17227     17235     17232     17229     17227     17233
     17232     17229     17227     17234     17232     17229     17227     17235
     17242     17240     17238     17244     17242     17240     17238     17245
     17242     17240     17238     17246     17243     17240     17238     17244
     17243     17240     17238     17245     17243     17240     17238     17246
     17253     17251     17249     17255     17253     17251     17249     17256
     17253     17251     17249     17257     17254     17251     17249     17255
     17254     17251     17249     17256     17254     17251     17249     17257
     17264     17262     17260     17266     17264     17262     17260     17267
     17264     17262     17260     17268     17265     17262     17260     17266
     17265     17262     17260     17267     17265     17262     17260     17268
     17275     17273     17271     17277     17275     17273     17271     17278
     17275     17273     17271     17279     17276     17273     17271     17277
     17276     17273     17271     17278     17276     17273     17271     17279
     17286     17284     17282     17288     17286     17284     17282     17289
     17286     17284     17282     17290     17287     17284     17282     17288
     17287     17284     17282     17289     17287     17284     17282     17290
     17297     17295     17293     17299     17297     17295     17293     17300
     17297     17295     17293     17301     17298     17295     17293     17299
     17298     17295     17293     17300     17298     17295     17293     17301
     17308     17306     17304     17310     17308     17306     17304     17311
     17308     17306     17304     17312     17309     17306     17304     17310
     17309     17306     17304     17311     17309     17306     17304     17312
     17319     17317     17315     17321     17319     17317     17315     17322
     17319     17317     17315     17323     17320     17317     17315     17321
     17320     17317     17315     17322     17320     17317     17315     17323
     17330     17328     17326     17332     17330     17328     17326     17333
     17330     17328     17326     17334     17331     17328     17326     17332
     17331     17328     17326     17333     17331     17328     17326     17334
     17341     17339     17337     17343     17341     17339     17337     17344
     17341     17339     17337     17345     17342     17339     17337     17343
     17342     17339     17337     17344     17342     17339     17337     17345
     17352     17350     17348     17354     17352     17350     17348     17355
     17352     17350     17348     17356     17353     17350     17348     17354
     17353     17350     17348     17355     17353     17350     17348     17356
     17363     17361     17359     17365     17363     17361     17359     17366
     17363     17361     17359     17367     17364     17361     17359     17365
     17364     17361     17359     17366     17364     17361     17359     17367
     17374     17372     17370     17376     17374     17372     17370     17377
     17374     17372     17370     17378     17375     17372     17370     17376
     17375     17372     17370     17377     17375     17372     17370     17378
     17385     17383     17381     17387     17385     17383     17381     17388
     17385     17383     17381     17389     17386     17383     17381     17387
     17386     17383     17381     17388     17386     17383     17381     17389
     17396     17394     17392     17398     17396     17394     17392     17399
     17396     17394     17392     17400     17397     17394     17392     17398
     17397     17394     17392     17399     17397     17394     17392     17400
     17407     17405     17403     17409     17407     17405     17403     17410
     17407     17405     17403     17411     17408     17405     17403     17409
     17408     17405     17403     17410     17408     17405     17403     17411
     17418     17416     17414     17420     17418     17416     17414     17421
     17418     17416     17414     17422     17419     17416     17414     17420
     17419     17416     17414     17421     17419     17416     17414     17422
     17429     17427     17425     17431     17429     17427     17425     17432
     17429     17427     17425     17433     17430     17427     17425     17431
     17430     17427     17425     17432     17430     17427     17425     17433
     17440     17438     17436     17442     17440     17438     17436     17443
     17440     17438     17436     17444     17441     17438     17436     17442
     17441     17438     17436     17443     17441     17438     17436     17444
     17451     17449     17447     17453     17451     17449     17447     17454
     17451     17449     17447     17455     17452     17449     17447     17453
     17452     17449     17447     17454     17452     17449     17447     17455
     17462     17460     17458     17464     17462     17460     17458     17465
     17462     17460     17458     17466     17463     17460     17458     17464
     17463     17460     17458     17465     17463     17460     17458     17466
     17473     17471     17469     17475     17473     17471     17469     17476
     17473     17471     17469     17477     17474     17471     17469     17475
     17474     17471     17469     17476     17474     17471     17469     17477
     17484     17482     17480     17486     17484     17482     17480     17487
     17484     17482     17480     17488     17485     17482     17480     17486
     17485     17482     17480     17487     17485     17482     17480     17488
     17495     17493     17491     17497     17495     17493     17491     17498
     17495     17493     17491     17499     17496     17493     17491     17497
     17496     17493     17491     17498     17496     17493     17491     17499
     17506     17504     17502     17508     17506     17504     17502     17509
     17506     17504     17502     17510     17507     17504     17502     17508
     17507     17504     17502     17509     17507     17504     17502     17510
     17517     17515     17513     17519     17517     17515     17513     17520
     17517     17515     17513     17521     17518     17515     17513     17519
     17518     17515     17513     17520     17518     17515     17513     17521
     17528     17526     17524     17530     17528     17526     17524     17531
     17528     17526     17524     17532     17529     17526     17524     17530
     17529     17526     17524     17531     17529     17526     17524     17532
     17539     17537     17535     17541     17539     17537     17535     17542
     17539     17537     17535     17543     17540     17537     17535     17541
     17540     17537     17535     17542     17540     17537     17535     17543
     17550     17548     17546     17552     17550     17548     17546     17553
     17550     17548     17546     17554     17551     17548     17546     17552
     17551     17548     17546     17553     17551     17548     17546     17554
     17561     17559     17557     17563     17561     17559     17557     17564
     17561     17559     17557     17565     17562     17559     17557     17563
     17562     17559     17557     17564     17562     17559     17557     17565
     17572     17570     17568     17574     17572     17570     17568     17575
     17572     17570     17568     17576     17573     17570     17568     17574
     17573     17570     17568     17575     17573     17570     17568     17576
     17583     17581     17579     17585     17583     17581     17579     17586
     17583     17581     17579     17587     17584     17581     17579     17585
     17584     17581     17579     17586     17584     17581     17579     17587
     17594     17592     17590     17596     17594     17592     17590     17597
     17594     17592     17590     17598     17595     17592     17590     17596
     17595     17592     17590     17597     17595     17592     17590     17598
     17605     17603     17601     17607     17605     17603     17601     17608
     17605     17603     17601     17609     17606     17603     17601     17607
     17606     17603     17601     17608     17606     17603     17601     17609
     17616     17614     17612     17618     17616     17614     17612     17619
     17616     17614     17612     17620     17617     17614     17612     17618
     17617     17614     17612     17619     17617     17614     17612     17620
     17627     17625     17623     17629     17627     17625     17623     17630
     17627     17625     17623     17631     17628     17625     17623     17629
     17628     17625     17623     17630     17628     17625     17623     17631
     17638     17636     17634     17640     17638     17636     17634     17641
     17638     17636     17634     17642     17639     17636     17634     17640
     17639     17636     17634     17641     17639     17636     17634     17642
     17649     17647     17645     17651     17649     17647     17645     17652
     17649     17647     17645     17653     17650     17647     17645     17651
     17650     17647     17645     17652     17650     17647     17645     17653
     17660     17658     17656     17662     17660     17658     17656     17663
     17660     17658     17656     17664     17661     17658     17656     17662
     17661     17658     17656     17663     17661     17658     17656     17664
     17671     17669     17667     17673     17671     17669     17667     17674
     17671     17669     17667     17675     17672     17669     17667     17673
     17672     17669     17667     17674     17672     17669     17667     17675
     17682     17680     17678     17684     17682     17680     17678     17685
     17682     17680     17678     17686     17683     17680     17678     17684
     17683     17680     17678     17685     17683     17680     17678     17686
     17693     17691     17689     17695     17693     17691     17689     17696
     17693     17691     17689     17697     17694     17691     17689     17695
     17694     17691     17689     17696     17694     17691     17689     17697
     17704     17702     17700     17706     17704     17702     17700     17707
     17704     17702     17700     17708     17705     17702     17700     17706
     17705     17702     17700     17707     17705     17702     17700     17708
     17715     17713     17711     17717     17715     17713     17711     17718
     17715     17713     17711     17719     17716     17713     17711     17717
     17716     17713     17711     17718     17716     17713     17711     17719
     17726     17724     17722     17728     17726     17724     17722     17729
     17726     17724     17722     17730     17727     17724     17722     17728
     17727     17724     17722     17729     17727     17724     17722     17730
     17737     17735     17733     17739     17737     17735     17733     17740
     17737     17735     17733     17741     17738     17735     17733     17739
     17738     17735     17733     17740     17738     17735     17733     17741
     17748     17746     17744     17750     17748     17746     17744     17751
     17748     17746     17744     17752     17749     17746     17744     17750
     17749     17746     17744     17751     17749     17746     17744     17752
     17759     17757     17755     17761     17759     17757     17755     17762
     17759     17757     17755     17763     17760     17757     17755     17761
     17760     17757     17755     17762     17760     17757     17755     17763
     17770     17768     17766     17772     17770     17768     17766     17773
     17770     17768     17766     17774     17771     17768     17766     17772
     17771     17768     17766     17773     17771     17768     17766     17774
     17781     17779     17777     17783     17781     17779     17777     17784
     17781     17779     17777     17785     17782     17779     17777     17783
     17782     17779     17777     17784     17782     17779     17777     17785
     17792     17790     17788     17794     17792     17790     17788     17795
     17792     17790     17788     17796     17793     17790     17788     17794
     17793     17790     17788     17795     17793     17790     17788     17796
     17803     17801     17799     17805     17803     17801     17799     17806
     17803     17801     17799     17807     17804     17801     17799     17805
     17804     17801     17799     17806     17804     17801     17799     17807
     17814     17812     17810     17816     17814     17812     17810     17817
     17814     17812     17810     17818     17815     17812     17810     17816
     17815     17812     17810     17817     17815     17812     17810     17818
     17825     17823     17821     17827     17825     17823     17821     17828
     17825     17823     17821     17829     17826     17823     17821     17827
     17826     17823     17821     17828     17826     17823     17821     17829
     17836     17834     17832     17838     17836     17834     17832     17839
     17836     17834     17832     17840     17837     17834     17832     17838
     17837     17834     17832     17839     17837     17834     17832     17840
     17847     17845     17843     17849     17847     17845     17843     17850
     17847     17845     17843     17851     17848     17845     17843     17849
     17848     17845     17843     17850     17848     17845     17843     17851
     17858     17856     17854     17860     17858     17856     17854     17861
     17858     17856     17854     17862     17859     17856     17854     17860
     17859     17856     17854     17861     17859     17856     17854     17862
     17869     17867     17865     17871     17869     17867     17865     17872
     17869     17867     17865     17873     17870     17867     17865     17871
     17870     17867     17865     17872     17870     17867     17865     17873
     17880     17878     17876     17882     17880     17878     17876     17883
     17880     17878     17876     17884     17881     17878     17876     17882
     17881     17878     17876     17883     17881     17878     17876     17884
     17891     17889     17887     17893     17891     17889     17887     17894
     17891     17889     17887     17895     17892     17889     17887     17893
     17892     17889     17887     17894     17892     17889     17887     17895
     17902     17900     17898     17904     17902     17900     17898     17905
     17902     17900     17898     17906     17903     17900     17898     17904
     17903     17900     17898     17905     17903     17900     17898     17906
     17913     17911     17909     17915     17913     17911     17909     17916
     17913     17911     17909     17917     17914     17911     17909     17915
     17914     17911     17909     17916     17914     17911     17909     17917
     17924     17922     17920     17926     17924     17922     17920     17927
     17924     17922     17920     17928     17925     17922     17920     17926
     17925     17922     17920     17927     17925     17922     17920     17928
     17935     17933     17931     17937     17935     17933     17931     17938
     17935     17933     17931     17939     17936     17933     17931     17937
     17936     17933     17931     17938     17936     17933     17931     17939
     17946     17944     17942     17948     17946     17944     17942     17949
     17946     17944     17942     17950     17947     17944     17942     17948
     17947     17944     17942     17949     17947     17944     17942     17950
     17957     17955     17953     17959     17957     17955     17953     17960
     17957     17955     17953     17961     17958     17955     17953     17959
     17958     17955     17953     17960     17958     17955     17953     17961
     17968     17966     17964     17970     17968     17966     17964     17971
     17968     17966     17964     17972     17969     17966     17964     17970
     17969     17966     17964     17971     17969     17966     17964     17972
     17979     17977     17975     17981     17979     17977     17975     17982
     17979     17977     17975     17983     17980     17977     17975     17981
     17980     17977     17975     17982     17980     17977     17975     17983
     17990     17988     17986     17992     17990     17988     17986     17993
     17990     17988     17986     17994     17991     17988     17986     17992
     17991     17988     17986     17993     17991     17988     17986     17994
     18001     17999     17997     18003     18001     17999     17997     18004
     18001     17999     17997     18005     18002     17999     17997     18003
     18002     17999     17997     18004     18002     17999     17997     18005
     18012     18010     18008     18014     18012     18010     18008     18015
     18012     18010     18008     18016     18013     18010     18008     18014
     18013     18010     18008     18015     18013     18010     18008     18016
     18023     18021     18019     18025     18023     18021     18019     18026
     18023     18021     18019     18027     18024     18021     18019     18025
     18024     18021     18019     18026     18024     18021     18019     18027
     18034     18032     18030     18036     18034     18032     18030     18037
     18034     18032     18030     18038     18035     18032     18030     18036
     18035     18032     18030     18037     18035     18032     18030     18038
     18045     18043     18041     18047     18045     18043     18041     18048
     18045     18043     18041     18049     18046     18043     18041     18047
     18046     18043     18041     18048     18046     18043     18041     18049
     18056     18054     18052     18058     18056     18054     18052     18059
     18056     18054     18052     18060     18057     18054     18052     18058
     18057     18054     18052     18059     18057     18054     18052     18060
     18067     18065     18063     18069     18067     18065     18063     18070
     18067     18065     18063     18071     18068     18065     18063     18069
     18068     18065     18063     18070     18068     18065     18063     18071
     18078     18076     18074     18080     18078     18076     18074     18081
     18078     18076     18074     18082     18079     18076     18074     18080
     18079     18076     18074     18081     18079     18076     18074     18082
     18089     18087     18085     18091     18089     18087     18085     18092
     18089     18087     18085     18093     18090     18087     18085     18091
     18090     18087     18085     18092     18090     18087     18085     18093
     18100     18098     18096     18102     18100     18098     18096     18103
     18100     18098     18096     18104     18101     18098     18096     18102
     18101     18098     18096     18103     18101     18098     18096     18104
     18111     18109     18107     18113     18111     18109     18107     18114
     18111     18109     18107     18115     18112     18109     18107     18113
     18112     18109     18107     18114     18112     18109     18107     18115
     18122     18120     18118     18124     18122     18120     18118     18125
     18122     18120     18118     18126     18123     18120     18118     18124
     18123     18120     18118     18125     18123     18120     18118     18126
     18133     18131     18129     18135     18133     18131     18129     18136
     18133     18131     18129     18137     18134     18131     18129     18135
     18134     18131     18129     18136     18134     18131     18129     18137
     18144     18142     18140     18146     18144     18142     18140     18147
     18144     18142     18140     18148     18145     18142     18140     18146
     18145     18142     18140     18147     18145     18142     18140     18148
     18155     18153     18151     18157     18155     18153     18151     18158
     18155     18153     18151     18159     18156     18153     18151     18157
     18156     18153     18151     18158     18156     18153     18151     18159
     18166     18164     18162     18168     18166     18164     18162     18169
     18166     18164     18162     18170     18167     18164     18162     18168
     18167     18164     18162     18169     18167     18164     18162     18170
     18177     18175     18173     18179     18177     18175     18173     18180
     18177     18175     18173     18181     18178     18175     18173     18179
     18178     18175     18173     18180     18178     18175     18173     18181
     18188     18186     18184     18190     18188     18186     18184     18191
     18188     18186     18184     18192     18189     18186     18184     18190
     18189     18186     18184     18191     18189     18186     18184     18192
     18199     18197     18195     18201     18199     18197     18195     18202
     18199     18197     18195     18203     18200     18197     18195     18201
     18200     18197     18195     18202     18200     18197     18195     18203
     18210     18208     18206     18212     18210     18208     18206     18213
     18210     18208     18206     18214     18211     18208     18206     18212
     18211     18208     18206     18213     18211     18208     18206     18214
     18221     18219     18217     18223     18221     18219     18217     18224
     18221     18219     18217     18225     18222     18219     18217     18223
     18222     18219     18217     18224     18222     18219     18217     18225
     18232     18230     18228     18234     18232     18230     18228     18235
     18232     18230     18228     18236     18233     18230     18228     18234
     18233     18230     18228     18235     18233     18230     18228     18236
     18243     18241     18239     18245     18243     18241     18239     18246
     18243     18241     18239     18247     18244     18241     18239     18245
     18244     18241     18239     18246     18244     18241     18239     18247
     18254     18252     18250     18256     18254     18252     18250     18257
     18254     18252     18250     18258     18255     18252     18250     18256
     18255     18252     18250     18257     18255     18252     18250     18258
     18265     18263     18261     18267     18265     18263     18261     18268
     18265     18263     18261     18269     18266     18263     18261     18267
     18266     18263     18261     18268     18266     18263     18261     18269
     18276     18274     18272     18278     18276     18274     18272     18279
     18276     18274     18272     18280     18277     18274     18272     18278
     18277     18274     18272     18279     18277     18274     18272     18280
     18287     18285     18283     18289     18287     18285     18283     18290
     18287     18285     18283     18291     18288     18285     18283     18289
     18288     18285     18283     18290     18288     18285     18283     18291
     18298     18296     18294     18300     18298     18296     18294     18301
     18298     18296     18294     18302     18299     18296     18294     18300
     18299     18296     18294     18301     18299     18296     18294     18302
     18309     18307     18305     18311     18309     18307     18305     18312
     18309     18307     18305     18313     18310     18307     18305     18311
     18310     18307     18305     18312     18310     18307     18305     18313
     18320     18318     18316     18322     18320     18318     18316     18323
     18320     18318     18316     18324     18321     18318     18316     18322
     18321     18318     18316     18323     18321     18318     18316     18324
     18331     18329     18327     18333     18331     18329     18327     18334
     18331     18329     18327     18335     18332     18329     18327     18333
     18332     18329     18327     18334     18332     18329     18327     18335
     18342     18340     18338     18344     18342     18340     18338     18345
     18342     18340     18338     18346     18343     18340     18338     18344
     18343     18340     18338     18345     18343     18340     18338     18346
     18353     18351     18349     18355     18353     18351     18349     18356
     18353     18351     18349     18357     18354     18351     18349     18355
     18354     18351     18349     18356     18354     18351     18349     18357
     18364     18362     18360     18366     18364     18362     18360     18367
     18364     18362     18360     18368     18365     18362     18360     18366
     18365     18362     18360     18367     18365     18362     18360     18368
     18375     18373     18371     18377     18375     18373     18371     18378
     18375     18373     18371     18379     18376     18373     18371     18377
     18376     18373     18371     18378     18376     18373     18371     18379
     18386     18384     18382     18388     18386     18384     18382     18389
     18386     18384     18382     18390     18387     18384     18382     18388
     18387     18384     18382     18389     18387     18384     18382     18390
     18397     18395     18393     18399     18397     18395     18393     18400
     18397     18395     18393     18401     18398     18395     18393     18399
     18398     18395     18393     18400     18398     18395     18393     18401
     18408     18406     18404     18410     18408     18406     18404     18411
     18408     18406     18404     18412     18409     18406     18404     18410
     18409     18406     18404     18411     18409     18406     18404     18412
     18419     18417     18415     18421     18419     18417     18415     18422
     18419     18417     18415     18423     18420     18417     18415     18421
     18420     18417     18415     18422     18420     18417     18415     18423
     18430     18428     18426     18432     18430     18428     18426     18433
     18430     18428     18426     18434     18431     18428     18426     18432
     18431     18428     18426     18433     18431     18428     18426     18434
     18441     18439     18437     18443     18441     18439     18437     18444
     18441     18439     18437     18445     18442     18439     18437     18443
     18442     18439     18437     18444     18442     18439     18437     18445
     18452     18450     18448     18454     18452     18450     18448     18455
     18452     18450     18448     18456     18453     18450     18448     18454
     18453     18450     18448     18455     18453     18450     18448     18456
     18463     18461     18459     18465     18463     18461     18459     18466
     18463     18461     18459     18467     18464     18461     18459     18465
     18464     18461     18459     18466     18464     18461     18459     18467
     18474     18472     18470     18476     18474     18472     18470     18477
     18474     18472     18470     18478     18475     18472     18470     18476
     18475     18472     18470     18477     18475     18472     18470     18478
     18485     18483     18481     18487     18485     18483     18481     18488
     18485     18483     18481     18489     18486     18483     18481     18487
     18486     18483     18481     18488     18486     18483     18481     18489
     18496     18494     18492     18498     18496     18494     18492     18499
     18496     18494     18492     18500     18497     18494     18492     18498
     18497     18494     18492     18499     18497     18494     18492     18500
     18507     18505     18503     18509     18507     18505     18503     18510
     18507     18505     18503     18511     18508     18505     18503     18509
     18508     18505     18503     18510     18508     18505     18503     18511
     18518     18516     18514     18520     18518     18516     18514     18521
     18518     18516     18514     18522     18519     18516     18514     18520
     18519     18516     18514     18521     18519     18516     18514     18522
     18529     18527     18525     18531     18529     18527     18525     18532
     18529     18527     18525     18533     18530     18527     18525     18531
     18530     18527     18525     18532     18530     18527     18525     18533
     18540     18538     18536     18542     18540     18538     18536     18543
     18540     18538     18536     18544     18541     18538     18536     18542
     18541     18538     18536     18543     18541     18538     18536     18544
     18551     18549     18547     18553     18551     18549     18547     18554
     18551     18549     18547     18555     18552     18549     18547     18553
     18552     18549     18547     18554     18552     18549     18547     18555
     18562     18560     18558     18564     18562     18560     18558     18565
     18562     18560     18558     18566     18563     18560     18558     18564
     18563     18560     18558     18565     18563     18560     18558     18566
     18573     18571     18569     18575     18573     18571     18569     18576
     18573     18571     18569     18577     18574     18571     18569     18575
     18574     18571     18569     18576     18574     18571     18569     18577
     18584     18582     18580     18586     18584     18582     18580     18587
     18584     18582     18580     18588     18585     18582     18580     18586
     18585     18582     18580     18587     18585     18582     18580     18588
     18595     18593     18591     18597     18595     18593     18591     18598
     18595     18593     18591     18599     18596     18593     18591     18597
     18596     18593     18591     18598     18596     18593     18591     18599
     18606     18604     18602     18608     18606     18604     18602     18609
     18606     18604     18602     18610     18607     18604     18602     18608
     18607     18604     18602     18609     18607     18604     18602     18610
     18617     18615     18613     18619     18617     18615     18613     18620
     18617     18615     18613     18621     18618     18615     18613     18619
     18618     18615     18613     18620     18618     18615     18613     18621
     18628     18626     18624     18630     18628     18626     18624     18631
     18628     18626     18624     18632     18629     18626     18624     18630
     18629     18626     18624     18631     18629     18626     18624     18632
     18639     18637     18635     18641     18639     18637     18635     18642
     18639     18637     18635     18643     18640     18637     18635     18641
     18640     18637     18635     18642     18640     18637     18635     18643
     18650     18648     18646     18652     18650     18648     18646     18653
     18650     18648     18646     18654     18651     18648     18646     18652
     18651     18648     18646     18653     18651     18648     18646     18654
     18661     18659     18657     18663     18661     18659     18657     18664
     18661     18659     18657     18665     18662     18659     18657     18663
     18662     18659     18657     18664     18662     18659     18657     18665
     18672     18670     18668     18674     18672     18670     18668     18675
     18672     18670     18668     18676     18673     18670     18668     18674
     18673     18670     18668     18675     18673     18670     18668     18676
     18683     18681     18679     18685     18683     18681     18679     18686
     18683     18681     18679     18687     18684     18681     18679     18685
     18684     18681     18679     18686     18684     18681     18679     18687
     18694     18692     18690     18696     18694     18692     18690     18697
     18694     18692     18690     18698     18695     18692     18690     18696
     18695     18692     18690     18697     18695     18692     18690     18698
     18705     18703     18701     18707     18705     18703     18701     18708
     18705     18703     18701     18709     18706     18703     18701     18707
     18706     18703     18701     18708     18706     18703     18701     18709
     18716     18714     18712     18718     18716     18714     18712     18719
     18716     18714     18712     18720     18717     18714     18712     18718
     18717     18714     18712     18719     18717     18714     18712     18720
     18727     18725     18723     18729     18727     18725     18723     18730
     18727     18725     18723     18731     18728     18725     18723     18729
     18728     18725     18723     18730     18728     18725     18723     18731
     18738     18736     18734     18740     18738     18736     18734     18741
     18738     18736     18734     18742     18739     18736     18734     18740
     18739     18736     18734     18741     18739     18736     18734     18742
     18749     18747     18745     18751     18749     18747     18745     18752
     18749     18747     18745     18753     18750     18747     18745     18751
     18750     18747     18745     18752     18750     18747     18745     18753
     18760     18758     18756     18762     18760     18758     18756     18763
     18760     18758     18756     18764     18761     18758     18756     18762
     18761     18758     18756     18763     18761     18758     18756     18764
     18771     18769     18767     18773     18771     18769     18767     18774
     18771     18769     18767     18775     18772     18769     18767     18773
     18772     18769     18767     18774     18772     18769     18767     18775
     18782     18780     18778     18784     18782     18780     18778     18785
     18782     18780     18778     18786     18783     18780     18778     18784
     18783     18780     18778     18785     18783     18780     18778     18786
     18793     18791     18789     18795     18793     18791     18789     18796
     18793     18791     18789     18797     18794     18791     18789     18795
     18794     18791     18789     18796     18794     18791     18789     18797
     18804     18802     18800     18806     18804     18802     18800     18807
     18804     18802     18800     18808     18805     18802     18800     18806
     18805     18802     18800     18807     18805     18802     18800     18808
     18815     18813     18811     18817     18815     18813     18811     18818
     18815     18813     18811     18819     18816     18813     18811     18817
     18816     18813     18811     18818     18816     18813     18811     18819
     18826     18824     18822     18828     18826     18824     18822     18829
     18826     18824     18822     18830     18827     18824     18822     18828
     18827     18824     18822     18829     18827     18824     18822     18830
     18837     18835     18833     18839     18837     18835     18833     18840
     18837     18835     18833     18841     18838     18835     18833     18839
     18838     18835     18833     18840     18838     18835     18833     18841
     18848     18846     18844     18850     18848     18846     18844     18851
     18848     18846     18844     18852     18849     18846     18844     18850
     18849     18846     18844     18851     18849     18846     18844     18852
     18859     18857     18855     18861     18859     18857     18855     18862
     18859     18857     18855     18863     18860     18857     18855     18861
     18860     18857     18855     18862     18860     18857     18855     18863
     18870     18868     18866     18872     18870     18868     18866     18873
     18870     18868     18866     18874     18871     18868     18866     18872
     18871     18868     18866     18873     18871     18868     18866     18874
     18881     18879     18877     18883     18881     18879     18877     18884
     18881     18879     18877     18885     18882     18879     18877     18883
     18882     18879     18877     18884     18882     18879     18877     18885
     18892     18890     18888     18894     18892     18890     18888     18895
     18892     18890     18888     18896     18893     18890     18888     18894
     18893     18890     18888     18895     18893     18890     18888     18896
     18903     18901     18899     18905     18903     18901     18899     18906
     18903     18901     18899     18907     18904     18901     18899     18905
     18904     18901     18899     18906     18904     18901     18899     18907
     18914     18912     18910     18916     18914     18912     18910     18917
     18914     18912     18910     18918     18915     18912     18910     18916
     18915     18912     18910     18917     18915     18912     18910     18918
     18925     18923     18921     18927     18925     18923     18921     18928
     18925     18923     18921     18929     18926     18923     18921     18927
     18926     18923     18921     18928     18926     18923     18921     18929
     18936     18934     18932     18938     18936     18934     18932     18939
     18936     18934     18932     18940     18937     18934     18932     18938
     18937     18934     18932     18939     18937     18934     18932     18940
     18947     18945     18943     18949     18947     18945     18943     18950
     18947     18945     18943     18951     18948     18945     18943     18949
     18948     18945     18943     18950     18948     18945     18943     18951
     18958     18956     18954     18960     18958     18956     18954     18961
     18958     18956     18954     18962     18959     18956     18954     18960
     18959     18956     18954     18961     18959     18956     18954     18962
     18969     18967     18965     18971     18969     18967     18965     18972
     18969     18967     18965     18973     18970     18967     18965     18971
     18970     18967     18965     18972     18970     18967     18965     18973
     18980     18978     18976     18982     18980     18978     18976     18983
     18980     18978     18976     18984     18981     18978     18976     18982
     18981     18978     18976     18983     18981     18978     18976     18984
     18991     18989     18987     18993     18991     18989     18987     18994
     18991     18989     18987     18995     18992     18989     18987     18993
     18992     18989     18987     18994     18992     18989     18987     18995
     19002     19000     18998     19004     19002     19000     18998     19005
     19002     19000     18998     19006     19003     19000     18998     19004
     19003     19000     18998     19005     19003     19000     18998     19006
     19013     19011     19009     19015     19013     19011     19009     19016
     19013     19011     19009     19017     19014     19011     19009     19015
     19014     19011     19009     19016     19014     19011     19009     19017
     19024     19022     19020     19026     19024     19022     19020     19027
     19024     19022     19020     19028     19025     19022     19020     19026
     19025     19022     19020     19027     19025     19022     19020     19028
     19035     19033     19031     19037     19035     19033     19031     19038
     19035     19033     19031     19039     19036     19033     19031     19037
     19036     19033     19031     19038     19036     19033     19031     19039
     19046     19044     19042     19048     19046     19044     19042     19049
     19046     19044     19042     19050     19047     19044     19042     19048
     19047     19044     19042     19049     19047     19044     19042     19050
     19057     19055     19053     19059     19057     19055     19053     19060
     19057     19055     19053     19061     19058     19055     19053     19059
     19058     19055     19053     19060     19058     19055     19053     19061
     19068     19066     19064     19070     19068     19066     19064     19071
     19068     19066     19064     19072     19069     19066     19064     19070
     19069     19066     19064     19071     19069     19066     19064     19072
     19079     19077     19075     19081     19079     19077     19075     19082
     19079     19077     19075     19083     19080     19077     19075     19081
     19080     19077     19075     19082     19080     19077     19075     19083
     19090     19088     19086     19092     19090     19088     19086     19093
     19090     19088     19086     19094     19091     19088     19086     19092
     19091     19088     19086     19093     19091     19088     19086     19094
     19101     19099     19097     19103     19101     19099     19097     19104
     19101     19099     19097     19105     19102     19099     19097     19103
     19102     19099     19097     19104     19102     19099     19097     19105
     19112     19110     19108     19114     19112     19110     19108     19115
     19112     19110     19108     19116     19113     19110     19108     19114
     19113     19110     19108     19115     19113     19110     19108     19116
     19123     19121     19119     19125     19123     19121     19119     19126
     19123     19121     19119     19127     19124     19121     19119     19125
     19124     19121     19119     19126     19124     19121     19119     19127
     19134     19132     19130     19136     19134     19132     19130     19137
     19134     19132     19130     19138     19135     19132     19130     19136
     19135     19132     19130     19137     19135     19132     19130     19138
     19145     19143     19141     19147     19145     19143     19141     19148
     19145     19143     19141     19149     19146     19143     19141     19147
     19146     19143     19141     19148     19146     19143     19141     19149
     19156     19154     19152     19158     19156     19154     19152     19159
     19156     19154     19152     19160     19157     19154     19152     19158
     19157     19154     19152     19159     19157     19154     19152     19160
     19167     19165     19163     19169     19167     19165     19163     19170
     19167     19165     19163     19171     19168     19165     19163     19169
     19168     19165     19163     19170     19168     19165     19163     19171
     19178     19176     19174     19180     19178     19176     19174     19181
     19178     19176     19174     19182     19179     19176     19174     19180
     19179     19176     19174     19181     19179     19176     19174     19182
     19189     19187     19185     19191     19189     19187     19185     19192
     19189     19187     19185     19193     19190     19187     19185     19191
     19190     19187     19185     19192     19190     19187     19185     19193
     19200     19198     19196     19202     19200     19198     19196     19203
     19200     19198     19196     19204     19201     19198     19196     19202
     19201     19198     19196     19203     19201     19198     19196     19204
     19211     19209     19207     19213     19211     19209     19207     19214
     19211     19209     19207     19215     19212     19209     19207     19213
     19212     19209     19207     19214     19212     19209     19207     19215
     19222     19220     19218     19224     19222     19220     19218     19225
     19222     19220     19218     19226     19223     19220     19218     19224
     19223     19220     19218     19225     19223     19220     19218     19226
     19233     19231     19229     19235     19233     19231     19229     19236
     19233     19231     19229     19237     19234     19231     19229     19235
     19234     19231     19229     19236     19234     19231     19229     19237
     19244     19242     19240     19246     19244     19242     19240     19247
     19244     19242     19240     19248     19245     19242     19240     19246
     19245     19242     19240     19247     19245     19242     19240     19248
     19255     19253     19251     19257     19255     19253     19251     19258
     19255     19253     19251     19259     19256     19253     19251     19257
     19256     19253     19251     19258     19256     19253     19251     19259
     19266     19264     19262     19268     19266     19264     19262     19269
     19266     19264     19262     19270     19267     19264     19262     19268
     19267     19264     19262     19269     19267     19264     19262     19270
     19277     19275     19273     19279     19277     19275     19273     19280
     19277     19275     19273     19281     19278     19275     19273     19279
     19278     19275     19273     19280     19278     19275     19273     19281
     19288     19286     19284     19290     19288     19286     19284     19291
     19288     19286     19284     19292     19289     19286     19284     19290
     19289     19286     19284     19291     19289     19286     19284     19292
     19299     19297     19295     19301     19299     19297     19295     19302
     19299     19297     19295     19303     19300     19297     19295     19301
     19300     19297     19295     19302     19300     19297     19295     19303
     19310     19308     19306     19312     19310     19308     19306     19313
     19310     19308     19306     19314     19311     19308     19306     19312
     19311     19308     19306     19313     19311     19308     19306     19314
     19321     19319     19317     19323     19321     19319     19317     19324
     19321     19319     19317     19325     19322     19319     19317     19323
     19322     19319     19317     19324     19322     19319     19317     19325
     19332     19330     19328     19334     19332     19330     19328     19335
     19332     19330     19328     19336     19333     19330     19328     19334
     19333     19330     19328     19335     19333     19330     19328     19336
     19343     19341     19339     19345     19343     19341     19339     19346
     19343     19341     19339     19347     19344     19341     19339     19345
     19344     19341     19339     19346     19344     19341     19339     19347
     19354     19352     19350     19356     19354     19352     19350     19357
     19354     19352     19350     19358     19355     19352     19350     19356
     19355     19352     19350     19357     19355     19352     19350     19358
     19365     19363     19361     19367     19365     19363     19361     19368
     19365     19363     19361     19369     19366     19363     19361     19367
     19366     19363     19361     19368     19366     19363     19361     19369
     19376     19374     19372     19378     19376     19374     19372     19379
     19376     19374     19372     19380     19377     19374     19372     19378
     19377     19374     19372     19379     19377     19374     19372     19380
     19387     19385     19383     19389     19387     19385     19383     19390
     19387     19385     19383     19391     19388     19385     19383     19389
     19388     19385     19383     19390     19388     19385     19383     19391
     19398     19396     19394     19400     19398     19396     19394     19401
     19398     19396     19394     19402     19399     19396     19394     19400
     19399     19396     19394     19401     19399     19396     19394     19402
     19409     19407     19405     19411     19409     19407     19405     19412
     19409     19407     19405     19413     19410     19407     19405     19411
     19410     19407     19405     19412     19410     19407     19405     19413
     19420     19418     19416     19422     19420     19418     19416     19423
     19420     19418     19416     19424     19421     19418     19416     19422
     19421     19418     19416     19423     19421     19418     19416     19424
     19431     19429     19427     19433     19431     19429     19427     19434
     19431     19429     19427     19435     19432     19429     19427     19433
     19432     19429     19427     19434     19432     19429     19427     19435
     19442     19440     19438     19444     19442     19440     19438     19445
     19442     19440     19438     19446     19443     19440     19438     19444
     19443     19440     19438     19445     19443     19440     19438     19446
     19453     19451     19449     19455     19453     19451     19449     19456
     19453     19451     19449     19457     19454     19451     19449     19455
     19454     19451     19449     19456     19454     19451     19449     19457
     19464     19462     19460     19466     19464     19462     19460     19467
     19464     19462     19460     19468     19465     19462     19460     19466
     19465     19462     19460     19467     19465     19462     19460     19468
     19475     19473     19471     19477     19475     19473     19471     19478
     19475     19473     19471     19479     19476     19473     19471     19477
     19476     19473     19471     19478     19476     19473     19471     19479
     19486     19484     19482     19488     19486     19484     19482     19489
     19486     19484     19482     19490     19487     19484     19482     19488
     19487     19484     19482     19489     19487     19484     19482     19490
     19497     19495     19493     19499     19497     19495     19493     19500
     19497     19495     19493     19501     19498     19495     19493     19499
     19498     19495     19493     19500     19498     19495     19493     19501
     19508     19506     19504     19510     19508     19506     19504     19511
     19508     19506     19504     19512     19509     19506     19504     19510
     19509     19506     19504     19511     19509     19506     19504     19512
     19519     19517     19515     19521     19519     19517     19515     19522
     19519     19517     19515     19523     19520     19517     19515     19521
     19520     19517     19515     19522     19520     19517     19515     19523
     19530     19528     19526     19532     19530     19528     19526     19533
     19530     19528     19526     19534     19531     19528     19526     19532
     19531     19528     19526     19533     19531     19528     19526     19534
     19541     19539     19537     19543     19541     19539     19537     19544
     19541     19539     19537     19545     19542     19539     19537     19543
     19542     19539     19537     19544     19542     19539     19537     19545
     19552     19550     19548     19554     19552     19550     19548     19555
     19552     19550     19548     19556     19553     19550     19548     19554
     19553     19550     19548     19555     19553     19550     19548     19556
     19563     19561     19559     19565     19563     19561     19559     19566
     19563     19561     19559     19567     19564     19561     19559     19565
     19564     19561     19559     19566     19564     19561     19559     19567
     19574     19572     19570     19576     19574     19572     19570     19577
     19574     19572     19570     19578     19575     19572     19570     19576
     19575     19572     19570     19577     19575     19572     19570     19578
     19585     19583     19581     19587     19585     19583     19581     19588
     19585     19583     19581     19589     19586     19583     19581     19587
     19586     19583     19581     19588     19586     19583     19581     19589
     19596     19594     19592     19598     19596     19594     19592     19599
     19596     19594     19592     19600     19597     19594     19592     19598
     19597     19594     19592     19599     19597     19594     19592     19600
     19607     19605     19603     19609     19607     19605     19603     19610
     19607     19605     19603     19611     19608     19605     19603     19609
     19608     19605     19603     19610     19608     19605     19603     19611
     19618     19616     19614     19620     19618     19616     19614     19621
     19618     19616     19614     19622     19619     19616     19614     19620
     19619     19616     19614     19621     19619     19616     19614     19622
     19629     19627     19625     19631     19629     19627     19625     19632
     19629     19627     19625     19633     19630     19627     19625     19631
     19630     19627     19625     19632     19630     19627     19625     19633
     19640     19638     19636     19642     19640     19638     19636     19643
     19640     19638     19636     19644     19641     19638     19636     19642
     19641     19638     19636     19643     19641     19638     19636     19644
     19651     19649     19647     19653     19651     19649     19647     19654
     19651     19649     19647     19655     19652     19649     19647     19653
     19652     19649     19647     19654     19652     19649     19647     19655
     19662     19660     19658     19664     19662     19660     19658     19665
     19662     19660     19658     19666     19663     19660     19658     19664
     19663     19660     19658     19665     19663     19660     19658     19666
     19673     19671     19669     19675     19673     19671     19669     19676
     19673     19671     19669     19677     19674     19671     19669     19675
     19674     19671     19669     19676     19674     19671     19669     19677
     19684     19682     19680     19686     19684     19682     19680     19687
     19684     19682     19680     19688     19685     19682     19680     19686
     19685     19682     19680     19687     19685     19682     19680     19688
     19695     19693     19691     19697     19695     19693     19691     19698
     19695     19693     19691     19699     19696     19693     19691     19697
     19696     19693     19691     19698     19696     19693     19691     19699
     19706     19704     19702     19708     19706     19704     19702     19709
     19706     19704     19702     19710     19707     19704     19702     19708
     19707     19704     19702     19709     19707     19704     19702     19710
     19717     19715     19713     19719     19717     19715     19713     19720
     19717     19715     19713     19721     19718     19715     19713     19719
     19718     19715     19713     19720     19718     19715     19713     19721
     19728     19726     19724     19730     19728     19726     19724     19731
     19728     19726     19724     19732     19729     19726     19724     19730
     19729     19726     19724     19731     19729     19726     19724     19732
     19739     19737     19735     19741     19739     19737     19735     19742
     19739     19737     19735     19743     19740     19737     19735     19741
     19740     19737     19735     19742     19740     19737     19735     19743
     19750     19748     19746     19752     19750     19748     19746     19753
     19750     19748     19746     19754     19751     19748     19746     19752
     19751     19748     19746     19753     19751     19748     19746     19754
     19761     19759     19757     19763     19761     19759     19757     19764
     19761     19759     19757     19765     19762     19759     19757     19763
     19762     19759     19757     19764     19762     19759     19757     19765
     19772     19770     19768     19774     19772     19770     19768     19775
     19772     19770     19768     19776     19773     19770     19768     19774
     19773     19770     19768     19775     19773     19770     19768     19776
     19783     19781     19779     19785     19783     19781     19779     19786
     19783     19781     19779     19787     19784     19781     19779     19785
     19784     19781     19779     19786     19784     19781     19779     19787
     19794     19792     19790     19796     19794     19792     19790     19797
     19794     19792     19790     19798     19795     19792     19790     19796
     19795     19792     19790     19797     19795     19792     19790     19798
     19805     19803     19801     19807     19805     19803     19801     19808
     19805     19803     19801     19809     19806     19803     19801     19807
     19806     19803     19801     19808     19806     19803     19801     19809
     19816     19814     19812     19818     19816     19814     19812     19819
     19816     19814     19812     19820     19817     19814     19812     19818
     19817     19814     19812     19819     19817     19814     19812     19820
     19827     19825     19823     19829     19827     19825     19823     19830
     19827     19825     19823     19831     19828     19825     19823     19829
     19828     19825     19823     19830     19828     19825     19823     19831
     19838     19836     19834     19840     19838     19836     19834     19841
     19838     19836     19834     19842     19839     19836     19834     19840
     19839     19836     19834     19841     19839     19836     19834     19842
     19849     19847     19845     19851     19849     19847     19845     19852
     19849     19847     19845     19853     19850     19847     19845     19851
     19850     19847     19845     19852     19850     19847     19845     19853
     19860     19858     19856     19862     19860     19858     19856     19863
     19860     19858     19856     19864     19861     19858     19856     19862
     19861     19858     19856     19863     19861     19858     19856     19864

       672 !NIMPHI: impropers
         8        11         6        10        11         8        17        13
        14         6        17        16        17        14        11        19
         6        14         8         1        28        31        26        30
        31        28        37        33        34        26        37        36
        37        34        31        39        26        34        28        21
        48        51        46        50        51        48        57        53
        54        46        57        56        57        54        51        59
        46        54        48        41        68        71        66        70
        71        68        77        73        74        66        77        76
        77        74        71        79        66        74        68        61
        88        91        86        90        91        88        97        93
        94        86        97        96        97        94        91        99
        86        94        88        81       108       111       106       110
       111       108       117       113       114       106       117       116
       117       114       111       119       106       114       108       101
       128       131       126       130       131       128       137       133
       134       126       137       136       137       134       131       139
       126       134       128       121       148       151       146       150
       151       148       157       153       154       146       157       156
       157       154       151       159       146       154       148       141
       168       171       166       170       171       168       177       173
       174       166       177       176       177       174       171       179
       166       174       168       161       188       191       186       190
       191       188       197       193       194       186       197       196
       197       194       191       199       186       194       188       181
       208       211       206       210       211       208       217       213
       214       206       217       216       217       214       211       219
       206       214       208       201       228       231       226       230
       231       228       237       233       234       226       237       236
       237       234       231       239       226       234       228       221
       248       251       246       250       251       248       257       253
       254       246       257       256       257       254       251       259
       246       254       248       241       268       271       266       270
       271       268       277       273       274       266       277       276
       277       274       271       279       266       274       268       261
       288       291       286       290       291       288       297       293
       294       286       297       296       297       294       291       299
       286       294       288       281       308       311       306       310
       311       308       317       313       314       306       317       316
       317       314       311       319       306       314       308       301
       328       331       326       330       331       328       337       333
       334       326       337       336       337       334       331       339
       326       334       328       321       348       351       346       350
       351       348       357       353       354       346       357       356
       357       354       351       359       346       354       348       341
       368       371       366       370       371       368       377       373
       374       366       377       376       377       374       371       379
       366       374       368       361       388       391       386       390
       391       388       397       393       394       386       397       396
       397       394       391       399       386       394       388       381
       408       411       406       410       411       408       417       413
       414       406       417       416       417       414       411       419
       406       414       408       401       428       431       426       430
       431       428       437       433       434       426       437       436
       437       434       431       439       426       434       428       421
       448       451       446       450       451       448       457       453
       454       446       457       456       457       454       451       459
       446       454       448       441       468       471       466       470
       471       468       477       473       474       466       477       476
       477       474       471       479       466       474       468       461
       488       491       486       490       491       488       497       493
       494       486       497       496       497       494       491       499
       486       494       488       481       508       511       506       510
       511       508       517       513       514       506       517       516
       517       514       511       519       506       514       508       501
       528       531       526       530       531       528       537       533
       534       526       537       536       537       534       531       539
       526       534       528       521       548       551       546       550
       551       548       557       553       554       546       557       556
       557       554       551       559       546       554       548       541
       568       571       566       570       571       568       577       573
       574       566       577       576       577       574       571       579
       566       574       568       561       588       591       586       590
       591       588       597       593       594       586       597       596
       597       594       591       599       586       594       588       581
       608       611       606       610       611       608       617       613
       614       606       617       616       617       614       611       619
       606       614       608       601       628       631       626       630
       631       628       637       633       634       626       637       636
       637       634       631       639       626       634       628       621
       648       651       646       650       651       648       657       653
       654       646       657       656       657       654       651       659
       646       654       648       641       668       663       670       661
       685       680       687       678       702       697       704       695
       719       714       721       712       736       731       738       729
       753       748       755       746       770       765       772       763
       787       782       789       780       804       799       806       797
       821       816       823       814       838       833       840       831
       855       850       857       848       872       867       874       865
       889       884       891       882       906       901       908       899
       923       918       925       916       940       935       942       933
       957       952       959       950       974       969       976       967
       991       986       993       984      1008      1003      1010      1001
      1025      1020      1027      1018      1042      1037      1044      1035
      1059      1054      1061      1052      1076      1071      1078      1069
      1093      1088      1095      1086      1110      1105      1112      1103
      1127      1122      1129      1120      1144      1139      1146      1137
      1161      1156      1163      1154      1178      1173      1180      1171
      1195      1190      1197      1188      1212      1207      1214      1205
      1229      1232      1227      1231      1232      1229      1238      1234
      1235      1227      1238      1237      1238      1235      1232      1240
      1227      1235      1229      1222      1249      1252      1247      1251
      1252      1249      1258      1254      1255      1247      1258      1257
      1258      1255      1252      1260      1247      1255      1249      1242
      1269      1272      1267      1271      1272      1269      1278      1274
      1275      1267      1278      1277      1278      1275      1272      1280
      1267      1275      1269      1262      1289      1292      1287      1291
      1292      1289      1298      1294      1295      1287      1298      1297
      1298      1295      1292      1300      1287      1295      1289      1282
      1309      1312      1307      1311      1312      1309      1318      1314
      1315      1307      1318      1317      1318      1315      1312      1320
      1307      1315      1309      1302      1329      1332      1327      1331
      1332      1329      1338      1334      1335      1327      1338      1337
      1338      1335      1332      1340      1327      1335      1329      1322
      1349      1352      1347      1351      1352      1349      1358      1354
      1355      1347      1358      1357      1358      1355      1352      1360
      1347      1355      1349      1342      1369      1372      1367      1371
      1372      1369      1378      1374      1375      1367      1378      1377
      1378      1375      1372      1380      1367      1375      1369      1362
      1389      1392      1387      1391      1392      1389      1398      1394
      1395      1387      1398      1397      1398      1395      1392      1400
      1387      1395      1389      1382      1409      1412      1407      1411
      1412      1409      1418      1414      1415      1407      1418      1417
      1418      1415      1412      1420      1407      1415      1409      1402
      1429      1432      1427      1431      1432      1429      1438      1434
      1435      1427      1438      1437      1438      1435      1432      1440
      1427      1435      1429      1422      1449      1452      1447      1451
      1452      1449      1458      1454      1455      1447      1458      1457
      1458      1455      1452      1460      1447      1455      1449      1442
      1469      1472      1467      1471      1472      1469      1478      1474
      1475      1467      1478      1477      1478      1475      1472      1480
      1467      1475      1469      1462      1489      1492      1487      1491
      1492      1489      1498      1494      1495      1487      1498      1497
      1498      1495      1492      1500      1487      1495      1489      1482
      1509      1512      1507      1511      1512      1509      1518      1514
      1515      1507      1518      1517      1518      1515      1512      1520
      1507      1515      1509      1502      1529      1532      1527      1531
      1532      1529      1538      1534      1535      1527      1538      1537
      1538      1535      1532      1540      1527      1535      1529      1522
      1549      1552      1547      1551      1552      1549      1558      1554
      1555      1547      1558      1557      1558      1555      1552      1560
      1547      1555      1549      1542      1569      1572      1567      1571
      1572      1569      1578      1574      1575      1567      1578      1577
      1578      1575      1572      1580      1567      1575      1569      1562
      1589      1592      1587      1591      1592      1589      1598      1594
      1595      1587      1598      1597      1598      1595      1592      1600
      1587      1595      1589      1582      1609      1612      1607      1611
      1612      1609      1618      1614      1615      1607      1618      1617
      1618      1615      1612      1620      1607      1615      1609      1602
      1629      1632      1627      1631      1632      1629      1638      1634
      1635      1627      1638      1637      1638      1635      1632      1640
      1627      1635      1629      1622      1649      1652      1647      1651
      1652      1649      1658      1654      1655      1647      1658      1657
      1658      1655      1652      1660      1647      1655      1649      1642
      1669      1672      1667      1671      1672      1669      1678      1674
      1675      1667      1678      1677      1678      1675      1672      1680
      1667      1675      1669      1662      1689      1692      1687      1691
      1692      1689      1698      1694      1695      1687      1698      1697
      1698      1695      1692      1700      1687      1695      1689      1682
      1709      1712      1707      1711      1712      1709      1718      1714
      1715      1707      1718      1717      1718      1715      1712      1720
      1707      1715      1709      1702      1729      1732      1727      1731
      1732      1729      1738      1734      1735      1727      1738      1737
      1738      1735      1732      1740      1727      1735      1729      1722
      1749      1752      1747      1751      1752      1749      1758      1754
      1755      1747      1758      1757      1758      1755      1752      1760
      1747      1755      1749      1742      1769      1772      1767      1771
      1772      1769      1778      1774      1775      1767      1778      1777
      1778      1775      1772      1780      1767      1775      1769      1762
      1789      1792      1787      1791      1792      1789      1798      1794
      1795      1787      1798      1797      1798      1795      1792      1800
      1787      1795      1789      1782      1809      1812      1807      1811
      1812      1809      1818      1814      1815      1807      1818      1817
      1818      1815      1812      1820      1807      1815      1809      1802
      1829      1832      1827      1831      1832      1829      1838      1834
      1835      1827      1838      1837      1838      1835      1832      1840
      1827      1835      1829      1822      1849      1852      1847      1851
      1852      1849      1858      1854      1855      1847      1858      1857
      1858      1855      1852      1860      1847      1855      1849      1842
      1869      1872      1867      1871      1872      1869      1878      1874
      1875      1867      1878      1877      1878      1875      1872      1880
      1867      1875      1869      1862      1889      1892      1887      1891
      1892      1889      1898      1894      1895      1887      1898      1897
      1898      1895      1892      1900      1887      1895      1889      1882
      1909      1912      1907      1911      1912      1909      1918      1914
      1915      1907      1918      1917      1918      1915      1912      1920
      1907      1915      1909      1902      1929      1932      1927      1931
      1932      1929      1938      1934      1935      1927      1938      1937
      1938      1935      1932      1940      1927      1935      1929      1922
      1949      1952      1947      1951      1952      1949      1958      1954
      1955      1947      1958      1957      1958      1955      1952      1960
      1947      1955      1949      1942      1969      1972      1967      1971
      1972      1969      1978      1974      1975      1967      1978      1977
      1978      1975      1972      1980      1967      1975      1969      1962
      1989      1992      1987      1991      1992      1989      1998      1994
      1995      1987      1998      1997      1998      1995      1992      2000
      1987      1995      1989      1982      2009      2012      2007      2011
      2012      2009      2018      2014      2015      2007      2018      2017
      2018      2015      2012      2020      2007      2015      2009      2002
      2029      2032      2027      2031      2032      2029      2038      2034
      2035      2027      2038      2037      2038      2035      2032      2040
      2027      2035      2029      2022      2049      2052      2047      2051
      2052      2049      2058      2054      2055      2047      2058      2057
      2058      2055      2052      2060      2047      2055      2049      2042
      2069      2072      2067      2071      2072      2069      2078      2074
      2075      2067      2078      2077      2078      2075      2072      2080
      2067      2075      2069      2062      2089      2092      2087      2091
      2092      2089      2098      2094      2095      2087      2098      2097
      2098      2095      2092      2100      2087      2095      2089      2082
      2109      2112      2107      2111      2112      2109      2118      2114
      2115      2107      2118      2117      2118      2115      2112      2120
      2107      2115      2109      2102      2129      2132      2127      2131
      2132      2129      2138      2134      2135      2127      2138      2137
      2138      2135      2132      2140      2127      2135      2129      2122
      2149      2152      2147      2151      2152      2149      2158      2154
      2155      2147      2158      2157      2158      2155      2152      2160
      2147      2155      2149      2142      2169      2172      2167      2171
      2172      2169      2178      2174      2175      2167      2178      2177
      2178      2175      2172      2180      2167      2175      2169      2162
      2189      2192      2187      2191      2192      2189      2198      2194
      2195      2187      2198      2197      2198      2195      2192      2200
      2187      2195      2189      2182      2209      2212      2207      2211
      2212      2209      2218      2214      2215      2207      2218      2217
      2218      2215      2212      2220      2207      2215      2209      2202
      2229      2232      2227      2231      2232      2229      2238      2234
      2235      2227      2238      2237      2238      2235      2232      2240
      2227      2235      2229      2222      2249      2252      2247      2251
      2252      2249      2258      2254      2255      2247      2258      2257
      2258      2255      2252      2260      2247      2255      2249      2242
      2269      2272      2267      2271      2272      2269      2278      2274
      2275      2267      2278      2277      2278      2275      2272      2280
      2267      2275      2269      2262      2289      2292      2287      2291
      2292      2289      2298      2294      2295      2287      2298      2297
      2298      2295      2292      2300      2287      2295      2289      2282
      2309      2312      2307      2311      2312      2309      2318      2314
      2315      2307      2318      2317      2318      2315      2312      2320
      2307      2315      2309      2302      2329      2332      2327      2331
      2332      2329      2338      2334      2335      2327      2338      2337
      2338      2335      2332      2340      2327      2335      2329      2322
      2349      2352      2347      2351      2352      2349      2358      2354
      2355      2347      2358      2357      2358      2355      2352      2360
      2347      2355      2349      2342      2369      2372      2367      2371
      2372      2369      2378      2374      2375      2367      2378      2377
      2378      2375      2372      2380      2367      2375      2369      2362
      2389      2392      2387      2391      2392      2389      2398      2394
      2395      2387      2398      2397      2398      2395      2392      2400
      2387      2395      2389      2382      2409      2412      2407      2411
      2412      2409      2418      2414      2415      2407      2418      2417
      2418      2415      2412      2420      2407      2415      2409      2402
      2429      2432      2427      2431      2432      2429      2438      2434
      2435      2427      2438      2437      2438      2435      2432      2440
      2427      2435      2429      2422      2449      2452      2447      2451
      2452      2449      2458      2454      2455      2447      2458      2457
      2458      2455      2452      2460      2447      2455      2449      2442
      2469      2472      2467      2471      2472      2469      2478      2474
      2475      2467      2478      2477      2478      2475      2472      2480
      2467      2475      2469      2462      2489      2492      2487      2491
      2492      2489      2498      2494      2495      2487      2498      2497
      2498      2495      2492      2500      2487      2495      2489      2482
      2509      2512      2507      2511      2512      2509      2518      2514
      2515      2507      2518      2517      2518      2515      2512      2520
      2507      2515      2509      2502      2529      2532      2527      2531
      2532      2529      2538      2534      2535      2527      2538      2537
      2538      2535      2532      2540      2527      2535      2529      2522
      2549      2552      2547      2551      2552      2549      2558      2554
      2555      2547      2558      2557      2558      2555      2552      2560
      2547      2555      2549      2542      2569      2572      2567      2571
      2572      2569      2578      2574      2575      2567      2578      2577
      2578      2575      2572      2580      2567      2575      2569      2562
      2589      2592      2587      2591      2592      2589      2598      2594
      2595      2587      2598      2597      2598      2595      2592      2600
      2587      2595      2589      2582      2609      2612      2607      2611
      2612      2609      2618      2614      2615      2607      2618      2617
      2618      2615      2612      2620      2607      2615      2609      2602
      2629      2632      2627      2631      2632      2629      2638      2634
      2635      2627      2638      2637      2638      2635      2632      2640
      2627      2635      2629      2622      2649      2652      2647      2651
      2652      2649      2658      2654      2655      2647      2658      2657
      2658      2655      2652      2660      2647      2655      2649      2642
      2669      2672      2667      2671      2672      2669      2678      2674
      2675      2667      2678      2677      2678      2675      2672      2680
      2667      2675      2669      2662      2689      2692      2687      2691
      2692      2689      2698      2694      2695      2687      2698      2697
      2698      2695      2692      2700      2687      2695      2689      2682
      2709      2712      2707      2711      2712      2709      2718      2714
      2715      2707      2718      2717      2718      2715      2712      2720
      2707      2715      2709      2702      2729      2732      2727      2731
      2732      2729      2738      2734      2735      2727      2738      2737
      2738      2735      2732      2740      2727      2735      2729      2722
      2749      2752      2747      2751      2752      2749      2758      2754
      2755      2747      2758      2757      2758      2755      2752      2760
      2747      2755      2749      2742      2769      2772      2767      2771
      2772      2769      2778      2774      2775      2767      2778      2777
      2778      2775      2772      2780      2767      2775      2769      2762
      2789      2784      2791      2782      2806      2801      2808      2799
      2823      2818      2825      2816      2840      2835      2842      2833
      2857      2852      2859      2850      2874      2869      2876      2867
      2891      2886      2893      2884      2908      2903      2910      2901
      2925      2920      2927      2918      2942      2937      2944      2935
      2959      2954      2961      2952      2976      2971      2978      2969
      2993      2988      2995      2986      3010      3005      3012      3003
      3027      3022      3029      3020      3044      3039      3046      3037
      3061      3056      3063      3054      3078      3073      3080      3071
      3095      3090      3097      3088      3112      3107      3114      3105
      3129      3124      3131      3122      3146      3141      3148      3139
      3163      3158      3165      3156      3180      3175      3182      3173
      3197      3192      3199      3190      3214      3209      3216      3207
      3231      3226      3233      3224      3248      3243      3250      3241
      3265      3260      3267      3258      3282      3277      3284      3275
      3299      3294      3301      3292      3316      3311      3318      3309
      3333      3328      3335      3326      3350      3345      3352      3343
      3367      3362      3369      3360      3384      3379      3386      3377
      3401      3396      3403      3394      3418      3413      3420      3411
      3435      3430      3437      3428      3452      3447      3454      3445
      3469      3464      3471      3462      3486      3481      3488      3479
      3503      3498      3505      3496      3520      3515      3522      3513
      3537      3532      3539      3530      3554      3549      3556      3547
      3571      3566      3573      3564      3588      3583      3590      3581
      3605      3600      3607      3598      3622      3617      3624      3615
      3639      3634      3641      3632      3656      3651      3658      3649
      3673      3668      3675      3666      3690      3685      3692      3683
      3707      3702      3709      3700      3724      3719      3726      3717
      3741      3736      3743      3734      3758      3753      3760      3751
      3775      3770      3777      3768      3792      3787      3794      3785
      3809      3804      3811      3802      3826      3821      3828      3819
      3843      3838      3845      3836      3860      3855      3862      3853
      3877      3872      3879      3870      3894      3889      3896      3887
      3911      3906      3913      3904      3928      3923      3930      3921
      3945      3940      3947      3938      3962      3957      3964      3955
      3979      3974      3981      3972      3996      3991      3998      3989
      4013      4008      4015      4006      4030      4025      4032      4023
      4047      4042      4049      4040      4064      4059      4066      4057
      4081      4076      4083      4074      4098      4093      4100      4091
      4115      4110      4117      4108      4132      4127      4134      4125
      4149      4144      4151      4142      4166      4161      4168      4159
      4183      4178      4185      4176      4200      4195      4202      4193

         0 !NDON: donors


         0 !NACC: acceptors


         0 !NNB

         0         0         0         0         0         0         0         0
         0         0         0         0         0         0         0         0
         0         0         0         0         0         0         0         0
         0         0         0         0         0         0         0         0
         0         0         0         0         0         0         0         0
         0         0         0         0         0         0         0         0
         0         0         0         0         0         0         0         0
         0         0         0         0         0         0         0         0
         0         0         0         0         0         0         0         0
         0         0         0         0         0         0         0         0
         0         0         0         0         0         0         0         0
         0         0         0         0         0         0         0         0
         0         0         0         0         0         0         0         0
         0         0         0         0         0         0         0         0
         0         0         0         0         0         0         0         0
         0         0         0         0         0         0         0         0
         0         0         0         0         0         0         0         0
         0         0         0         0         0         0         0         0
         0         0         0         0         0         0         0         0
         0         0         0         0         0         0         0         0
         0         0         0         0         0         0         0         0
         0         0         0         0         0         0         0         0
         0         0         0         0         0         0         0         0
         0         0         0         0         0         0         0         0
         0         0         0         0         0         0         0         0
         0         0         0         0         0         0         0         0
         0         0         0         0         0         0         0         0
         0         0         0         0         0         0         0         0
         0         0         0         0         0         0         0         0
         0         0         0         0         0         0         0         0
         0         0         0         0         0         0         0         0
         0         0         0         0         0         0         0         0
         0         0         0         0         0         0         0         0
         0         0         0         0         0         0         0         0
         0         0         0         0         0         0         0         0
         0         0         0         0         0         0         0         0
         0         0         0         0         0         0         0         0
         0         0         0         0         0         0         0         0
         0         0         0         0         0         0         0         0
         0         0         0         0         0         0         0         0
         0         0         0         0         0         0         0         0
         0         0         0         0         0         0         0         0
         0         0         0         0         0         0         0         0
         0         0         0         0         0         0         0         0
         0         0         0         0         0         0         0         0
         0         0         0         0         0         0         0         0
         0         0         0         0         0         0         0         0
         0         0         0         0         0         0         0         0
         0         0         0         0         0         0         0         0
         0         0         0         0         0         0         0         0
         0         0         0         0         0         0         0         0
         0         0         0         0         0         0         0         0
         0         0         0         0         0         0         0         0
         0         0         0         0         0         0         0         0
         0         0         0         0         0         0         0         0
         0         0         0         0         0         0         0         0
         0         0         0         0         0         0         0         0
         0         0         0         0         0         0         0         0
         0         0         0         0         0         0         0         0
         0         0         0         0         0         0         0         0
         0         0         0         0         0         0         0         0
         0         0         0         0         0         0         0         0
         0         0         0         0         0         0         0         0
         0         0         0         0         0         0         0         0
         0         0         0         0         0         0         0         0
         0         0         0         0         0         0         0         0
         0         0         0         0         0         0         0         0
         0         0         0         0         0         0         0         0
         0         0         0         0         0         0         0         0
         0         0         0         0         0         0         0         0
         0         0         0         0         0         0         0         0
         0         0         0         0         0         0         0         0
         0         0         0         0         0         0         0         0
         0         0         0         0         0         0         0         0
         0         0         0         0         0         0         0         0
         0         0         0         0         0         0         0         0
         0         0         0         0         0         0         0         0
         0         0         0         0         0         0         0         0
         0         0         0         0         0         0         0         0
         0         0         0         0         0         0         0         0
         0         0         0         0         0         0         0         0
         0         0         0         0         0         0         0         0
         0         0         0         0         0         0         0         0
         0         0         0         0         0         0         0         0
         0         0         0         0         0         0         0         0
         0         0         0         0         0         0         0         0
         0         0         0         0         0         0         0         0
         0         0         0         0         0         0         0         0
         0         0         0         0         0         0         0         0
         0         0         0         0         0         0         0         0
         0         0         0         0         0         0         0         0
         0         0         0         0         0         0         0         0
         0         0         0         0         0         0         0         0
         0         0         0         0         0         0         0         0
         0         0         0         0         0         0         0         0
         0         0         0         0         0         0         0         0
         0         0         0         0         0         0         0         0
         0         0         0         0         0         0         0         0
         0         0         0         0         0         0         0         0
         0         0         0         0         0         0         0         0
         0         0         0         0         0         0         0         0
         0         0         0         0         0         0         0         0
         0         0         0         0         0         0         0         0
         0         0         0         0         0         0         0         0
         0         0         0         0         0         0         0         0
         0         0         0         0         0         0         0         0
         0         0         0         0         0         0         0         0
         0         0         0         0         0         0         0         0
         0         0         0         0         0         0         0         0
         0         0         0         0         0         0         0         0
         0         0         0         0         0         0         0         0
         0         0         0         0         0         0         0         0
         0         0         0         0         0         0         0         0
         0         0         0         0         0         0         0         0
         0         0         0         0         0         0         0         0
         0         0         0         0         0         0         0         0
         0         0         0         0         0         0         0         0
         0         0         0         0         0         0         0         0
         0         0         0         0         0         0         0         0
         0         0         0         0         0         0         0         0
         0         0         0         0         0         0         0         0
         0         0         0         0         0         0         0         0
         0         0         0         0         0         0         0         0
         0         0         0         0         0         0         0         0
         0         0         0         0         0         0         0         0
         0         0         0         0         0         0         0         0
         0         0         0         0         0         0         0         0
         0         0         0         0         0         0         0         0
         0         0         0         0         0         0         0         0
         0         0         0         0         0         0         0         0
         0         0         0         0         0         0         0         0
         0         0         0         0         0         0         0         0
         0         0         0         0         0         0         0         0
         0         0         0         0         0         0         0         0
         0         0         0         0         0         0         0         0
         0         0         0         0         0         0         0         0
         0         0         0         0         0         0         0         0
         0         0         0         0         0         0         0         0
         0         0         0         0         0         0         0         0
         0         0         0         0         0         0         0         0
         0         0         0         0         0         0         0         0
         0         0         0         0         0         0         0         0
         0         0         0         0         0         0         0         0
         0         0         0         0         0         0         0         0
         0         0         0         0         0         0         0         0
         0         0         0         0         0         0         0         0
         0         0         0         0         0         0         0         0
         0         0         0         0         0         0         0         0
         0         0         0         0         0         0         0         0
         0         0         0         0         0         0         0         0
         0         0         0         0         0         0         0         0
         0         0         0         0         0         0         0         0
         0         0         0         0         0         0         0         0
         0         0         0         0         0         0         0         0
         0         0         0         0         0         0         0         0
         0         0         0         0         0         0         0         0
         0         0         0         0         0         0         0         0
         0         0         0         0         0         0         0         0
         0         0         0         0         0         0         0         0
         0         0         0         0         0         0         0         0
         0         0         0         0         0         0         0         0
         0         0         0         0         0         0         0         0
         0         0         0         0         0         0         0         0
         0         0         0         0         0         0         0         0
         0         0         0         0         0         0         0         0
         0         0         0         0         0         0         0         0
         0         0         0         0         0         0         0         0
         0         0         0         0         0         0         0         0
         0         0         0         0         0         0         0         0
         0         0         0         0         0         0         0         0
         0         0         0         0         0         0         0         0
         0         0         0         0         0         0         0         0
         0         0         0         0         0         0         0         0
         0         0         0         0         0         0         0         0
         0         0         0         0         0         0         0         0
         0         0         0         0         0         0         0         0
         0         0         0         0         0         0         0         0
         0         0         0         0         0         0         0         0
         0         0         0         0         0         0         0         0
         0         0         0         0         0         0         0         0
         0         0         0         0         0         0         0         0
         0         0         0         0         0         0         0         0
         0         0         0         0         0         0         0         0
         0         0         0         0         0         0         0         0
         0         0         0         0         0         0         0         0
         0         0         0         0         0         0         0         0
         0         0         0         0         0         0         0         0
         0         0         0         0         0         0         0         0
         0         0         0         0         0         0         0         0
         0         0         0         0         0         0         0         0
         0         0         0         0         0         0         0         0
         0         0         0         0         0         0         0         0
         0         0         0         0         0         0         0         0
         0         0         0         0         0         0         0         0
         0         0         0         0         0         0         0         0
         0         0         0         0         0         0         0         0
         0         0         0         0         0         0         0         0
         0         0         0         0         0         0         0         0
         0         0         0         0         0         0         0         0
         0         0         0         0         0         0         0         0
         0         0         0         0         0         0         0         0
         0         0         0         0         0         0         0         0
         0         0         0         0         0         0         0         0
         0         0         0         0         0         0         0         0
         0         0         0         0         0         0         0         0
         0         0         0         0         0         0         0         0
         0         0         0         0         0         0         0         0
         0         0         0         0         0         0         0         0
         0         0         0         0         0         0         0         0
         0         0         0         0         0         0         0         0
         0         0         0         0         0         0         0         0
         0         0         0         0         0         0         0         0
         0         0         0         0         0         0         0         0
         0         0         0         0         0         0         0         0
         0         0         0         0         0         0         0         0
         0         0         0         0         0         0         0         0
         0         0         0         0         0         0         0         0
         0         0         0         0         0         0         0         0
         0         0         0         0         0         0         0         0
         0         0         0         0         0         0         0         0
         0         0         0         0         0         0         0         0
         0         0         0         0         0         0         0         0
         0         0         0         0         0         0         0         0
         0         0         0         0         0         0         0         0
         0         0         0         0         0         0         0         0
         0         0         0         0         0         0         0         0
         0         0         0         0         0         0         0         0
         0         0         0         0         0         0         0         0
         0         0         0         0         0         0         0         0
         0         0         0         0         0         0         0         0
         0         0         0         0         0         0         0         0
         0         0         0         0         0         0         0         0
         0         0         0         0         0         0         0         0
         0         0         0         0         0         0         0         0
         0         0         0         0         0         0         0         0
         0         0         0         0         0         0         0         0
         0         0         0         0         0         0         0         0
         0         0         0         0         0         0         0         0
         0         0         0         0         0         0         0         0
         0         0         0         0         0         0         0         0
         0         0         0         0         0         0         0         0
         0         0         0         0         0         0         0         0
         0         0         0         0         0         0         0         0
         0         0         0         0         0         0         0         0
         0         0         0         0         0         0         0         0
         0         0         0         0         0         0         0         0
         0         0         0         0         0         0         0         0
         0         0         0         0         0         0         0         0
         0         0         0         0         0         0         0         0
         0         0         0         0         0         0         0         0
         0         0         0         0         0         0         0         0
         0         0         0         0         0         0         0         0
         0         0         0         0         0         0         0         0
         0         0         0         0         0         0         0         0
         0         0         0         0         0         0         0         0
         0         0         0         0         0         0         0         0
         0         0         0         0         0         0         0         0
         0         0         0         0         0         0         0         0
         0         0         0         0         0         0         0         0
         0         0         0         0         0         0         0         0
         0         0         0         0         0         0         0         0
         0         0         0         0         0         0         0         0
         0         0         0         0         0         0         0         0
         0         0         0         0         0         0         0         0
         0         0         0         0         0         0         0         0
         0         0         0         0         0         0         0         0
         0         0         0         0         0         0         0         0
         0         0         0         0         0         0         0         0
         0         0         0         0         0         0         0         0
         0         0         0         0         0         0         0         0
         0         0         0         0         0         0         0         0
         0         0         0         0         0         0         0         0
         0         0         0         0         0         0         0         0
         0         0         0         0         0         0         0         0
         0         0         0         0         0         0         0         0
         0         0         0         0         0         0         0         0
         0         0         0         0         0         0         0         0
         0         0         0         0         0         0         0         0
         0         0         0         0         0         0         0         0
         0         0         0         0         0         0         0         0
         0         0         0         0         0         0         0         0
         0         0         0         0         0         0         0         0
         0         0         0         0         0         0         0         0
         0         0         0         0         0         0         0         0
         0         0         0         0         0         0         0         0
         0         0         0         0         0         0         0         0
         0         0         0         0         0         0         0         0
         0         0         0         0         0         0         0         0
         0         0         0         0         0         0         0         0
         0         0         0         0         0         0         0         0
         0         0         0         0         0         0         0         0
         0         0         0         0         0         0         0         0
         0         0         0         0         0         0         0         0
         0         0         0         0         0         0         0         0
         0         0         0         0         0         0         0         0
         0         0         0         0         0         0         0         0
         0         0         0         0         0         0         0         0
         0         0         0         0         0         0         0         0
         0         0         0         0         0         0         0         0
         0         0         0         0         0         0         0         0
         0         0         0         0         0         0         0         0
         0         0         0         0         0         0         0         0
         0         0         0         0         0         0         0         0
         0         0         0         0         0         0         0         0
         0         0         0         0         0         0         0         0
         0         0         0         0         0         0         0         0
         0         0         0         0         0         0         0         0
         0         0         0         0         0         0         0         0
         0         0         0         0         0         0         0         0
         0         0         0         0         0         0         0         0
         0         0         0         0         0         0         0         0
         0         0         0         0         0         0         0         0
         0         0         0         0         0         0         0         0
         0         0         0         0         0         0         0         0
         0         0         0         0         0         0         0         0
         0         0         0         0         0         0         0         0
         0         0         0         0         0         0         0         0
         0         0         0         0         0         0         0         0
         0         0         0         0         0         0         0         0
         0         0         0         0         0         0         0         0
         0         0         0         0         0         0         0         0
         0         0         0         0         0         0         0         0
         0         0         0         0         0         0         0         0
         0         0         0         0         0         0         0         0
         0         0         0         0         0         0         0         0
         0         0         0         0         0         0         0         0
         0         0         0         0         0         0         0         0
         0         0         0         0         0         0         0         0
         0         0         0         0         0         0         0         0
         0         0         0         0         0         0         0         0
         0         0         0         0         0         0         0         0
         0         0         0         0         0         0         0         0
         0         0         0         0         0         0         0         0
         0         0         0         0         0         0         0         0
         0         0         0         0         0         0         0         0
         0         0         0         0         0         0         0         0
         0         0         0         0         0         0         0         0
         0         0         0         0         0         0         0         0
         0         0         0         0         0         0         0         0
         0         0         0         0         0         0         0         0
         0         0         0         0         0         0         0         0
         0         0         0         0         0         0         0         0
         0         0         0         0         0         0         0         0
         0         0         0         0         0         0         0         0
         0         0         0         0         0         0         0         0
         0         0         0         0         0         0         0         0
         0         0         0         0         0         0         0         0
         0         0         0         0         0         0         0         0
         0         0         0         0         0         0         0         0
         0         0         0         0         0         0         0         0
         0         0         0         0         0         0         0         0
         0         0         0         0         0         0         0         0
         0         0         0         0         0         0         0         0
         0         0         0         0         0         0         0         0
         0         0         0         0         0         0         0         0
         0         0         0         0         0         0         0         0
         0         0         0         0         0         0         0         0
         0         0         0         0         0         0         0         0
         0         0         0         0         0         0         0         0
         0         0         0         0         0         0         0         0
         0         0         0         0         0         0         0         0
         0         0         0         0         0         0         0         0
         0         0         0         0         0         0         0         0
         0         0         0         0         0         0         0         0
         0         0         0         0         0         0         0         0
         0         0         0         0         0         0         0         0
         0         0         0         0         0         0         0         0
         0         0         0         0         0         0         0         0
         0         0         0         0         0         0         0         0
         0         0         0         0         0         0         0         0
         0         0         0         0         0         0         0         0
         0         0         0         0         0         0         0         0
         0         0         0         0         0         0         0         0
         0         0         0         0         0         0         0         0
         0         0         0         0         0         0         0         0
         0         0         0         0         0         0         0         0
         0         0         0         0         0         0         0         0
         0         0         0         0         0         0         0         0
         0         0         0         0         0         0         0         0
         0         0         0         0         0         0         0         0
         0         0         0         0         0         0         0         0
         0         0         0         0         0         0         0         0
         0         0         0         0         0         0         0         0
         0         0         0         0         0         0         0         0
         0         0         0         0         0         0         0         0
         0         0         0         0         0         0         0         0
         0         0         0         0         0         0         0         0
         0         0         0         0         0         0         0         0
         0         0         0         0         0         0         0         0
         0         0         0         0         0         0         0         0
         0         0         0         0         0         0         0         0
         0         0         0         0         0         0         0         0
         0         0         0         0         0         0         0         0
         0         0         0         0         0         0         0         0
         0         0         0         0         0         0         0         0
         0         0         0         0         0         0         0         0
         0         0         0         0         0         0         0         0
         0         0         0         0         0         0         0         0
         0         0         0         0         0         0         0         0
         0         0         0         0         0         0         0         0
         0         0         0         0         0         0         0         0
         0         0         0         0         0         0         0         0
         0         0         0         0         0         0         0         0
         0         0         0         0         0         0         0         0
         0         0         0         0         0         0         0         0
         0         0         0         0         0         0         0         0
         0         0         0         0         0         0         0         0
         0         0         0         0         0         0         0         0
         0         0         0         0         0         0         0         0
         0         0         0         0         0         0         0         0
         0         0         0         0         0         0         0         0
         0         0         0         0         0         0         0         0
         0         0         0         0         0         0         0         0
         0         0         0         0         0         0         0         0
         0         0         0         0         0         0         0         0
         0         0         0         0         0         0         0         0
         0         0         0         0         0         0         0         0
         0         0         0         0         0         0         0         0
         0         0         0         0         0         0         0         0
         0         0         0         0         0         0         0         0
         0         0         0         0         0         0         0         0
         0         0         0         0         0         0         0         0
         0         0         0         0         0         0         0         0
         0         0         0         0         0         0         0         0
         0         0         0         0         0         0         0         0
         0         0         0         0         0         0         0         0
         0         0         0         0         0         0         0         0
         0         0         0         0         0         0         0         0
         0         0         0         0         0         0         0         0
         0         0         0         0         0         0         0         0
         0         0         0         0         0         0         0         0
         0         0         0         0         0         0         0         0
         0         0         0         0         0         0         0         0
         0         0         0         0         0         0         0         0
         0         0         0         0         0         0         0         0
         0         0         0         0         0         0         0         0
         0         0         0         0         0         0         0         0
         0         0         0         0         0         0         0         0
         0         0         0         0         0         0         0         0
         0         0         0         0         0         0         0         0
         0         0         0         0         0         0         0         0
         0         0         0         0         0         0         0         0
         0         0         0         0         0         0         0         0
         0         0         0         0         0         0         0         0
         0         0         0         0         0         0         0         0
         0         0         0         0         0         0         0         0
         0         0         0         0         0         0         0         0
         0         0         0         0         0         0         0         0
         0         0         0         0         0         0         0         0
         0         0         0         0         0         0         0         0
         0         0         0         0         0         0         0         0
         0         0         0         0         0         0         0         0
         0         0         0         0         0         0         0         0
         0         0         0         0         0         0         0         0
         0         0         0         0         0         0         0         0
         0         0         0         0         0         0         0         0
         0         0         0         0         0         0         0         0
         0         0         0         0         0         0         0         0
         0         0         0         0         0         0         0         0
         0         0         0         0         0         0         0         0
         0         0         0         0         0         0         0         0
         0         0         0         0         0         0         0         0
         0         0         0         0         0         0         0         0
         0         0         0         0         0         0         0         0
         0         0         0         0         0         0         0         0
         0         0         0         0         0         0         0         0
         0         0         0         0         0         0         0         0
         0         0         0         0         0         0         0         0
         0         0         0         0         0         0         0         0
         0         0         0         0         0         0         0         0
         0         0         0         0         0         0         0         0
         0         0         0         0         0         0         0         0
         0         0         0         0         0         0         0         0
         0         0         0         0         0         0         0         0
         0         0         0         0         0         0         0         0
         0         0         0         0         0         0         0         0
         0         0         0         0         0         0         0         0
         0         0         0         0         0         0         0         0
         0         0         0         0         0         0         0         0
         0         0         0         0         0         0         0         0
         0         0         0         0         0         0         0         0
         0         0         0         0         0         0         0         0
         0         0         0         0         0         0         0         0
         0         0         0         0         0         0         0         0
         0         0         0         0         0         0         0         0
         0         0         0         0         0         0         0         0
         0         0         0         0         0         0         0         0
         0         0         0         0         0         0         0         0
         0         0         0         0         0         0         0         0
         0         0         0         0         0         0         0         0
         0         0         0         0         0         0         0         0
         0         0         0         0         0         0         0         0
         0         0         0         0         0         0         0         0
         0         0         0         0         0         0         0         0
         0         0         0         0         0         0         0         0
         0         0         0         0         0         0         0         0
         0         0         0         0         0         0         0         0
         0         0         0         0         0         0         0         0
         0         0         0         0         0         0         0         0
         0         0         0         0         0         0         0         0
         0         0         0         0         0         0         0         0
         0         0         0         0         0         0         0         0
         0         0         0         0         0         0         0         0
         0         0         0         0         0         0         0         0
         0         0         0         0         0         0         0         0
         0         0         0         0         0         0         0         0
         0         0         0         0         0         0         0         0
         0         0         0         0         0         0         0         0
         0         0         0         0         0         0         0         0
         0         0         0         0         0         0         0         0
         0         0         0         0         0         0         0         0
         0         0         0         0         0         0         0         0
         0         0         0         0         0         0         0         0
         0         0         0         0         0         0         0         0
         0         0         0         0         0         0         0         0
         0         0         0         0         0         0         0         0
         0         0         0         0         0         0         0         0
         0         0         0         0         0         0         0         0
         0         0         0         0         0         0         0         0
         0         0         0         0         0         0         0         0
         0         0         0         0         0         0         0         0
         0         0         0         0         0         0         0         0
         0         0         0         0         0         0         0         0
         0         0         0         0         0         0         0         0
         0         0         0         0         0         0         0         0
         0         0         0         0         0         0         0         0
         0         0         0         0         0         0         0         0
         0         0         0         0         0         0         0         0
         0         0         0         0         0         0         0         0
         0         0         0         0         0         0         0         0
         0         0         0         0         0         0         0         0
         0         0         0         0         0         0         0         0
         0         0         0         0         0         0         0         0
         0         0         0         0         0         0         0         0
         0         0         0         0         0         0         0         0
         0         0         0         0         0         0         0         0
         0         0         0         0         0         0         0         0
         0         0         0         0         0         0         0         0
         0         0         0         0         0         0         0         0
         0         0         0         0         0         0         0         0
         0         0         0         0         0         0         0         0
         0         0         0         0         0         0         0         0
         0         0         0         0         0         0         0         0
         0         0         0         0         0         0         0         0
         0         0         0         0         0         0         0         0
         0         0         0         0         0         0         0         0
         0         0         0         0         0         0         0         0
         0         0         0         0         0         0         0         0
         0         0         0         0         0         0         0         0
         0         0         0         0         0         0         0         0
         0         0         0         0         0         0         0         0
         0         0         0         0         0         0         0         0
         0         0         0         0         0         0         0         0
         0         0         0         0         0         0         0         0
         0         0         0         0         0         0         0         0
         0         0         0         0         0         0         0         0
         0         0         0         0         0         0         0         0
         0         0         0         0         0         0         0         0
         0         0         0         0         0         0         0         0
         0         0         0         0         0         0         0         0
         0         0         0         0         0         0         0         0
         0         0         0         0         0         0         0         0
         0         0         0         0         0         0         0         0
         0         0         0         0         0         0         0         0
         0         0         0         0         0         0         0         0
         0         0         0         0         0         0         0         0
         0         0         0         0         0         0         0         0
         0         0         0         0         0         0         0         0
         0         0         0         0         0         0         0         0
         0         0         0         0         0         0         0         0
         0         0         0         0         0         0         0         0
         0         0         0         0         0         0         0         0
         0         0         0         0         0         0         0         0
         0         0         0         0         0         0         0         0
         0         0         0         0         0         0         0         0
         0         0         0         0         0         0         0         0
         0         0         0         0         0         0         0         0
         0         0         0         0         0         0         0         0
         0         0         0         0         0         0         0         0
         0         0         0         0         0         0         0         0
         0         0         0         0         0         0         0         0
         0         0         0         0         0         0         0         0
         0         0         0         0         0         0         0         0
         0         0         0         0         0         0         0         0
         0         0         0         0         0         0         0         0
         0         0         0         0         0         0         0         0
         0         0         0         0         0         0         0         0
         0         0         0         0         0         0         0         0
         0         0         0         0         0         0         0         0
         0         0         0         0         0         0         0         0
         0         0         0         0         0         0         0         0
         0         0         0         0         0         0         0         0
         0         0         0         0         0         0         0         0
         0         0         0         0         0         0         0         0
         0         0         0         0         0         0         0         0
         0         0         0         0         0         0         0         0
         0         0         0         0         0         0         0         0
         0         0         0         0         0         0         0         0
         0         0         0         0         0         0         0         0
         0         0         0         0         0         0         0         0
         0         0         0         0         0         0         0         0
         0         0         0         0         0         0         0         0
         0         0         0         0         0         0         0         0
         0         0         0         0         0         0         0         0
         0         0         0         0         0         0         0         0
         0         0         0         0         0         0         0         0
         0         0         0         0         0         0         0         0
         0         0         0         0         0         0         0         0
         0         0         0         0         0         0         0         0
         0         0         0         0         0         0         0         0
         0         0         0         0         0         0         0         0
         0         0         0         0         0         0         0         0
         0         0         0         0         0         0         0         0
         0         0         0         0         0         0         0         0
         0         0         0         0         0         0         0         0
         0         0         0         0         0         0         0         0
         0         0         0         0         0         0         0         0
         0         0         0         0         0         0         0         0
         0         0         0         0         0         0         0         0
         0         0         0         0         0         0         0         0
         0         0         0         0         0         0         0         0
         0         0         0         0         0         0         0         0
         0         0         0         0         0         0         0         0
         0         0         0         0         0         0         0         0
         0         0         0         0         0         0         0         0
         0         0         0         0         0         0         0         0
         0         0         0         0         0         0         0         0
         0         0         0         0         0         0         0         0
         0         0         0         0         0         0         0         0
         0         0         0         0         0         0         0         0
         0         0         0         0         0         0         0         0
         0         0         0         0         0         0         0         0
         0         0         0         0         0         0         0         0
         0         0         0         0         0         0         0         0
         0         0         0         0         0         0         0         0
         0         0         0         0         0         0         0         0
         0         0         0         0         0         0         0         0
         0         0         0         0         0         0         0         0
         0         0         0         0         0         0         0         0
         0         0         0         0         0         0         0         0
         0         0         0         0         0         0         0         0
         0         0         0         0         0         0         0         0
         0         0         0         0         0         0         0         0
         0         0         0         0         0         0         0         0
         0         0         0         0         0         0         0         0
         0         0         0         0         0         0         0         0
         0         0         0         0         0         0         0         0
         0         0         0         0         0         0         0         0
         0         0         0         0         0         0         0         0
         0         0         0         0         0         0         0         0
         0         0         0         0         0         0         0         0
         0         0         0         0         0         0         0         0
         0         0         0         0         0         0         0         0
         0         0         0         0         0         0         0         0
         0         0         0         0         0         0         0         0
         0         0         0         0         0         0         0         0
         0         0         0         0         0         0         0         0
         0         0         0         0         0         0         0         0
         0         0         0         0         0         0         0         0
         0         0         0         0         0         0         0         0
         0         0         0         0         0         0         0         0
         0         0         0         0         0         0         0         0
         0         0         0         0         0         0         0         0
         0         0         0         0         0         0         0         0
         0         0         0         0         0         0         0         0
         0         0         0         0         0         0         0         0
         0         0         0         0         0         0         0         0
         0         0         0         0         0         0         0         0
         0         0         0         0         0         0         0         0
         0         0         0         0         0         0         0         0
         0         0         0         0         0         0         0         0
         0         0         0         0         0         0         0         0
         0         0         0         0         0         0         0         0
         0         0         0         0         0         0         0         0
         0         0         0         0         0         0         0         0
         0         0         0         0         0         0         0         0
         0         0         0         0         0         0         0         0
         0         0         0         0         0         0         0         0
         0         0         0         0         0         0         0         0
         0         0         0         0         0         0         0         0
         0         0         0         0         0         0         0         0
         0         0         0         0         0         0         0         0
         0         0         0         0         0         0         0         0
         0         0         0         0         0         0         0         0
         0         0         0         0         0         0         0         0
         0         0         0         0         0         0         0         0
         0         0         0         0         0         0         0         0
         0         0         0         0         0         0         0         0
         0         0         0         0         0         0         0         0
         0         0         0         0         0         0         0         0
         0         0         0         0         0         0         0         0
         0         0         0         0         0         0         0         0
         0         0         0         0         0         0         0         0
         0         0         0         0         0         0         0         0
         0         0         0         0         0         0         0         0
         0         0         0         0         0         0         0         0
         0         0         0         0         0         0         0         0
         0         0         0         0         0         0         0         0
         0         0         0         0         0         0         0         0
         0         0         0         0         0         0         0         0
         0         0         0         0         0         0         0         0
         0         0         0         0         0         0         0         0
         0         0         0         0         0         0         0         0
         0         0         0         0         0         0         0         0
         0         0         0         0         0         0         0         0
         0         0         0         0         0         0         0         0
         0         0         0         0         0         0         0         0
         0         0         0         0         0         0         0         0
         0         0         0         0         0         0         0         0
         0         0         0         0         0         0         0         0
         0         0         0         0         0         0         0         0
         0         0         0         0         0         0         0         0
         0         0         0         0         0         0         0         0
         0         0         0         0         0         0         0         0
         0         0         0         0         0         0         0         0
         0         0         0         0         0         0         0         0
         0         0         0         0         0         0         0         0
         0         0         0         0         0         0         0         0
         0         0         0         0         0         0         0         0
         0         0         0         0         0         0         0         0
         0         0         0         0         0         0         0         0
         0         0         0         0         0         0         0         0
         0         0         0         0         0         0         0         0
         0         0         0         0         0         0         0         0
         0         0         0         0         0         0         0         0
         0         0         0         0         0         0         0         0
         0         0         0         0         0         0         0         0
         0         0         0         0         0         0         0         0
         0         0         0         0         0         0         0         0
         0         0         0         0         0         0         0         0
         0         0         0         0         0         0         0         0
         0         0         0         0         0         0         0         0
         0         0         0         0         0         0         0         0
         0         0         0         0         0         0         0         0
         0         0         0         0         0         0         0         0
         0         0         0         0         0         0         0         0
         0         0         0         0         0         0         0         0
         0         0         0         0         0         0         0         0
         0         0         0         0         0         0         0         0
         0         0         0         0         0         0         0         0
         0         0         0         0         0         0         0         0
         0         0         0         0         0         0         0         0
         0         0         0         0         0         0         0         0
         0         0         0         0         0         0         0         0
         0         0         0         0         0         0         0         0
         0         0         0         0         0         0         0         0
         0         0         0         0         0         0         0         0
         0         0         0         0         0         0         0         0
         0         0         0         0         0         0         0         0
         0         0         0         0         0         0         0         0
         0         0         0         0         0         0         0         0
         0         0         0         0         0         0         0         0
         0         0         0         0         0         0         0         0
         0         0         0         0         0         0         0         0
         0         0         0         0         0         0         0         0
         0         0         0         0         0         0         0         0
         0         0         0         0         0         0         0         0
         0         0         0         0         0         0         0         0
         0         0         0         0         0         0         0         0
         0         0         0         0         0         0         0         0
         0         0         0         0         0         0         0         0
         0         0         0         0         0         0         0         0
         0         0         0         0         0         0         0         0
         0         0         0         0         0         0         0         0
         0         0         0         0         0         0         0         0
         0         0         0         0         0         0         0         0
         0         0         0         0         0         0         0         0
         0         0         0         0         0         0         0         0
         0         0         0         0         0         0         0         0
         0         0         0         0         0         0         0         0
         0         0         0         0         0         0         0         0
         0         0         0         0         0         0         0         0
         0         0         0         0         0         0         0         0
         0         0         0         0         0         0         0         0
         0         0         0         0         0         0         0         0
         0         0         0         0         0         0         0         0
         0         0         0         0         0         0         0         0
         0         0         0         0         0         0         0         0
         0         0         0         0         0         0         0         0
         0         0         0         0         0         0         0         0
         0         0         0         0         0         0         0         0
         0         0         0         0         0         0         0         0
         0         0         0         0         0         0         0         0
         0         0         0         0         0         0         0         0
         0         0         0         0         0         0         0         0
         0         0         0         0         0         0         0         0
         0         0         0         0         0         0         0         0
         0         0         0         0         0         0         0         0
         0         0         0         0         0         0         0         0
         0         0         0         0         0         0         0         0
         0         0         0         0         0         0         0         0
         0         0         0         0         0         0         0         0
         0         0         0         0         0         0         0         0
         0         0         0         0         0         0         0         0
         0         0         0         0         0         0         0         0
         0         0         0         0         0         0         0         0
         0         0         0         0         0         0         0         0
         0         0         0         0         0         0         0         0
         0         0         0         0         0         0         0         0
         0         0         0         0         0         0         0         0
         0         0         0         0         0         0         0         0
         0         0         0         0         0         0         0         0
         0         0         0         0         0         0         0         0
         0         0         0         0         0         0         0         0
         0         0         0         0         0         0         0         0
         0         0         0         0         0         0         0         0
         0         0         0         0         0         0         0         0
         0         0         0         0         0         0         0         0
         0         0         0         0         0         0         0         0
         0         0         0         0         0         0         0         0
         0         0         0         0         0         0         0         0
         0         0         0         0         0         0         0         0
         0         0         0         0         0         0         0         0
         0         0         0         0         0         0         0         0
         0         0         0         0         0         0         0         0
         0         0         0         0         0         0         0         0
         0         0         0         0         0         0         0         0
         0         0         0         0         0         0         0         0
         0         0         0         0         0         0         0         0
         0         0         0         0         0         0         0         0
         0         0         0         0         0         0         0         0
         0         0         0         0         0         0         0         0
         0         0         0         0         0         0         0         0
         0         0         0         0         0         0         0         0
         0         0         0         0         0         0         0         0
         0         0         0         0         0         0         0         0
         0         0         0         0         0         0         0         0
         0         0         0         0         0         0         0         0
         0         0         0         0         0         0         0         0
         0         0         0         0         0         0         0         0
         0         0         0         0         0         0         0         0
         0         0         0         0         0         0         0         0
         0         0         0         0         0         0         0         0
         0         0         0         0         0         0         0         0
         0         0         0         0         0         0         0         0
         0         0         0         0         0         0         0         0
         0         0         0         0         0         0         0         0
         0         0         0         0         0         0         0         0
         0         0         0         0         0         0         0         0
         0         0         0         0         0         0         0         0
         0         0         0         0         0         0         0         0
         0         0         0         0         0         0         0         0
         0         0         0         0         0         0         0         0
         0         0         0         0         0         0         0         0
         0         0         0         0         0         0         0         0
         0         0         0         0         0         0         0         0
         0         0         0         0         0         0         0         0
         0         0         0         0         0         0         0         0
         0         0         0         0         0         0         0         0
         0         0         0         0         0         0         0         0
         0         0         0         0         0         0         0         0
         0         0         0         0         0         0         0         0
         0         0         0         0         0         0         0         0
         0         0         0         0         0         0         0         0
         0         0         0         0         0         0         0         0
         0         0         0         0         0         0         0         0
         0         0         0         0         0         0         0         0
         0         0         0         0         0         0         0         0
         0         0         0         0         0         0         0         0
         0         0         0         0         0         0         0         0
         0         0         0         0         0         0         0         0
         0         0         0         0         0         0         0         0
         0         0         0         0         0         0         0         0
         0         0         0         0         0         0         0         0
         0         0         0         0         0         0         0         0
         0         0         0         0         0         0         0         0
         0         0         0         0         0         0         0         0
         0         0         0         0         0         0         0         0
         0         0         0         0         0         0         0         0
         0         0         0         0         0         0         0         0
         0         0         0         0         0         0         0         0
         0         0         0         0         0         0         0         0
         0         0         0         0         0         0         0         0
         0         0         0         0         0         0         0         0
         0         0         0         0         0         0         0         0
         0         0         0         0         0         0         0         0
         0         0         0         0         0         0         0         0
         0         0         0         0         0         0         0         0
         0         0         0         0         0         0         0         0
         0         0         0         0         0         0         0         0
         0         0         0         0         0         0         0         0
         0         0         0         0         0         0         0         0
         0         0         0         0         0         0         0         0
         0         0         0         0         0         0         0         0
         0         0         0         0         0         0         0         0
         0         0         0         0         0         0         0         0
         0         0         0         0         0         0         0         0
         0         0         0         0         0         0         0         0
         0         0         0         0         0         0         0         0
         0         0         0         0         0         0         0         0
         0         0         0         0         0         0         0         0
         0         0         0         0         0         0         0         0
         0         0         0         0         0         0         0         0
         0         0         0         0         0         0         0         0
         0         0         0         0         0         0         0         0
         0         0         0         0         0         0         0         0
         0         0         0         0         0         0         0         0
         0         0         0         0         0         0         0         0
         0         0         0         0         0         0         0         0
         0         0         0         0         0         0         0         0
         0         0         0         0         0         0         0         0
         0         0         0         0         0         0         0         0
         0         0         0         0         0         0         0         0
         0         0         0         0         0         0         0         0
         0         0         0         0         0         0         0         0
         0         0         0         0         0         0         0         0
         0         0         0         0         0         0         0         0
         0         0         0         0         0         0         0         0
         0         0         0         0         0         0         0         0
         0         0         0         0         0         0         0         0
         0         0         0         0         0         0         0         0
         0         0         0         0         0         0         0         0
         0         0         0         0         0         0         0         0
         0         0         0         0         0         0         0         0
         0         0         0         0         0         0         0         0
         0         0         0         0         0         0         0         0
         0         0         0         0         0         0         0         0
         0         0         0         0         0         0         0         0
         0         0         0         0         0         0         0         0
         0         0         0         0         0         0         0         0
         0         0         0         0         0         0         0         0
         0         0         0         0         0         0         0         0
         0         0         0         0         0         0         0         0
         0         0         0         0         0         0         0         0
         0         0         0         0         0         0         0         0
         0         0         0         0         0         0         0         0
         0         0         0         0         0         0         0         0
         0         0         0         0         0         0         0         0
         0         0         0         0         0         0         0         0
         0         0         0         0         0         0         0         0
         0         0         0         0         0         0         0         0
         0         0         0         0         0         0         0         0
         0         0         0         0         0         0         0         0
         0         0         0         0         0         0         0         0
         0         0         0         0         0         0         0         0
         0         0         0         0         0         0         0         0
         0         0         0         0         0         0         0         0
         0         0         0         0         0         0         0         0
         0         0         0         0         0         0         0         0
         0         0         0         0         0         0         0         0
         0         0         0         0         0         0         0         0
         0         0         0         0         0         0         0         0
         0         0         0         0         0         0         0         0
         0         0         0         0         0         0         0         0
         0         0         0         0         0         0         0         0
         0         0         0         0         0         0         0         0
         0         0         0         0         0         0         0         0
         0         0         0         0         0         0         0         0
         0         0         0         0         0         0         0         0
         0         0         0         0         0         0         0         0
         0         0         0         0         0         0         0         0
         0         0         0         0         0         0         0         0
         0         0         0         0         0         0         0         0
         0         0         0         0         0         0         0         0
         0         0         0         0         0         0         0         0
         0         0         0         0         0         0         0         0
         0         0         0         0         0         0         0         0
         0         0         0         0         0         0         0         0
         0         0         0         0         0         0         0         0
         0         0         0         0         0         0         0         0
         0         0         0         0         0         0         0         0
         0         0         0         0         0         0         0         0
         0         0         0         0         0         0         0         0
         0         0         0         0         0         0         0         0
         0         0         0         0         0         0         0         0
         0         0         0         0         0         0         0         0
         0         0         0         0         0         0         0         0
         0         0         0         0         0         0         0         0
         0         0         0         0         0         0         0         0
         0         0         0         0         0         0         0         0
         0         0         0         0         0         0         0         0
         0         0         0         0         0         0         0         0
         0         0         0         0         0         0         0         0
         0         0         0         0         0         0         0         0
         0         0         0         0         0         0         0         0
         0         0         0         0         0         0         0         0
         0         0         0         0         0         0         0         0
         0         0         0         0         0         0         0         0
         0         0         0         0         0         0         0         0
         0         0         0         0         0         0         0         0
         0         0         0         0         0         0         0         0
         0         0         0         0         0         0         0         0
         0         0         0         0         0         0         0         0
         0         0         0         0         0         0         0         0
         0         0         0         0         0         0         0         0
         0         0         0         0         0         0         0         0
         0         0         0         0         0         0         0         0
         0         0         0         0         0         0         0         0
         0         0         0         0         0         0         0         0
         0         0         0         0         0         0         0         0
         0         0         0         0         0         0         0         0
         0         0         0         0         0         0         0         0
         0         0         0         0         0         0         0         0
         0         0         0         0         0         0         0         0
         0         0         0         0         0         0         0         0
         0         0         0         0         0         0         0         0
         0         0         0         0         0         0         0         0
         0         0         0         0         0         0         0         0
         0         0         0         0         0         0         0         0
         0         0         0         0         0         0         0         0
         0         0         0         0         0         0         0         0
         0         0         0         0         0         0         0         0
         0         0         0         0         0         0         0         0
         0         0         0         0         0         0         0         0
         0         0         0         0         0         0         0         0
         0         0         0         0         0         0         0         0
         0         0         0         0         0         0         0         0
         0         0         0         0         0         0         0         0
         0         0         0         0         0         0         0         0
         0         0         0         0         0         0         0         0
         0         0         0         0         0         0         0         0
         0         0         0         0         0         0         0         0
         0         0         0         0         0         0         0         0
         0         0         0         0         0         0         0         0
         0         0         0         0         0         0         0         0
         0         0         0         0         0         0         0         0
         0         0         0         0         0         0         0         0
         0         0         0         0         0         0         0         0
         0         0         0         0         0         0         0         0
         0         0         0         0         0         0         0         0
         0         0         0         0         0         0         0         0
         0         0         0         0         0         0         0         0
         0         0         0         0         0         0         0         0
         0         0         0         0         0         0         0         0
         0         0         0         0         0         0         0         0
         0         0         0         0         0         0         0         0
         0         0         0         0         0         0         0         0
         0         0         0         0         0         0         0         0
         0         0         0         0         0         0         0         0
         0         0         0         0         0         0         0         0
         0         0         0         0         0         0         0         0
         0         0         0         0         0         0         0         0
         0         0         0         0         0         0         0         0
         0         0         0         0         0         0         0         0
         0         0         0         0         0         0         0         0
         0         0         0         0         0         0         0         0
         0         0         0         0         0         0         0         0
         0         0         0         0         0         0         0         0
         0         0         0         0         0         0         0         0
         0         0         0         0         0         0         0         0
         0         0         0         0         0         0         0         0
         0         0         0         0         0         0         0         0
         0         0         0         0         0         0         0         0
         0         0         0         0         0         0         0         0
         0         0         0         0         0         0         0         0
         0         0         0         0         0         0         0         0
         0         0         0         0         0         0         0         0
         0         0         0         0         0         0         0         0
         0         0         0         0         0         0         0         0
         0         0         0         0         0         0         0         0
         0         0         0         0         0         0         0         0
         0         0         0         0         0         0         0         0
         0         0         0         0         0         0         0         0
         0         0         0         0         0         0         0         0
         0         0         0         0         0         0         0         0
         0         0         0         0         0         0         0         0
         0         0         0         0         0         0         0         0
         0         0         0         0         0         0         0         0
         0         0         0         0         0         0         0         0
         0         0         0         0         0         0         0         0
         0         0         0         0         0         0         0         0
         0         0         0         0         0         0         0         0
         0         0         0         0         0         0         0         0
         0         0         0         0         0         0         0         0
         0         0         0         0         0         0         0         0
         0         0         0         0         0         0         0         0
         0         0         0         0         0         0         0         0
         0         0         0         0         0         0         0         0
         0         0         0         0         0         0         0         0
         0         0         0         0         0         0         0         0
         0         0         0         0         0         0         0         0
         0         0         0         0         0         0         0         0
         0         0         0         0         0         0         0         0
         0         0         0         0         0         0         0         0
         0         0         0         0         0         0         0         0
         0         0         0         0         0         0         0         0
         0         0         0         0         0         0         0         0
         0         0         0         0         0         0         0         0
         0         0         0         0         0         0         0         0
         0         0         0         0         0         0         0         0
         0         0         0         0         0         0         0         0
         0         0         0         0         0         0         0         0
         0         0         0         0         0         0         0         0
         0         0         0         0         0         0         0         0
         0         0         0         0         0         0         0         0
         0         0         0         0         0         0         0         0
         0         0         0         0         0         0         0         0
         0         0         0         0         0         0         0         0
         0         0         0         0         0         0         0         0
         0         0         0         0         0         0         0         0
         0         0         0         0         0         0         0         0
         0         0         0         0         0         0         0         0
         0         0         0         0         0         0         0         0
         0         0         0         0         0         0         0         0
         0         0         0         0         0         0         0         0
         0         0         0         0         0         0         0         0
         0         0         0         0         0         0         0         0
         0         0         0         0         0         0         0         0
         0         0         0         0         0         0         0         0
         0         0         0         0         0         0         0         0
         0         0         0         0         0         0         0         0
         0         0         0         0         0         0         0         0
         0         0         0         0         0         0         0         0
         0         0         0         0         0         0         0         0
         0         0         0         0         0         0         0         0
         0         0         0         0         0         0         0         0
         0         0         0         0         0         0         0         0
         0         0         0         0         0         0         0         0
         0         0         0         0         0         0         0         0
         0         0         0         0         0         0         0         0
         0         0         0         0         0         0         0         0
         0         0         0         0         0         0         0         0
         0         0         0         0         0         0         0         0
         0         0         0         0         0         0         0         0
         0         0         0         0         0         0         0         0
         0         0         0         0         0         0         0         0
         0         0         0         0         0         0         0         0
         0         0         0         0         0         0         0         0
         0         0         0         0         0         0         0         0
         0         0         0         0         0         0         0         0
         0         0         0         0         0         0         0         0
         0         0         0         0         0         0         0         0
         0         0         0         0         0         0         0         0
         0         0         0         0         0         0         0         0
         0         0         0         0         0         0         0         0
         0         0         0         0         0         0         0         0
         0         0         0         0         0         0         0         0
         0         0         0         0         0         0         0         0
         0         0         0         0         0         0         0         0
         0         0         0         0         0         0         0         0
         0         0         0         0         0         0         0         0
         0         0         0         0         0         0         0         0
         0         0         0         0         0         0         0         0
         0         0         0         0         0         0         0         0
         0         0         0         0         0         0         0         0
         0         0         0         0         0         0         0         0
         0         0         0         0         0         0         0         0
         0         0         0         0         0         0         0         0
         0         0         0         0         0         0         0         0
         0         0         0         0         0         0         0         0
         0         0         0         0         0         0         0         0
         0         0         0         0         0         0         0         0
         0         0         0         0         0         0         0         0
         0         0         0         0         0         0         0         0
         0         0         0         0         0         0         0         0
         0         0         0         0         0         0         0         0
         0         0         0         0         0         0         0         0
         0         0         0         0         0         0         0         0
         0         0         0         0         0         0         0         0
         0         0         0         0         0         0         0         0
         0         0         0         0         0         0         0         0
         0         0         0         0         0         0         0         0
         0         0         0         0         0         0         0         0
         0         0         0         0         0         0         0         0
         0         0         0         0         0         0         0         0
         0         0         0         0         0         0         0         0
         0         0         0         0         0         0         0         0
         0         0         0         0         0         0         0         0
         0         0         0         0         0         0         0         0
         0         0         0         0         0         0         0         0
         0         0         0         0         0         0         0         0
         0         0         0         0         0         0         0         0
         0         0         0         0         0         0         0         0
         0         0         0         0         0         0         0         0
         0         0         0         0         0         0         0         0
         0         0         0         0         0         0         0         0
         0         0         0         0         0         0         0         0
         0         0         0         0         0         0         0         0
         0         0         0         0         0         0         0         0
         0         0         0         0         0         0         0         0
         0         0         0         0         0         0         0         0
         0         0         0         0         0         0         0         0
         0         0         0         0         0         0         0         0
         0         0         0         0         0         0         0         0
         0         0         0         0         0         0         0         0
         0         0         0         0         0         0         0         0
         0         0         0         0         0         0         0         0
         0         0         0         0         0         0         0         0
         0         0         0         0         0         0         0         0
         0         0         0         0         0         0         0         0
         0         0         0         0         0         0         0         0
         0         0         0         0         0         0         0         0
         0         0         0         0         0         0         0         0
         0         0         0         0         0         0         0         0
         0         0         0         0         0         0         0         0
         0         0         0         0         0         0         0         0
         0         0         0         0         0         0         0         0
         0         0         0         0         0         0         0         0
         0         0         0         0         0         0         0         0
         0         0         0         0         0         0         0         0
         0         0         0         0         0         0         0         0
         0         0         0         0         0         0         0         0
         0         0         0         0         0         0         0         0
         0         0         0         0         0         0         0         0
         0         0         0         0         0         0         0         0
         0         0         0         0         0         0         0         0
         0         0         0         0         0         0         0         0
         0         0         0         0         0         0         0         0
         0         0         0         0         0         0         0         0
         0         0         0         0         0         0         0         0
         0         0         0         0         0         0         0         0
         0         0         0         0         0         0         0         0
         0         0         0         0         0         0         0         0
         0         0         0         0         0         0         0         0
         0         0         0         0         0         0         0         0
         0         0         0         0         0         0         0         0
         0         0         0         0         0         0         0         0
         0         0         0         0         0         0         0         0
         0         0         0         0         0         0         0         0
         0         0         0         0         0         0         0         0
         0         0         0         0         0         0         0         0
         0         0         0         0         0         0         0         0
         0         0         0         0         0         0         0         0
         0         0         0         0         0         0         0         0
         0         0         0         0         0         0         0         0
         0         0         0         0         0         0         0         0
         0         0         0         0         0         0         0         0
         0         0         0         0         0         0         0         0
         0         0         0         0         0         0         0         0
         0         0         0         0         0         0         0         0
         0         0         0         0         0         0         0         0
         0         0         0         0         0         0         0         0
         0         0         0         0         0         0         0         0
         0         0         0         0         0         0         0         0
         0         0         0         0         0         0         0         0
         0         0         0         0         0         0         0         0
         0         0         0         0         0         0         0         0
         0         0         0         0         0         0         0         0
         0         0         0         0         0         0         0         0
         0         0         0         0         0         0         0         0
         0         0         0         0         0         0         0         0
         0         0         0         0         0         0         0         0
         0         0         0         0         0         0         0         0
         0         0         0         0         0         0         0         0
         0         0         0         0         0         0         0         0
         0         0         0         0         0         0         0         0
         0         0         0         0         0         0         0         0
         0         0         0         0         0         0         0         0
         0         0         0         0         0         0         0         0
         0         0         0         0         0         0         0         0
         0         0         0         0         0         0         0         0
         0         0         0         0         0         0         0         0
         0         0         0         0         0         0         0         0
         0         0         0         0         0         0         0         0
         0         0         0         0         0         0         0         0
         0         0         0         0         0         0         0         0
         0         0         0         0         0         0         0         0
         0         0         0         0         0         0         0         0
         0         0         0         0         0         0         0         0
         0         0         0         0         0         0         0         0
         0         0         0         0         0         0         0         0
         0         0         0         0         0         0         0         0
         0         0         0         0         0         0         0         0
         0         0         0         0         0         0         0         0
         0         0         0         0         0         0         0         0
         0         0         0         0         0         0         0         0
         0         0         0         0         0         0         0         0
         0         0         0         0         0         0         0         0
         0         0         0         0         0         0         0         0
         0         0         0         0         0         0         0         0
         0         0         0         0         0         0         0         0
         0         0         0         0         0         0         0         0
         0         0         0         0         0         0         0         0
         0         0         0         0         0         0         0         0
         0         0         0         0         0         0         0         0
         0         0         0         0         0         0         0         0
         0         0         0         0         0         0         0         0
         0         0         0         0         0         0         0         0
         0         0         0         0         0         0         0         0
         0         0         0         0         0         0         0         0
         0         0         0         0         0         0         0         0
         0         0         0         0         0         0         0         0
         0         0         0         0         0         0         0         0
         0         0         0         0         0         0         0         0
         0         0         0         0         0         0         0         0
         0         0         0         0         0         0         0         0
         0         0         0         0         0         0         0         0
         0         0         0         0         0         0         0         0
         0         0         0         0         0         0         0         0
         0         0         0         0         0         0         0         0
         0         0         0         0         0         0         0         0
         0         0         0         0         0         0         0         0
         0         0         0         0         0         0         0         0
         0         0         0         0         0         0         0         0
         0         0         0         0         0         0         0         0
         0         0         0         0         0         0         0         0
         0         0         0         0         0         0         0         0
         0         0         0         0         0         0         0         0
         0         0         0         0         0         0         0         0
         0         0         0         0         0         0         0         0
         0         0         0         0         0         0         0         0
         0         0         0         0         0         0         0         0
         0         0         0         0         0         0         0         0
         0         0         0         0         0         0         0         0
         0         0         0         0         0         0         0         0
         0         0         0         0         0         0         0         0
         0         0         0         0         0         0         0         0
         0         0         0         0         0         0         0         0
         0         0         0         0         0         0         0         0
         0         0         0         0         0         0         0         0
         0         0         0         0         0         0         0         0
         0         0         0         0         0         0         0         0
         0         0         0         0         0         0         0         0
         0         0         0         0         0         0         0         0
         0         0         0         0         0         0         0         0
         0         0         0         0         0         0         0         0
         0         0         0         0         0         0         0         0
         0         0         0         0         0         0         0         0
         0         0         0         0         0         0         0         0
         0         0         0         0         0         0         0         0
         0         0         0         0         0         0         0         0
         0         0         0         0         0         0         0         0
         0         0         0         0         0         0         0         0
         0         0         0         0         0         0         0         0
         0         0         0         0         0         0         0         0
         0         0         0         0         0         0         0         0
         0         0         0         0         0         0         0         0
         0         0         0         0         0         0         0         0
         0         0         0         0         0         0         0         0
         0         0         0         0         0         0         0         0
         0         0         0         0         0         0         0         0
         0         0         0         0         0         0         0         0
         0         0         0         0         0         0         0         0
         0         0         0         0         0         0         0         0
         0         0         0         0         0         0         0         0
         0         0         0         0         0         0         0         0
         0         0         0         0         0         0         0         0
         0         0         0         0         0         0         0         0
         0         0         0         0         0         0         0         0
         0         0         0         0         0         0         0         0
         0         0         0         0         0         0         0         0
         0         0         0         0         0         0         0         0
         0         0         0         0         0         0         0         0
         0         0         0         0         0         0         0         0
         0         0         0         0         0         0         0         0
         0         0         0         0         0         0         0         0
         0         0         0         0         0         0         0         0
         0         0         0         0         0         0         0         0
         0         0         0         0         0         0         0         0
         0         0         0         0         0         0         0         0
         0         0         0         0         0         0         0         0
         0         0         0         0         0         0         0         0
         0         0         0         0         0         0         0         0
         0         0         0         0         0         0         0         0
         0         0         0         0         0         0         0         0
         0         0         0         0         0         0         0         0
         0         0         0         0         0         0         0         0
         0         0         0         0         0         0         0         0
         0         0         0         0         0         0         0         0
         0         0         0         0         0         0         0         0
         0         0         0         0         0         0         0         0
         0         0         0         0         0         0         0         0
         0         0         0         0         0         0         0         0
         0         0         0         0         0         0         0         0
         0         0         0         0         0         0         0         0
         0         0         0         0         0         0         0         0
         0         0         0         0         0         0         0         0
         0         0         0         0         0         0         0         0
         0         0         0         0         0         0         0         0
         0         0         0         0         0         0         0         0
         0         0         0         0         0         0         0         0
         0         0         0         0         0         0         0         0
         0         0         0         0         0         0         0         0
         0         0         0         0         0         0         0         0
         0         0         0         0         0         0         0         0
         0         0         0         0         0         0         0         0
         0         0         0         0         0         0         0         0
         0         0         0         0         0         0         0         0
         0         0         0         0         0         0         0         0
         0         0         0         0         0         0         0         0
         0         0         0         0         0         0         0         0
         0         0         0         0         0         0         0         0
         0         0         0         0         0         0         0         0
         0         0         0         0         0         0         0         0
         0         0         0         0         0         0         0         0
         0         0         0         0         0         0         0         0
         0         0         0         0         0         0         0         0
         0         0         0         0         0         0         0         0
         0         0         0         0         0         0         0         0
         0         0         0         0         0         0         0         0
         0         0         0         0         0         0         0         0
         0         0         0         0         0         0         0         0
         0         0         0         0         0         0         0         0
         0         0         0         0         0         0         0         0
         0         0         0         0         0         0         0         0
         0         0         0         0         0         0         0         0
         0         0         0         0         0         0         0         0
         0         0         0         0         0         0         0         0
         0         0         0         0         0         0         0         0
         0         0         0         0         0         0         0         0
         0         0         0         0         0         0         0         0
         0         0         0         0         0         0         0         0
         0         0         0         0         0         0         0         0
         0         0         0         0         0         0         0         0
         0         0         0         0         0         0         0         0
         0         0         0         0         0         0         0         0
         0         0         0         0         0         0         0         0
         0         0         0         0         0         0         0         0
         0         0         0         0         0         0         0         0
         0         0         0         0         0         0         0         0
         0         0         0         0         0         0         0         0
         0         0         0         0         0         0         0         0
         0         0         0         0         0         0         0         0
         0         0         0         0         0         0         0         0
         0         0         0         0         0         0         0         0
         0         0         0         0         0         0         0         0
         0         0         0         0         0         0         0         0
         0         0         0         0         0         0         0         0
         0         0         0         0         0         0         0         0
         0         0         0         0         0         0         0         0
         0         0         0         0         0         0         0         0
         0         0         0         0         0         0         0         0
         0         0         0         0         0         0         0         0
         0         0         0         0         0         0         0         0
         0         0         0         0         0         0         0         0
         0         0         0         0         0         0         0         0
         0         0         0         0         0         0         0         0
         0         0         0         0         0         0         0         0
         0         0         0         0         0         0         0         0
         0         0         0         0         0         0         0         0
         0         0         0         0         0         0         0         0
         0         0         0         0         0         0         0         0
         0         0         0         0         0         0         0         0
         0         0         0         0         0         0         0         0
         0         0         0         0         0         0         0         0
         0         0         0         0         0         0         0         0
         0         0         0         0         0         0         0         0
         0         0         0         0         0         0         0         0
         0         0         0         0         0         0         0         0
         0         0         0         0         0         0         0         0
         0         0         0         0         0         0         0         0
         0         0         0         0         0         0         0         0
         0         0         0         0         0         0         0         0
         0         0         0         0         0         0         0         0
         0         0         0         0         0         0         0         0
         0         0         0         0         0         0         0         0
         0         0         0         0         0         0         0         0
         0         0         0         0         0         0         0         0
         0         0         0         0         0         0         0         0
         0         0         0         0         0         0         0         0
         0         0         0         0         0         0         0         0
         0         0         0         0         0         0         0         0
         0         0         0         0         0         0         0         0
         0         0         0         0         0         0         0         0
         0         0         0         0         0         0         0         0
         0         0         0         0         0         0         0         0
         0         0         0         0         0         0         0         0
         0         0         0         0         0         0         0         0
         0         0         0         0         0         0         0         0
         0         0         0         0         0         0         0         0
         0         0         0         0         0         0         0         0
         0         0         0         0         0         0         0         0
         0         0         0         0         0         0         0         0
         0         0         0         0         0         0         0         0
         0         0         0         0         0         0         0         0
         0         0         0         0         0         0         0         0
         0         0         0         0         0         0         0         0
         0         0         0         0         0         0         0         0
         0         0         0         0         0         0         0         0
         0         0         0         0         0         0         0         0
         0         0         0         0         0         0         0         0
         0         0         0         0         0         0         0         0
         0         0         0         0         0         0         0         0
         0         0         0         0         0         0         0         0
         0         0         0         0         0         0         0         0
         0         0         0         0         0         0         0         0
         0         0         0         0         0         0         0         0
         0         0         0         0         0         0         0         0
         0         0         0         0         0         0         0         0
         0         0         0         0         0         0         0         0
         0         0         0         0         0         0         0         0
         0         0         0         0         0         0         0         0
         0         0         0         0         0         0         0         0
         0         0         0         0         0         0         0         0
         0         0         0         0         0         0         0         0
         0         0         0         0         0         0         0         0
         0         0         0         0         0         0         0         0
         0         0         0         0         0         0         0         0
         0         0         0         0         0         0         0         0
         0         0         0         0         0         0         0         0
         0         0         0         0         0         0         0         0
         0         0         0         0         0         0         0         0
         0         0         0         0         0         0         0         0
         0         0         0         0         0         0         0         0
         0         0         0         0         0         0         0         0
         0         0         0         0         0         0         0         0
         0         0         0         0         0         0         0         0
         0         0         0         0         0         0         0         0
         0         0         0         0         0         0         0         0
         0         0         0         0         0         0         0         0
         0         0         0         0         0         0         0         0
         0         0         0         0         0         0         0         0
         0         0         0         0         0         0         0         0
         0         0         0         0         0         0         0         0
         0         0         0         0         0         0         0         0
         0         0         0         0         0         0         0         0
         0         0         0         0         0         0         0         0
         0         0         0         0         0         0         0         0
         0         0         0         0         0         0         0         0
         0         0         0         0         0         0         0         0
         0         0         0         0         0         0         0         0
         0         0         0         0         0         0         0         0
         0         0         0         0         0         0         0         0
         0         0         0         0         0         0         0         0
         0         0         0         0         0         0         0         0
         0         0         0         0         0         0         0         0
         0         0         0         0         0         0         0         0
         0         0         0         0         0         0         0         0
         0         0         0         0         0         0         0         0
         0         0         0         0         0         0         0         0
         0         0         0         0         0         0         0         0
         0         0         0         0         0         0         0         0
         0         0         0         0         0         0         0         0
         0         0         0         0         0         0         0         0
         0         0         0         0         0         0         0         0
         0         0         0         0         0         0         0         0
         0         0         0         0         0         0         0         0
         0         0         0         0         0         0         0         0
         0         0         0         0         0         0         0         0
         0         0         0         0         0         0         0         0
         0         0         0         0         0         0         0         0
         0         0         0         0         0         0         0         0
         0         0         0         0         0         0         0         0
         0         0         0         0         0         0         0         0
         0         0         0         0         0         0         0         0
         0         0         0         0         0         0         0         0
         0         0         0         0         0         0         0         0
         0         0         0         0         0         0         0         0
         0         0         0         0         0         0         0         0
         0         0         0         0         0         0         0         0
         0         0         0         0         0         0         0         0
         0         0         0         0         0         0         0         0
         0         0         0         0         0         0         0         0
         0         0         0         0         0         0         0         0
         0         0         0         0         0         0         0         0
         0         0         0         0         0         0         0         0
         0         0         0         0         0         0         0         0
         0         0         0         0         0         0         0         0
         0         0         0         0         0         0         0         0
         0         0         0         0         0         0         0         0
         0         0         0         0         0         0         0         0
         0         0         0         0         0         0         0         0
         0         0         0         0         0         0         0         0
         0         0         0         0         0         0         0         0
         0         0         0         0         0         0         0         0
         0         0         0         0         0         0         0         0
         0         0         0         0         0         0         0         0
         0         0         0         0         0         0         0         0
         0         0         0         0         0         0         0         0
         0         0         0         0         0         0         0         0
         0         0         0         0         0         0         0         0
         0         0         0         0         0         0         0         0
         0         0         0         0         0         0         0         0
         0         0         0         0         0         0         0         0
         0         0         0         0         0         0         0         0
         0         0         0         0         0         0         0         0
         0         0         0         0         0         0         0         0
         0         0         0         0         0         0         0         0
         0         0         0         0         0         0         0         0
         0         0         0         0         0         0         0         0
         0         0         0         0         0         0         0         0
         0         0         0         0         0         0         0         0
         0         0         0         0         0         0         0         0
         0         0         0         0         0         0         0         0
         0         0         0         0         0         0         0         0
         0         0         0         0         0         0         0         0
         0         0         0         0         0         0         0         0
         0         0         0         0         0         0         0         0
         0         0         0         0         0         0         0         0
         0         0         0         0         0         0         0         0
         0         0         0         0         0         0         0         0
         0         0         0         0         0         0         0         0
         0         0         0         0         0         0         0         0
         0         0         0         0         0         0         0         0
         0         0         0         0         0         0         0         0
         0         0         0         0         0         0         0         0
         0         0         0         0         0         0         0         0
         0         0         0         0         0         0         0         0
         0         0         0         0         0         0         0         0
         0         0         0         0         0         0         0         0
         0         0         0         0         0         0         0         0
         0         0         0         0         0         0         0         0
         0         0         0         0         0         0         0         0
         0         0         0         0         0         0         0         0
         0         0         0         0         0         0         0         0
         0         0         0         0         0         0         0         0
         0         0         0         0         0         0         0         0
         0         0         0         0         0         0         0         0
         0         0         0         0         0         0         0         0
         0         0         0         0         0         0         0         0
         0         0         0         0         0         0         0         0
         0         0         0         0         0         0         0         0
         0         0         0         0         0         0         0         0
         0         0         0         0         0         0         0         0
         0         0         0         0         0         0         0         0
         0         0         0         0         0         0         0         0
         0         0         0         0         0         0         0         0
         0         0         0         0         0         0         0         0
         0         0         0         0         0         0         0         0
         0         0         0         0         0         0         0         0
         0         0         0         0         0         0         0         0
         0         0         0         0         0         0         0         0
         0         0         0         0         0         0         0         0
         0         0         0         0         0         0         0         0
         0         0         0         0         0         0         0         0
         0         0         0         0         0         0         0         0
         0         0         0         0         0         0         0         0
         0         0         0         0         0         0         0         0
         0         0         0         0         0         0         0         0
         0         0         0         0         0         0         0         0
         0         0         0         0         0         0         0         0
         0         0         0         0         0         0         0         0
         0         0         0         0         0         0         0         0
         0         0         0         0         0         0         0         0
         0         0         0         0         0         0         0         0
         0         0         0         0         0         0         0         0
         0         0         0         0         0         0         0         0
         0         0         0         0         0         0         0         0
         0         0         0         0         0         0         0         0
         0         0         0         0         0         0         0         0
         0         0         0         0         0         0         0         0
         0         0         0         0         0         0         0         0
         0         0         0         0         0         0         0         0
         0         0         0         0         0         0         0         0
         0         0         0         0         0         0         0         0
         0         0         0         0         0         0         0         0
         0         0         0         0         0         0         0         0
         0         0         0         0         0         0         0         0
         0         0         0         0         0         0         0         0
         0         0         0         0         0         0         0         0
         0         0         0         0         0         0         0         0
         0         0         0         0         0         0         0         0
         0         0         0         0         0         0         0         0
         0         0         0         0         0         0         0         0
         0         0         0         0         0         0         0         0
         0         0         0         0         0         0         0         0
         0         0         0         0         0         0         0         0
         0         0         0         0         0         0         0         0
         0         0         0         0         0         0         0         0
         0         0         0         0         0         0         0         0
         0         0         0         0         0         0         0         0
         0         0         0         0         0         0         0         0
         0         0         0         0         0         0         0         0
         0         0         0         0         0         0         0         0
         0         0         0         0         0         0         0         0
         0         0         0         0         0         0         0         0
         0         0         0         0         0         0         0         0
         0         0         0         0         0         0         0         0
         0         0         0         0         0         0         0         0
         0         0         0         0         0         0         0         0
         0         0         0         0         0         0         0         0
         0         0         0         0         0         0         0         0
         0         0         0         0         0         0         0         0
         0         0         0         0         0         0         0         0
         0         0         0         0         0         0         0         0
         0         0         0         0         0         0         0         0
         0         0         0         0         0         0         0         0
         0         0         0         0         0         0         0         0
         0         0         0         0         0         0         0         0
         0         0         0         0         0         0         0         0
         0         0         0         0         0         0         0         0
         0         0         0         0         0         0         0         0
         0         0         0         0         0         0         0         0
         0         0         0         0         0         0         0         0
         0         0         0         0         0         0         0         0
         0         0         0         0         0         0         0         0
         0         0         0         0         0         0         0         0
         0         0         0         0         0         0         0         0
         0         0         0         0         0         0         0         0
         0         0         0         0         0         0         0         0
         0         0         0         0         0         0         0         0
         0         0         0         0         0         0         0         0
         0         0         0         0         0         0         0         0
         0         0         0         0         0         0         0         0
         0         0         0         0         0         0         0         0
         0         0         0         0         0         0         0         0
         0         0         0         0         0         0         0         0
         0         0         0         0         0         0         0         0
         0         0         0         0         0         0         0         0
         0         0         0         0         0         0         0         0
         0         0         0         0         0         0         0         0
         0         0         0         0         0         0         0         0
         0         0         0         0         0         0         0         0
         0         0         0         0         0         0         0         0
         0         0         0         0         0         0         0         0
         0         0         0         0         0         0         0         0
         0         0         0         0         0         0         0         0
         0         0         0         0         0         0         0         0
         0         0         0         0         0         0         0         0
         0         0         0         0         0         0         0         0
         0         0         0         0         0         0         0         0
         0         0         0         0         0         0         0         0
         0         0         0         0         0         0         0         0
         0         0         0         0         0         0         0         0
         0         0         0         0         0         0         0         0
         0         0         0         0         0         0         0         0
         0         0         0         0         0         0         0         0
         0         0         0         0         0         0         0         0
         0         0         0         0         0         0         0         0
         0         0         0         0         0         0         0         0
         0         0         0         0         0         0         0         0
         0         0         0         0         0         0         0         0
         0         0         0         0         0         0         0         0
         0         0         0         0         0         0         0         0
         0         0         0         0         0         0         0         0
         0         0         0         0         0         0         0         0
         0         0         0         0         0         0         0         0
         0         0         0         0         0         0         0         0
         0         0         0         0         0         0         0         0
         0         0         0         0         0         0         0         0
         0         0         0         0         0         0         0         0
         0         0         0         0         0         0         0         0
         0         0         0         0         0         0         0         0
         0         0         0         0         0         0         0         0
         0         0         0         0         0         0         0         0
         0         0         0         0         0         0         0         0
         0         0         0         0         0         0         0         0
         0         0         0         0         0         0         0         0
         0         0         0         0         0         0         0         0
         0         0         0         0         0         0         0         0
         0         0         0         0         0         0         0         0
         0         0         0         0         0         0         0         0
         0         0         0         0         0         0         0         0
         0         0         0         0         0         0         0         0
         0         0         0         0         0         0         0         0
         0         0         0         0         0         0         0         0
         0         0         0         0         0         0         0         0
         0         0         0         0         0         0         0         0
         0         0         0         0         0         0         0         0
         0         0         0         0         0         0         0         0
         0         0         0         0         0         0         0         0
         0         0         0         0         0         0         0         0
         0         0         0         0         0         0         0         0
         0         0         0         0         0         0         0         0
         0         0         0         0         0         0         0         0
         0         0         0         0         0         0         0         0
         0         0         0         0         0         0         0         0
         0         0         0         0         0         0         0         0
         0         0         0         0         0         0         0         0
         0         0         0         0         0         0         0         0
         0         0         0         0         0         0         0         0
         0         0         0         0         0         0         0         0
         0         0         0         0         0         0         0         0
         0         0         0         0         0         0         0         0
         0         0         0         0         0         0         0         0
         0         0         0         0         0         0         0         0
         0         0         0         0         0         0         0         0
         0         0         0         0         0         0         0         0
         0         0         0         0         0         0         0         0
         0         0         0         0         0         0         0         0
         0         0         0         0         0         0         0         0
         0         0         0         0         0         0         0         0
         0         0         0         0         0         0         0         0
         0         0         0         0         0         0         0         0
         0         0         0         0         0         0         0         0
         0         0         0         0         0         0         0         0
         0         0         0         0         0         0         0         0
         0         0         0         0         0         0         0         0
         0         0         0         0         0         0         0         0
         0         0         0         0         0         0         0         0
         0         0         0         0         0         0         0         0
         0         0         0         0         0         0         0         0
         0         0         0         0         0         0         0         0
         0         0         0         0         0         0         0         0
         0         0         0         0         0         0         0         0
         0         0         0         0         0         0         0         0
         0         0         0         0         0         0         0         0
         0         0         0         0         0         0         0         0
         0         0         0         0         0         0         0         0
         0         0         0         0         0         0         0         0
         0         0         0         0         0         0         0         0
         0         0         0         0         0         0         0         0
         0         0         0         0         0         0         0         0
         0         0         0         0         0         0         0         0
         0         0         0         0         0         0         0         0
         0         0         0         0         0         0         0         0
         0         0         0         0         0         0         0         0
         0         0         0         0         0         0         0         0
         0         0         0         0         0         0         0         0
         0         0         0         0         0         0         0         0
         0         0         0         0         0         0         0         0
         0         0         0         0         0         0         0         0
         0         0         0         0         0         0         0         0
         0         0         0         0         0         0         0         0
         0         0         0         0         0         0         0         0
         0         0         0         0         0         0         0         0
         0         0         0         0         0         0         0         0
         0         0         0         0         0         0         0         0
         0         0         0         0         0         0         0         0
         0         0         0         0         0         0         0         0
         0         0         0         0         0         0         0         0
         0         0         0         0         0         0         0         0
         0         0         0         0         0         0         0         0
         0         0         0         0         0         0         0         0
         0         0         0         0         0         0         0         0
         0         0         0         0         0         0         0         0
         0         0         0         0         0         0         0         0
         0         0         0         0         0         0         0         0
         0         0         0         0         0         0         0         0
         0         0         0         0         0         0         0         0
         0         0         0         0         0         0         0         0
         0         0         0         0         0         0         0         0
         0         0         0         0         0         0         0         0
         0         0         0         0         0         0         0         0
         0         0         0         0         0         0         0         0
         0         0         0         0         0         0         0         0
         0         0         0         0         0         0         0         0
         0         0         0         0         0         0         0         0
         0         0         0         0         0         0         0         0
         0         0         0         0         0         0         0         0
         0         0         0         0         0         0         0         0
         0         0         0         0         0         0         0         0
         0         0         0         0         0         0         0         0
         0         0         0         0         0         0         0         0
         0         0         0         0         0         0         0         0
         0         0         0         0         0         0         0         0
         0         0         0         0         0         0         0         0
         0         0         0         0         0         0         0         0
         0         0         0         0         0         0         0         0
         0         0         0         0         0         0         0         0
         0         0         0         0         0         0         0         0
         0         0         0         0         0         0         0         0
         0         0         0         0         0         0         0         0
         0         0         0         0         0         0         0         0
         0         0         0         0         0         0         0         0
         0         0         0         0         0         0         0         0
         0         0         0         0         0         0         0         0
         0         0         0         0         0         0         0         0
         0         0         0         0         0         0         0         0
         0         0         0         0         0         0         0         0
         0         0         0         0         0         0         0         0
         0         0         0         0         0         0         0         0
         0         0         0         0         0         0         0         0
         0         0         0         0         0         0         0         0
         0         0         0         0         0         0         0         0
         0         0         0         0         0         0         0         0
         0         0         0         0         0         0         0         0
         0         0         0         0         0         0         0         0
         0         0         0         0         0         0         0         0
         0         0         0         0         0         0         0         0
         0         0         0         0         0         0         0         0
         0         0         0         0         0         0         0         0
         0         0         0         0         0         0         0         0
         0         0         0         0         0         0         0         0
         0         0         0         0         0         0         0         0
         0         0         0         0         0         0         0         0
         0         0         0         0         0         0         0         0
         0         0         0         0         0         0         0         0
         0         0         0         0         0         0         0         0
         0         0         0         0         0         0         0         0
         0         0         0         0         0         0         0         0
         0         0         0         0         0         0         0         0
         0         0         0         0         0         0         0         0
         0         0         0         0         0         0         0         0
         0         0         0         0         0         0         0         0
         0         0         0         0         0         0         0         0
         0         0         0         0         0         0         0         0
         0         0         0         0         0         0         0         0
         0         0         0         0         0         0         0         0
         0         0         0         0         0         0         0         0
         0         0         0         0         0         0         0         0
         0         0         0         0         0         0         0         0
         0         0         0         0         0         0         0         0
         0         0         0         0         0         0         0         0
         0         0         0         0         0         0         0         0
         0         0         0         0         0         0         0         0
         0         0         0         0         0         0         0         0
         0         0         0         0         0         0         0         0
         0         0         0         0         0         0         0         0
         0         0         0         0         0         0         0         0
         0         0         0         0         0         0         0         0
         0         0         0         0         0         0         0         0
         0         0         0         0         0         0         0         0
         0         0         0         0         0         0         0         0
         0         0         0         0         0         0         0         0
         0         0         0         0         0         0         0         0
         0         0         0         0         0         0         0         0
         0         0         0         0         0         0         0         0
         0         0         0         0         0         0         0         0
         0         0         0         0         0         0         0         0
         0         0         0         0         0         0         0         0
         0         0         0         0         0         0         0         0
         0         0         0         0         0         0         0         0
         0         0         0         0         0         0         0         0
         0         0         0         0         0         0         0         0
         0         0         0         0         0         0         0         0
         0         0         0         0         0         0         0         0
         0         0         0         0         0         0         0         0
         0         0         0         0         0         0         0         0
         0         0         0         0         0         0         0         0
         0         0         0         0         0         0         0         0
         0         0         0         0         0         0         0         0
         0         0         0         0         0         0         0         0
         0         0         0         0         0         0         0         0
         0         0         0         0         0         0         0         0
         0         0         0         0         0         0         0         0
         0         0         0         0         0         0         0         0
         0         0         0         0         0         0         0         0
         0         0         0         0         0         0         0         0
         0         0         0         0         0         0         0         0
         0         0         0         0         0         0         0         0
         0         0         0         0         0         0         0         0
         0         0         0         0         0         0         0         0
         0         0         0         0         0         0         0         0
         0         0         0         0         0         0         0         0
         0         0         0         0         0         0         0         0
         0         0         0         0         0         0         0         0
         0         0         0         0         0         0         0         0
         0         0         0         0         0         0         0         0
         0         0         0         0         0         0         0         0
         0         0         0         0         0         0         0         0
         0         0         0         0         0         0         0         0
         0         0         0         0         0         0         0         0
         0         0         0         0         0         0         0         0
         0         0         0         0         0         0         0         0
         0         0         0         0         0         0         0         0
         0         0         0         0         0         0         0         0
         0         0         0         0         0         0         0         0
         0         0         0         0         0         0         0         0
         0         0         0         0         0         0         0         0
         0         0         0         0         0         0         0         0
         0         0         0         0         0         0         0         0
         0         0         0         0         0         0         0         0
         0         0         0         0         0         0         0         0
         0         0         0         0         0         0         0         0
         0         0         0         0         0         0         0         0
         0         0         0         0         0         0         0         0
         0         0         0         0         0         0         0         0
         0         0         0         0         0         0         0         0
         0         0         0         0         0         0         0         0
         0         0         0         0         0         0         0         0
         0         0         0         0         0         0         0         0
         0         0         0         0         0         0         0         0
         0         0         0         0         0         0         0         0
         0         0         0         0         0         0         0         0
         0         0         0         0         0         0         0         0
         0         0         0         0         0         0         0         0
         0         0         0         0         0         0         0         0
         0         0         0         0         0         0         0         0
         0         0         0         0         0         0         0         0
         0         0         0         0         0         0         0         0
         0         0         0         0         0         0         0         0
         0         0         0         0         0         0         0         0
         0         0         0         0         0         0         0         0
         0         0         0         0         0         0         0         0
         0         0         0         0         0         0         0         0
         0         0         0         0         0         0         0         0
         0         0         0         0         0         0         0         0
         0         0         0         0         0         0         0         0
         0         0         0         0         0         0         0         0
         0         0         0         0         0         0         0         0
         0         0         0         0         0         0         0         0
         0         0         0         0         0         0         0         0
         0         0         0         0         0         0         0         0
         0         0         0         0         0         0         0         0
         0         0         0         0         0         0         0         0
         0         0         0         0         0         0         0         0
         0         0         0         0         0         0         0         0
         0         0         0         0         0         0         0         0
         0         0         0         0         0         0         0         0
         0         0         0         0         0         0         0         0
         0         0         0         0         0         0         0         0
         0         0         0         0         0         0         0         0
         0         0         0         0         0         0         0         0
         0         0         0         0         0         0         0         0
         0         0         0         0         0         0         0         0
         0         0         0         0         0         0         0         0
         0         0         0         0         0         0         0         0
         0         0         0         0         0         0         0         0
         0         0         0         0         0         0         0         0
         0         0         0         0         0         0         0         0
         0         0         0         0         0         0         0         0
         0         0         0         0         0         0         0         0
         0         0         0         0         0         0         0         0
         0         0         0         0         0         0         0         0
         0         0         0         0         0         0         0         0
         0         0         0         0         0         0         0         0
         0         0         0         0         0         0         0         0
         0         0         0         0         0         0         0         0
         0         0         0         0         0         0         0         0
         0         0         0         0         0         0         0         0
         0         0         0         0         0         0         0         0
         0         0         0         0         0         0         0         0
         0         0         0         0         0         0         0         0
         0         0         0         0         0         0         0         0
         0         0         0         0         0         0         0         0
         0         0         0         0         0         0         0         0
         0         0         0         0         0         0         0         0
         0         0         0         0         0         0         0         0
         0         0         0         0         0         0         0         0
         0         0         0         0         0         0         0         0
         0         0         0         0         0         0         0         0
         0         0         0         0         0         0         0         0
         0         0         0         0         0         0         0         0
         0         0         0         0         0         0         0         0
         0         0         0         0         0         0         0         0
         0         0         0         0         0         0         0         0
         0         0         0         0         0         0         0         0
         0         0         0         0         0         0         0         0
         0         0         0         0         0         0         0         0
         0         0         0         0         0         0         0         0
         0         0         0         0         0         0         0         0
         0         0         0         0         0         0         0         0
         0         0         0         0         0         0         0         0
         0         0         0         0         0         0         0         0
         0         0         0         0         0         0         0         0
         0         0         0         0         0         0         0         0
         0         0         0         0         0         0         0         0
         0         0         0         0         0         0         0         0
         0         0         0         0         0         0         0         0
         0         0         0         0         0         0         0         0
         0         0         0         0         0         0         0         0
         0         0         0         0         0         0         0         0
         0         0         0         0         0         0         0         0
         0         0         0         0         0         0         0         0
         0         0         0         0         0         0         0         0
         0         0         0         0         0         0         0         0
         0         0         0         0         0         0         0         0
         0         0         0         0         0         0         0         0
         0         0         0         0         0         0         0         0
         0         0         0         0         0         0         0         0
         0         0         0         0         0         0         0         0
         0         0         0         0         0         0         0         0
         0         0         0         0         0         0         0         0
         0         0         0         0         0         0         0         0
         0         0         0         0         0         0         0         0
         0         0         0         0         0         0         0         0
         0         0         0         0         0         0         0         0
         0         0         0         0         0         0         0         0
         0         0         0         0         0         0         0         0
         0         0         0         0         0         0         0         0
         0         0         0         0         0         0         0         0
         0         0         0         0         0         0         0         0
         0         0         0         0         0         0         0         0
         0         0         0         0         0         0         0         0
         0         0         0         0         0         0         0         0
         0         0         0         0         0         0         0         0
         0         0         0         0         0         0         0         0
         0         0         0         0         0         0         0         0
         0         0         0         0         0         0         0         0
         0         0         0         0         0         0         0         0
         0         0         0         0         0         0         0         0
         0         0         0         0         0         0         0         0
         0         0         0         0         0         0         0         0
         0         0         0         0         0         0         0         0
         0         0         0         0         0         0         0         0
         0         0         0         0         0         0         0         0
         0         0         0         0         0         0         0         0
         0         0         0         0         0         0         0         0
         0         0         0         0         0         0         0         0
         0         0         0         0         0         0         0         0
         0         0         0         0         0         0         0         0
         0         0         0         0         0         0         0         0
         0         0         0         0         0         0         0         0
         0         0         0         0         0         0         0         0
         0         0         0         0         0         0         0         0
         0         0         0         0         0         0         0         0
         0         0         0         0         0         0         0         0
         0         0         0         0         0         0         0         0
         0         0         0         0         0         0         0         0
         0         0         0         0         0         0         0         0
         0         0         0         0         0         0         0         0
         0         0         0         0         0         0         0         0
         0         0         0         0         0         0         0         0
         0         0         0         0         0         0         0         0
         0         0         0         0         0         0         0         0
         0         0         0         0         0         0         0         0
         0         0         0         0         0         0         0         0
         0         0         0         0         0         0         0         0
         0         0         0         0         0         0         0         0
         0         0         0         0         0         0         0         0
         0         0         0         0         0         0         0         0
         0         0         0         0         0         0         0         0
         0         0         0         0         0         0         0         0
         0         0         0         0         0         0         0         0
         0         0         0         0         0         0         0         0
         0         0         0         0         0         0         0         0
         0         0         0         0         0         0         0         0
         0         0         0         0         0         0         0         0
         0         0         0         0         0         0         0         0
         0         0         0         0         0         0         0         0
         0         0         0         0         0         0         0         0
         0         0         0         0         0         0         0         0
         0         0         0         0         0         0         0         0
         0         0         0         0         0         0         0         0
         0         0         0         0         0         0         0         0
         0         0         0         0         0         0         0         0
         0         0         0         0         0         0         0         0
         0         0         0         0         0         0         0         0
         0         0         0         0         0         0         0         0
         0         0         0         0         0         0         0         0
         0         0         0         0         0         0         0         0
         0         0         0         0         0         0         0         0
         0         0         0         0         0         0         0         0
         0         0         0         0         0         0         0         0
         0         0         0         0         0         0         0         0
         0         0         0         0         0         0         0         0
         0         0         0         0         0         0         0         0
         0         0         0         0         0         0         0         0
         0         0         0         0         0         0         0         0
         0         0         0         0         0         0         0         0
         0         0         0         0         0         0         0         0
         0         0         0         0         0         0         0         0
         0         0         0         0         0         0         0         0
         0         0         0         0         0         0         0         0
         0         0         0         0         0         0         0         0
         0         0         0         0         0         0         0         0
         0         0         0         0         0         0         0         0
         0         0         0         0         0         0         0         0
         0         0         0         0         0         0         0         0
         0         0         0         0         0         0         0         0
         0         0         0         0         0         0         0         0
         0         0         0         0         0         0         0         0
         0         0         0         0         0         0         0         0
         0         0         0         0         0         0         0         0
         0         0         0         0         0         0         0         0
         0         0         0         0         0         0         0         0
         0         0         0         0         0         0         0         0
         0         0         0         0         0         0         0         0
         0         0         0         0         0         0         0         0
         0         0         0         0         0         0         0         0
         0         0         0         0         0         0         0         0
         0         0         0         0         0         0         0         0
         0         0         0         0         0         0         0         0
         0         0         0         0         0         0         0         0
         0         0         0         0         0         0         0         0
         0         0         0         0         0         0         0         0
         0         0         0         0         0         0         0         0
         0         0         0         0         0         0         0         0
         0         0         0         0         0         0         0         0
         0         0         0         0         0         0         0         0
         0         0         0         0         0         0         0         0
         0         0         0         0         0         0         0         0
         0         0         0         0         0         0         0         0
         0         0         0         0         0         0         0         0
         0         0         0         0         0         0         0         0
         0         0         0         0         0         0         0         0
         0         0         0         0         0         0         0         0
         0         0         0         0         0         0         0         0
         0         0         0         0         0         0         0         0
         0         0         0         0         0         0         0         0
         0         0         0         0         0         0         0         0
         0         0         0         0         0         0         0         0
         0         0         0         0         0         0         0         0
         0         0         0         0         0         0         0         0
         0         0         0         0         0         0         0         0
         0         0         0         0         0         0         0         0
         0         0         0         0         0         0         0         0
         0         0         0         0         0         0         0         0
         0         0         0         0         0         0         0         0
         0         0         0         0         0         0         0         0
         0         0         0         0         0         0         0         0
         0         0         0         0         0         0         0         0
         0         0         0         0         0         0         0         0
         0         0         0         0         0         0         0         0
         0         0         0         0         0         0         0         0
         0         0         0         0         0         0         0         0
         0         0         0         0         0         0         0         0
         0         0         0         0         0         0         0         0
         0         0         0         0         0         0         0         0
         0         0         0         0         0         0         0         0
         0         0         0         0         0         0         0         0
         0         0         0         0         0         0         0         0
         0         0         0         0         0         0         0         0
         0         0         0         0         0         0         0         0
         0         0         0         0         0         0         0         0
         0         0         0         0         0         0         0         0
         0         0         0         0         0         0         0         0
         0         0         0         0         0         0         0         0
         0         0         0         0         0         0         0         0
         0         0         0         0         0         0         0         0
         0         0         0         0         0         0         0         0
         0         0         0         0         0         0         0         0
         0         0         0         0         0         0         0         0
         0         0         0         0         0         0         0         0
         0         0         0         0         0         0         0         0
         0         0         0         0         0         0         0         0
         0         0         0         0         0         0         0         0
         0         0         0         0         0         0         0         0
         0         0         0         0         0         0         0         0
         0         0         0         0         0         0         0         0
         0         0         0         0         0         0         0         0
         0         0         0         0         0         0         0         0
         0         0         0         0         0         0         0         0
         0         0         0         0         0         0         0         0
         0         0         0         0         0         0         0         0
         0         0         0         0         0         0         0         0
         0         0         0         0         0         0         0         0
         0         0         0         0         0         0         0         0
         0         0         0         0         0         0         0         0
         0         0         0         0         0         0         0         0
         0         0         0         0         0         0         0         0
         0         0         0         0         0         0         0         0
         0         0         0         0         0         0         0         0
         0         0         0         0         0         0         0         0
         0         0         0         0         0         0         0         0
         0         0         0         0         0         0         0         0
         0         0         0         0         0         0         0         0
         0         0         0         0         0         0         0         0
         0         0         0         0         0         0         0         0
         0         0         0         0         0         0         0         0
         0         0         0         0         0         0         0         0
         0         0         0         0         0         0         0         0
         0         0         0         0         0         0         0         0
         0         0         0         0         0         0         0         0
         0         0         0         0         0         0         0         0
         0         0         0         0         0         0         0         0
         0         0         0         0         0         0         0         0
         0         0         0         0         0         0         0         0
         0         0         0         0         0         0         0         0
         0         0         0         0         0         0         0         0
         0         0         0         0         0         0         0         0
         0         0         0         0         0         0         0         0
         0         0         0         0         0         0         0         0
         0         0         0         0         0         0         0         0
         0         0         0         0         0         0         0         0
         0         0         0         0         0         0         0         0
         0         0         0         0         0         0         0         0
         0         0         0         0         0         0         0         0
         0         0         0         0         0         0         0         0
         0         0         0         0         0         0         0         0
         0         0         0         0         0         0         0         0
         0         0         0         0         0         0         0         0
         0         0         0         0         0         0         0         0
         0         0         0         0         0         0         0         0
         0         0         0         0         0         0         0         0
         0         0         0         0         0         0         0         0
         0         0         0         0         0         0         0         0
         0         0         0         0         0         0         0         0
         0         0         0         0         0         0         0         0
         0         0         0         0         0         0         0         0
         0         0         0         0         0         0         0         0
         0         0         0         0         0         0         0         0
         0         0         0         0         0         0         0         0
         0         0         0         0         0         0         0         0
         0         0         0         0         0         0         0         0
         0         0         0         0         0         0         0         0
         0         0         0         0         0         0         0         0
         0         0         0         0         0         0         0         0
         0         0         0         0         0         0         0         0
         0         0         0         0         0         0         0         0
         0         0         0         0         0         0         0         0
         0         0         0         0         0         0         0         0
         0         0         0         0         0         0         0         0
         0         0         0         0         0         0         0         0
         0         0         0         0         0         0         0         0
         0         0         0         0         0         0         0         0
         0         0         0         0         0         0         0         0
         0         0         0         0         0         0         0         0
         0         0         0         0         0         0         0         0
         0         0         0         0         0         0         0         0
         0         0         0         0         0         0         0         0
         0         0         0         0         0         0         0         0
         0         0         0         0         0         0         0         0
         0         0         0         0         0         0         0         0
         0         0         0         0         0         0         0         0
         0         0         0         0         0         0         0         0
         0         0         0         0         0         0         0         0
         0         0         0         0         0         0         0         0
         0         0         0         0         0         0         0         0
         0         0         0         0         0         0         0         0
         0         0         0         0         0         0         0         0
         0         0         0         0         0         0         0         0
         0         0         0         0         0         0         0         0
         0         0         0         0         0         0         0         0
         0         0         0         0         0         0         0         0
         0         0         0         0         0         0         0         0
         0         0         0         0         0         0         0         0
         0         0         0         0         0         0         0         0
         0         0         0         0         0         0         0         0
         0         0         0         0         0         0         0         0
         0         0         0         0         0         0         0         0
         0         0         0         0         0         0         0         0
         0         0         0         0         0         0         0         0
         0         0         0         0         0         0         0         0
         0         0         0         0         0         0         0         0
         0         0         0         0         0         0         0         0
         0         0         0         0         0         0         0         0
         0         0         0         0         0         0         0         0
         0         0         0         0         0         0         0         0
         0         0         0         0         0         0         0         0
         0         0         0         0         0         0         0         0
         0         0         0         0         0         0         0         0
         0         0         0         0         0         0         0         0
         0         0         0         0         0         0         0         0
         0         0         0         0         0         0         0         0
         0         0         0         0         0         0         0         0
         0         0         0         0         0         0         0         0
         0         0         0         0         0         0         0         0
         0         0         0         0         0         0         0         0
         0         0         0         0         0         0         0         0
         0         0         0         0         0         0         0         0
         0         0         0         0         0         0         0         0
         0         0         0         0         0         0         0         0
         0         0         0         0         0         0         0         0
         0         0         0         0         0         0         0         0
         0         0         0         0         0         0         0         0
         0         0         0         0         0         0         0         0
         0         0         0         0         0         0         0         0
         0         0         0         0         0         0         0         0
         0         0         0         0         0         0         0         0
         0         0         0         0         0         0         0         0
         0         0         0         0         0         0         0         0
         0         0         0         0         0         0         0         0
         0         0         0         0         0         0         0         0
         0         0         0         0         0         0         0         0
         0         0         0         0         0         0         0         0
         0         0         0         0         0         0         0         0
         0         0         0         0         0         0         0         0
         0         0         0         0         0         0         0         0
         0         0         0         0         0         0         0         0
         0         0         0         0         0         0         0         0
         0         0         0         0         0         0         0         0
         0         0         0         0         0         0         0         0
         0         0         0         0         0         0         0         0
         0         0         0         0         0         0         0         0
         0         0         0         0         0         0         0         0
         0         0         0         0         0         0         0         0
         0         0         0         0         0         0         0         0
         0         0         0         0         0         0         0         0
         0         0         0         0         0         0         0         0
         0         0         0         0         0         0         0         0
         0         0         0         0         0         0         0         0
         0         0         0         0         0         0         0         0
         0         0         0         0         0         0         0         0
         0         0         0         0         0         0         0         0
         0         0         0         0         0         0         0         0
         0         0         0         0         0         0         0         0
         0         0         0         0         0         0         0         0
         0         0         0         0         0         0         0         0
         0         0         0         0         0         0         0         0
         0         0         0         0         0         0         0         0
         0         0         0         0         0         0         0         0
         0         0         0         0         0         0         0         0
         0         0         0         0         0         0         0         0
         0         0         0         0         0         0         0         0
         0         0         0         0         0         0         0         0
         0         0         0         0         0         0         0         0
         0         0         0         0         0         0         0         0
         0         0         0         0         0         0         0         0
         0         0         0         0         0         0         0         0
         0         0         0         0         0         0         0         0
         0         0         0         0         0         0         0         0
         0         0         0         0         0         0         0         0
         0         0         0         0         0         0         0         0
         0         0         0         0         0         0         0         0
         0         0         0         0         0         0         0         0
         0         0         0         0         0         0         0         0
         0         0         0         0         0         0         0         0
         0         0         0         0         0         0         0         0
         0         0         0         0         0         0         0         0
         0         0         0         0         0         0         0         0
         0         0         0         0         0         0         0         0
         0         0         0         0         0         0         0         0
         0         0         0         0         0         0         0         0
         0         0         0         0         0         0         0         0
         0         0         0         0         0         0         0         0
         0         0         0         0         0         0         0         0
         0         0         0         0         0         0         0         0
         0         0         0         0         0         0         0         0
         0         0         0         0         0         0         0         0
         0         0         0         0         0         0         0         0
         0         0         0         0         0         0         0         0
         0         0         0         0         0         0         0         0
         0         0         0         0         0         0         0         0
         0         0         0         0         0         0         0         0
         0         0         0         0         0         0         0         0
         0         0         0         0         0         0         0         0
         0         0         0         0         0         0         0         0
         0         0         0         0         0         0         0         0
         0         0         0         0         0         0         0         0
         0         0         0         0         0         0         0         0
         0         0         0         0         0         0         0         0
         0         0         0         0         0         0         0         0
         0         0         0         0         0         0         0         0
         0         0         0         0         0         0         0         0
         0         0         0         0         0         0         0         0
         0         0         0         0         0         0         0         0
         0         0         0         0         0         0         0         0
         0         0         0         0         0         0         0         0
         0         0         0         0         0         0         0         0
         0         0         0         0         0         0         0         0
         0         0         0         0         0         0         0         0
         0         0         0         0         0         0         0         0
         0         0         0         0         0         0         0         0
         0         0         0         0         0         0         0         0
         0         0         0         0         0         0         0         0
         0         0         0         0         0         0         0         0
         0         0         0         0         0         0         0         0
         0         0         0         0         0         0         0         0
         0         0         0         0         0         0         0         0
         0         0         0         0         0         0         0         0
         0         0         0         0         0         0         0         0
         0         0         0         0         0         0         0         0
         0         0         0         0         0         0         0         0
         0         0         0         0         0         0         0         0
         0         0         0         0         0         0         0         0
         0         0         0         0         0         0         0         0
         0         0         0         0         0         0         0         0
         0         0         0         0         0         0         0         0
         0         0         0         0         0         0         0         0
         0         0         0         0         0         0         0         0
         0         0         0         0         0         0         0         0
         0         0         0         0         0         0         0         0
         0         0         0         0         0         0         0         0
         0         0         0         0         0         0         0         0
         0         0         0         0         0         0         0         0
         0         0         0         0         0         0         0         0
         0         0         0         0         0         0         0         0
         0         0         0         0         0         0         0         0
         0         0         0         0         0         0         0         0
         0         0         0         0         0         0         0         0
         0         0         0         0         0         0         0         0
         0         0         0         0         0         0         0         0
         0         0         0         0         0         0         0         0
         0         0         0         0         0         0         0         0
         0         0         0         0         0         0         0         0
         0         0         0         0         0         0         0         0
         0         0         0         0         0         0         0         0
         0         0         0         0         0         0         0         0
         0         0         0         0         0         0         0         0
         0         0         0         0         0         0         0         0
         0         0         0         0         0         0         0         0
         0         0         0         0         0         0         0         0
         0         0         0         0         0         0         0         0
         0         0         0         0         0         0         0         0
         0         0         0         0         0         0         0         0
         0         0         0         0         0         0         0         0
         0         0         0         0         0         0         0         0
         0         0         0         0         0         0         0         0
         0         0         0         0         0         0         0         0
         0         0         0         0         0         0         0         0
         0         0         0         0         0         0         0         0
         0         0         0         0         0         0         0         0
         0         0         0         0         0         0         0         0
         0         0         0         0         0         0         0         0
         0         0         0         0         0         0         0         0
         0         0         0         0         0         0         0         0
         0         0         0         0         0         0         0         0
         0         0         0         0         0         0         0         0
         0         0         0         0         0         0         0         0
         0         0         0         0         0         0         0         0
         0         0         0         0         0         0         0         0
         0         0         0         0         0         0         0         0
         0         0         0         0         0         0         0         0
         0         0         0         0         0         0         0         0
         0         0         0         0         0         0         0         0
         0         0         0         0         0         0         0         0
         0         0         0         0         0         0         0         0
         0         0         0         0         0         0         0         0
         0         0         0         0         0         0         0         0
         0         0         0         0         0         0         0         0
         0         0         0         0         0         0         0         0
         0         0         0         0         0         0         0         0
         0         0         0         0         0         0         0         0
         0         0         0         0         0         0         0         0
         0         0         0         0         0         0         0         0
         0         0         0         0         0         0         0         0
         0         0         0         0         0         0         0         0
         0         0         0         0         0         0         0         0
         0         0         0         0         0         0         0         0
         0         0         0         0         0         0         0         0
         0         0         0         0         0         0         0         0
         0         0         0         0         0         0         0         0
         0         0         0         0         0         0         0         0
         0         0         0         0         0         0         0         0
         0         0         0         0         0         0         0         0
         0         0         0         0         0         0         0         0
         0         0         0         0         0         0         0         0
         0         0         0         0         0         0         0         0
         0         0         0         0         0         0         0         0
         0         0         0         0         0         0         0         0
         0         0         0         0         0         0         0         0
         0         0         0         0         0         0         0         0
         0         0         0         0         0         0         0         0
         0         0         0         0         0         0         0         0
         0         0         0         0         0         0         0         0
         0         0         0         0         0         0         0         0
         0         0         0         0         0         0         0         0
         0         0         0         0         0         0         0         0
         0         0         0         0         0         0         0         0
         0         0         0         0         0         0         0         0
         0         0         0         0         0         0         0         0
         0         0         0         0         0         0         0         0
         0         0         0         0         0         0

      1617         0 !NGRP NST2
         0         2         0        20         2         0        40         2         0
        60         2         0        80         2         0       100         2         0
       120         2         0       140         2         0       160         2         0
       180         2         0       200         2         0       220         2         0
       240         2         0       260         2         0       280         2         0
       300         2         0       320         2         0       340         2         0
       360         2         0       380         2         0       400         2         0
       420         2         0       440         2         0       460         2         0
       480         2         0       500         2         0       520         2         0
       540         2         0       560         2         0       580         2         0
       600         2         0       620         2         0       640         2         0
       660         2         0       677         2         0       694         2         0
       711         2         0       728         2         0       745         2         0
       762         2         0       779         2         0       796         2         0
       813         2         0       830         2         0       847         2         0
       864         2         0       881         2         0       898         2         0
       915         2         0       932         2         0       949         2         0
       966         2         0       983         2         0      1000         2         0
      1017         2         0      1034         2         0      1051         2         0
      1068         2         0      1085         2         0      1102         2         0
      1119         2         0      1136         2         0      1153         2         0
      1170         2         0      1187         2         0      1204         2         0
      1221         1         0      1241         1         0      1261         1         0
      1281         1         0      1301         1         0      1321         1         0
      1341         1         0      1361         1         0      1381         1         0
      1401         1         0      1421         1         0      1441         1         0
      1461         1         0      1481         1         0      1501         1         0
      1521         1         0      1541         1         0      1561         1         0
      1581         1         0      1601         1         0      1621         1         0
      1641         1         0      1661         1         0      1681         1         0
      1701         1         0      1721         1         0      1741         1         0
      1761         1         0      1781         1         0      1801         1         0
      1821         1         0      1841         1         0      1861         1         0
      1881         1         0      1901         1         0      1921         1         0
      1941         1         0      1961         1         0      1981         1         0
      2001         1         0      2021         1         0      2041         1         0
      2061         1         0      2081         1         0      2101         1         0
      2121         1         0      2141         1         0      2161         1         0
      2181         1         0      2201         1         0      2221         1         0
      2241         1         0      2261         1         0      2281         1         0
      2301         1         0      2321         1         0      2341         1         0
      2361         1         0      2381         1         0      2401         1         0
      2421         1         0      2441         1         0      2461         1         0
      2481         1         0      2501         1         0      2521         1         0
      2541         1         0      2561         1         0      2581         1         0
      2601         1         0      2621         1         0      2641         1         0
      2661         1         0      2681         1         0      2701         1         0
      2721         1         0      2741         1         0      2761         1         0
      2781         1         0      2798         1         0      2815         1         0
      2832         1         0      2849         1         0      2866         1         0
      2883         1         0      2900         1         0      2917         1         0
      2934         1         0      2951         1         0      2968         1         0
      2985         1         0      3002         1         0      3019         1         0
      3036         1         0      3053         1         0      3070         1         0
      3087         1         0      3104         1         0      3121         1         0
      3138         1         0      3155         1         0      3172         1         0
      3189         1         0      3206         1         0      3223         1         0
      3240         1         0      3257         1         0      3274         1         0
      3291         1         0      3308         1         0      3325         1         0
      3342         1         0      3359         1         0      3376         1         0
      3393         1         0      3410         1         0      3427         1         0
      3444         1         0      3461         1         0      3478         1         0
      3495         1         0      3512         1         0      3529         1         0
      3546         1         0      3563         1         0      3580         1         0
      3597         1         0      3614         1         0      3631         1         0
      3648         1         0      3665         1         0      3682         1         0
      3699         1         0      3716         1         0      3733         1         0
      3750         1         0      3767         1         0      3784         1         0
      3801         1         0      3818         1         0      3835         1         0
      3852         1         0      3869         1         0      3886         1         0
      3903         1         0      3920         1         0      3937         1         0
      3954         1         0      3971         1         0      3988         1         0
      4005         1         0      4022         1         0      4039         1         0
      4056         1         0      4073         1         0      4090         1         0
      4107         2         0      4124         2         0      4141         2         0
      4158         2         0      4175         2         0      4192         2         0
      4209         2         0      4294         2         0      4379         2         0
      4464         2         0      4549         2         0      4634         2         0
      4719         1         0      4730         1         0      4741         1         0
      4752         1         0      4763         1         0      4774         1         0
      4785         1         0      4796         1         0      4807         1         0
      4818         1         0      4829         1         0      4840         1         0
      4851         1         0      4862         1         0      4873         1         0
      4884         1         0      4895         1         0      4906         1         0
      4917         1         0      4928         1         0      4939         1         0
      4950         1         0      4961         1         0      4972         1         0
      4983         1         0      4994         1         0      5005         1         0
      5016         1         0      5027         1         0      5038         1         0
      5049         1         0      5060         1         0      5071         1         0
      5082         1         0      5093         1         0      5104         1         0
      5115         1         0      5126         1         0      5137         1         0
      5148         1         0      5159         1         0      5170         1         0
      5181         1         0      5192         1         0      5203         1         0
      5214         1         0      5225         1         0      5236         1         0
      5247         1         0      5258         1         0      5269         1         0
      5280         1         0      5291         1         0      5302         1         0
      5313         1         0      5324         1         0      5335         1         0
      5346         1         0      5357         1         0      5368         1         0
      5379         1         0      5390         1         0      5401         1         0
      5412         1         0      5423         1         0      5434         1         0
      5445         1         0      5456         1         0      5467         1         0
      5478         1         0      5489         1         0      5500         1         0
      5511         1         0      5522         1         0      5533         1         0
      5544         1         0      5555         1         0      5566         1         0
      5577         1         0      5588         1         0      5599         1         0
      5610         1         0      5621         1         0      5632         1         0
      5643         1         0      5654         1         0      5665         1         0
      5676         1         0      5687         1         0      5698         1         0
      5709         1         0      5720         1         0      5731         1         0
      5742         1         0      5753         1         0      5764         1         0
      5775         1         0      5786         1         0      5797         1         0
      5808         1         0      5819         1         0      5830         1         0
      5841         1         0      5852         1         0      5863         1         0
      5874         1         0      5885         1         0      5896         1         0
      5907         1         0      5918         1         0      5929         1         0
      5940         1         0      5951         1         0      5962         1         0
      5973         1         0      5984         1         0      5995         1         0
      6006         1         0      6017         1         0      6028         1         0
      6039         1         0      6050         1         0      6061         1         0
      6072         1         0      6083         1         0      6094         1         0
      6105         1         0      6116         1         0      6127         1         0
      6138         1         0      6149         1         0      6160         1         0
      6171         1         0      6182         1         0      6193         1         0
      6204         1         0      6215         1         0      6226         1         0
      6237         1         0      6248         1         0      6259         1         0
      6270         1         0      6281         1         0      6292         1         0
      6303         1         0      6314         1         0      6325         1         0
      6336         1         0      6347         1         0      6358         1         0
      6369         1         0      6380         1         0      6391         1         0
      6402         1         0      6413         1         0      6424         1         0
      6435         1         0      6446         1         0      6457         1         0
      6468         1         0      6479         1         0      6490         1         0
      6501         1         0      6512         1         0      6523         1         0
      6534         1         0      6545         1         0      6556         1         0
      6567         1         0      6578         1         0      6589         1         0
      6600         1         0      6611         1         0      6622         1         0
      6633         1         0      6644         1         0      6655         1         0
      6666         1         0      6677         1         0      6688         1         0
      6699         1         0      6710         1         0      6721         1         0
      6732         1         0      6743         1         0      6754         1         0
      6765         1         0      6776         1         0      6787         1         0
      6798         1         0      6809         1         0      6820         1         0
      6831         1         0      6842         1         0      6853         1         0
      6864         1         0      6875         1         0      6886         1         0
      6897         1         0      6908         1         0      6919         1         0
      6930         1         0      6941         1         0      6952         1         0
      6963         1         0      6974         1         0      6985         1         0
      6996         1         0      7007         1         0      7018         1         0
      7029         1         0      7040         1         0      7051         1         0
      7062         1         0      7073         1         0      7084         1         0
      7095         1         0      7106         1         0      7117         1         0
      7128         1         0      7139         1         0      7150         1         0
      7161         1         0      7172         1         0      7183         1         0
      7194         1         0      7205         1         0      7216         1         0
      7227         1         0      7238         1         0      7249         1         0
      7260         1         0      7271         1         0      7282         1         0
      7293         1         0      7304         1         0      7315         1         0
      7326         1         0      7337         1         0      7348         1         0
      7359         1         0      7370         1         0      7381         1         0
      7392         1         0      7403         1         0      7414         1         0
      7425         1         0      7436         1         0      7447         1         0
      7458         1         0      7469         1         0      7480         1         0
      7491         1         0      7502         1         0      7513         1         0
      7524         1         0      7535         1         0      7546         1         0
      7557         1         0      7568         1         0      7579         1         0
      7590         1         0      7601         1         0      7612         1         0
      7623         1         0      7634         1         0      7645         1         0
      7656         1         0      7667         1         0      7678         1         0
      7689         1         0      7700         1         0      7711         1         0
      7722         1         0      7733         1         0      7744         1         0
      7755         1         0      7766         1         0      7777         1         0
      7788         1         0      7799         1         0      7810         1         0
      7821         1         0      7832         1         0      7843         1         0
      7854         1         0      7865         1         0      7876         1         0
      7887         1         0      7898         1         0      7909         1         0
      7920         1         0      7931         1         0      7942         1         0
      7953         1         0      7964         1         0      7975         1         0
      7986         1         0      7997         1         0      8008         1         0
      8019         1         0      8030         1         0      8041         1         0
      8052         1         0      8063         1         0      8074         1         0
      8085         1         0      8096         1         0      8107         1         0
      8118         1         0      8129         1         0      8140         1         0
      8151         1         0      8162         1         0      8173         1         0
      8184         1         0      8195         1         0      8206         1         0
      8217         1         0      8228         1         0      8239         1         0
      8250         1         0      8261         1         0      8272         1         0
      8283         1         0      8294         1         0      8305         1         0
      8316         1         0      8327         1         0      8338         1         0
      8349         1         0      8360         1         0      8371         1         0
      8382         1         0      8393         1         0      8404         1         0
      8415         1         0      8426         1         0      8437         1         0
      8448         1         0      8459         1         0      8470         1         0
      8481         1         0      8492         1         0      8503         1         0
      8514         1         0      8525         1         0      8536         1         0
      8547         1         0      8558         1         0      8569         1         0
      8580         1         0      8591         1         0      8602         1         0
      8613         1         0      8624         1         0      8635         1         0
      8646         1         0      8657         1         0      8668         1         0
      8679         1         0      8690         1         0      8701         1         0
      8712         1         0      8723         1         0      8734         1         0
      8745         1         0      8756         1         0      8767         1         0
      8778         1         0      8789         1         0      8800         1         0
      8811         1         0      8822         1         0      8833         1         0
      8844         1         0      8855         1         0      8866         1         0
      8877         1         0      8888         1         0      8899         1         0
      8910         1         0      8921         1         0      8932         1         0
      8943         1         0      8954         1         0      8965         1         0
      8976         1         0      8987         1         0      8998         1         0
      9009         1         0      9020         1         0      9031         1         0
      9042         1         0      9053         1         0      9064         1         0
      9075         1         0      9086         1         0      9097         1         0
      9108         1         0      9119         1         0      9130         1         0
      9141         1         0      9152         1         0      9163         1         0
      9174         1         0      9185         1         0      9196         1         0
      9207         1         0      9218         1         0      9229         1         0
      9240         1         0      9251         1         0      9262         1         0
      9273         1         0      9284         1         0      9295         1         0
      9306         1         0      9317         1         0      9328         1         0
      9339         1         0      9350         1         0      9361         1         0
      9372         1         0      9383         1         0      9394         1         0
      9405         1         0      9416         1         0      9427         1         0
      9438         1         0      9449         1         0      9460         1         0
      9471         1         0      9482         1         0      9493         1         0
      9504         1         0      9515         1         0      9526         1         0
      9537         1         0      9548         1         0      9559         1         0
      9570         1         0      9581         1         0      9592         1         0
      9603         1         0      9614         1         0      9625         1         0
      9636         1         0      9647         1         0      9658         1         0
      9669         1         0      9680         1         0      9691         1         0
      9702         1         0      9713         1         0      9724         1         0
      9735         1         0      9746         1         0      9757         1         0
      9768         1         0      9779         1         0      9790         1         0
      9801         1         0      9812         1         0      9823         1         0
      9834         1         0      9845         1         0      9856         1         0
      9867         1         0      9878         1         0      9889         1         0
      9900         1         0      9911         1         0      9922         1         0
      9933         1         0      9944         1         0      9955         1         0
      9966         1         0      9977         1         0      9988         1         0
      9999         1         0     10010         1         0     10021         1         0
     10032         1         0     10043         1         0     10054         1         0
     10065         1         0     10076         1         0     10087         1         0
     10098         1         0     10109         1         0     10120         1         0
     10131         1         0     10142         1         0     10153         1         0
     10164         1         0     10175         1         0     10186         1         0
     10197         1         0     10208         1         0     10219         1         0
     10230         1         0     10241         1         0     10252         1         0
     10263         1         0     10274         1         0     10285         1         0
     10296         1         0     10307         1         0     10318         1         0
     10329         1         0     10340         1         0     10351         1         0
     10362         1         0     10373         1         0     10384         1         0
     10395         1         0     10406         1         0     10417         1         0
     10428         1         0     10439         1         0     10450         1         0
     10461         1         0     10472         1         0     10483         1         0
     10494         1         0     10505         1         0     10516         1         0
     10527         1         0     10538         1         0     10549         1         0
     10560         1         0     10571         1         0     10582         1         0
     10593         1         0     10604         1         0     10615         1         0
     10626         1         0     10637         1         0     10648         1         0
     10659         1         0     10670         1         0     10681         1         0
     10692         1         0     10703         1         0     10714         1         0
     10725         1         0     10736         1         0     10747         1         0
     10758         1         0     10769         1         0     10780         1         0
     10791         1         0     10802         1         0     10813         1         0
     10824         1         0     10835         1         0     10846         1         0
     10857         1         0     10868         1         0     10879         1         0
     10890         1         0     10901         1         0     10912         1         0
     10923         1         0     10934         1         0     10945         1         0
     10956         1         0     10967         1         0     10978         1         0
     10989         1         0     11000         1         0     11011         1         0
     11022         1         0     11033         1         0     11044         1         0
     11055         1         0     11066         1         0     11077         1         0
     11088         1         0     11099         1         0     11110         1         0
     11121         1         0     11132         1         0     11143         1         0
     11154         1         0     11165         1         0     11176         1         0
     11187         1         0     11198         1         0     11209         1         0
     11220         1         0     11231         1         0     11242         1         0
     11253         1         0     11264         1         0     11275         1         0
     11286         1         0     11297         1         0     11308         1         0
     11319         1         0     11330         1         0     11341         1         0
     11352         1         0     11363         1         0     11374         1         0
     11385         1         0     11396         1         0     11407         1         0
     11418         1         0     11429         1         0     11440         1         0
     11451         1         0     11462         1         0     11473         1         0
     11484         1         0     11495         1         0     11506         1         0
     11517         1         0     11528         1         0     11539         1         0
     11550         1         0     11561         1         0     11572         1         0
     11583         1         0     11594         1         0     11605         1         0
     11616         1         0     11627         1         0     11638         1         0
     11649         1         0     11660         1         0     11671         1         0
     11682         1         0     11693         1         0     11704         1         0
     11715         1         0     11726         1         0     11737         1         0
     11748         1         0     11759         1         0     11770         1         0
     11781         1         0     11792         1         0     11803         1         0
     11814         1         0     11825         1         0     11836         1         0
     11847         1         0     11858         1         0     11869         1         0
     11880         1         0     11891         1         0     11902         1         0
     11913         1         0     11924         1         0     11935         1         0
     11946         1         0     11957         1         0     11968         1         0
     11979         1         0     11990         1         0     12001         1         0
     12012         1         0     12023         1         0     12034         1         0
     12045         1         0     12056         1         0     12067         1         0
     12078         1         0     12089         1         0     12100         1         0
     12111         1         0     12122         1         0     12133         1         0
     12144         1         0     12155         1         0     12166         1         0
     12177         1         0     12188         1         0     12199         1         0
     12210         1         0     12221         1         0     12232         1         0
     12243         1         0     12254         1         0     12265         1         0
     12276         1         0     12287         1         0     12298         1         0
     12309         1         0     12320         1         0     12331         1         0
     12342         1         0     12353         1         0     12364         1         0
     12375         1         0     12386         1         0     12397         1         0
     12408         1         0     12419         1         0     12430         1         0
     12441         1         0     12452         1         0     12463         1         0
     12474         1         0     12485         1         0     12496         1         0
     12507         1         0     12518         1         0     12529         1         0
     12540         1         0     12551         1         0     12562         1         0
     12573         1         0     12584         1         0     12595         1         0
     12606         1         0     12617         1         0     12628         1         0
     12639         1         0     12650         1         0     12661         1         0
     12672         1         0     12683         1         0     12694         1         0
     12705         1         0     12716         1         0     12727         1         0
     12738         1         0     12749         1         0     12760         1         0
     12771         1         0     12782         1         0     12793         1         0
     12804         1         0     12815         1         0     12826         1         0
     12837         1         0     12848         1         0     12859         1         0
     12870         1         0     12881         1         0     12892         1         0
     12903         1         0     12914         1         0     12925         1         0
     12936         1         0     12947         1         0     12958         1         0
     12969         1         0     12980         1         0     12991         1         0
     13002         1         0     13013         1         0     13024         1         0
     13035         1         0     13046         1         0     13057         1         0
     13068         1         0     13079         1         0     13090         1         0
     13101         1         0     13112         1         0     13123         1         0
     13134         1         0     13145         1         0     13156         1         0
     13167         1         0     13178         1         0     13189         1         0
     13200         1         0     13211         1         0     13222         1         0
     13233         1         0     13244         1         0     13255         1         0
     13266         1         0     13277         1         0     13288         1         0
     13299         1         0     13310         1         0     13321         1         0
     13332         1         0     13343         1         0     13354         1         0
     13365         1         0     13376         1         0     13387         1         0
     13398         1         0     13409         1         0     13420         1         0
     13431         1         0     13442         1         0     13453         1         0
     13464         1         0     13475         1         0     13486         1         0
     13497         1         0     13508         1         0     13519         1         0
     13530         1         0     13541         1         0     13552         1         0
     13563         1         0     13574         1         0     13585         1         0
     13596         1         0     13607         1         0     13618         1         0
     13629         1         0     13640         1         0     13651         1         0
     13662         1         0     13673         1         0     13684         1         0
     13695         1         0     13706         1         0     13717         1         0
     13728         1         0     13739         1         0     13750         1         0
     13761         1         0     13772         1         0     13783         1         0
     13794         1         0     13805         1         0     13816         1         0
     13827         1         0     13838         1         0     13849         1         0
     13860         1         0     13871         1         0     13882         1         0
     13893         1         0     13904         1         0     13915         1         0
     13926         1         0     13937         1         0     13948         1         0
     13959         1         0     13970         1         0     13981         1         0
     13992         1         0     14003         1         0     14014         1         0
     14025         1         0     14036         1         0     14047         1         0
     14058         1         0     14069         1         0     14080         1         0
     14091         1         0     14102         1         0     14113         1         0
     14124         1         0     14135         1         0     14146         1         0
     14157         1         0     14168         1         0     14179         1         0
     14190         1         0     14201         1         0     14212         1         0
     14223         1         0     14234         1         0     14245         1         0
     14256         1         0     14267         1         0     14278         1         0
     14289         1         0     14300         1         0     14311         1         0
     14322         1         0     14333         1         0     14344         1         0
     14355         1         0     14366         1         0     14377         1         0
     14388         1         0     14399         1         0     14410         1         0
     14421         1         0     14432         1         0     14443         1         0
     14454         1         0     14465         1         0     14476         1         0
     14487         1         0     14498         1         0     14509         1         0
     14520         1         0     14531         1         0     14542         1         0
     14553         1         0     14564         1         0     14575         1         0
     14586         1         0     14597         1         0     14608         1         0
     14619         1         0     14630         1         0     14641         1         0
     14652         1         0     14663         1         0     14674         1         0
     14685         1         0     14696         1         0     14707         1         0
     14718         1         0     14729         1         0     14740         1         0
     14751         1         0     14762         1         0     14773         1         0
     14784         1         0     14795         1         0     14806         1         0
     14817         1         0     14828         1         0     14839         1         0
     14850         1         0     14861         1         0     14872         1         0
     14883         1         0     14894         1         0     14905         1         0
     14916         1         0     14927         1         0     14938         1         0
     14949         1         0     14960         1         0     14971         1         0
     14982         1         0     14993         1         0     15004         1         0
     15015         1         0     15026         1         0     15037         1         0
     15048         1         0     15059         1         0     15070         1         0
     15081         1         0     15092         1         0     15103         1         0
     15114         1         0     15125         1         0     15136         1         0
     15147         1         0     15158         1         0     15169         1         0
     15180         1         0     15191         1         0     15202         1         0
     15213         1         0     15224         1         0     15235         1         0
     15246         1         0     15257         1         0     15268         1         0
     15279         1         0     15290         1         0     15301         1         0
     15312         1         0     15323         1         0     15334         1         0
     15345         1         0     15356         1         0     15367         1         0
     15378         1         0     15389         1         0     15400         1         0
     15411         1         0     15422         1         0     15433         1         0
     15444         1         0     15455         1         0     15466         1         0
     15477         1         0     15488         1         0     15499         1         0
     15510         1         0     15521         1         0     15532         1         0
     15543         1         0     15554         1         0     15565         1         0
     15576         1         0     15587         1         0     15598         1         0
     15609         1         0     15620         1         0     15631         1         0
     15642         1         0     15653         1         0     15664         1         0
     15675         1         0     15686         1         0     15697         1         0
     15708         1         0     15719         1         0     15730         1         0
     15741         1         0     15752         1         0     15763         1         0
     15774         1         0     15785         1         0     15796         1         0
     15807         1         0     15818         1         0     15829         1         0
     15840         1         0     15851         1         0     15862         1         0
     15873         1         0     15884         1         0     15895         1         0
     15906         1         0     15917         1         0     15928         1         0
     15939         1         0     15950         1         0     15961         1         0
     15972         1         0     15983         1         0     15994         1         0
     16005         1         0     16016         1         0     16027         1         0
     16038         1         0     16049         1         0     16060         1         0
     16071         1         0     16082         1         0     16093         1         0
     16104         1         0     16115         1         0     16126         1         0
     16137         1         0     16148         1         0     16159         1         0
     16170         1         0     16181         1         0     16192         1         0
     16203         1         0     16214         1         0     16225         1         0
     16236         1         0     16247         1         0     16258         1         0
     16269         1         0     16280         1         0     16291         1         0
     16302         1         0     16313         1         0     16324         1         0
     16335         1         0     16346         1         0     16357         1         0
     16368         1         0     16379         1         0     16390         1         0
     16401         1         0     16412         1         0     16423         1         0
     16434         1         0     16445         1         0     16456         1         0
     16467         1         0     16478         1         0     16489         1         0
     16500         1         0     16511         1         0     16522         1         0
     16533         1         0     16544         1         0     16555         1         0
     16566         1         0     16577         1         0     16588         1         0
     16599         1         0     16610         1         0     16621         1         0
     16632         1         0     16643         1         0     16654         1         0
     16665         1         0     16676         1         0     16687         1         0
     16698         1         0     16709         1         0     16720         1         0
     16731         1         0     16742         1         0     16753         1         0
     16764         1         0     16775         1         0     16786         1         0
     16797         1         0     16808         1         0     16819         1         0
     16830         1         0     16841         1         0     16852         1         0
     16863         1         0     16874         1         0     16885         1         0
     16896         1         0     16907         1         0     16918         1         0
     16929         1         0     16940         1         0     16951         1         0
     16962         1         0     16973         1         0     16984         1         0
     16995         1         0     17006         1         0     17017         1         0
     17028         1         0     17039         1         0     17050         1         0
     17061         1         0     17072         1         0     17083         1         0
     17094         1         0     17105         1         0     17116         1         0
     17127         1         0     17138         1         0     17149         1         0
     17160         1         0     17171         1         0     17182         1         0
     17193         1         0     17204         1         0     17215         1         0
     17226         1         0     17237         1         0     17248         1         0
     17259         1         0     17270         1         0     17281         1         0
     17292         1         0     17303         1         0     17314         1         0
     17325         1         0     17336         1         0     17347         1         0
     17358         1         0     17369         1         0     17380         1         0
     17391         1         0     17402         1         0     17413         1         0
     17424         1         0     17435         1         0     17446         1         0
     17457         1         0     17468         1         0     17479         1         0
     17490         1         0     17501         1         0     17512         1         0
     17523         1         0     17534         1         0     17545         1         0
     17556         1         0     17567         1         0     17578         1         0
     17589         1         0     17600         1         0     17611         1         0
     17622         1         0     17633         1         0     17644         1         0
     17655         1         0     17666         1         0     17677         1         0
     17688         1         0     17699         1         0     17710         1         0
     17721         1         0     17732         1         0     17743         1         0
     17754         1         0     17765         1         0     17776         1         0
     17787         1         0     17798         1         0     17809         1         0
     17820         1         0     17831         1         0     17842         1         0
     17853         1         0     17864         1         0     17875         1         0
     17886         1         0     17897         1         0     17908         1         0
     17919         1         0     17930         1         0     17941         1         0
     17952         1         0     17963         1         0     17974         1         0
     17985         1         0     17996         1         0     18007         1         0
     18018         1         0     18029         1         0     18040         1         0
     18051         1         0     18062         1         0     18073         1         0
     18084         1         0     18095         1         0     18106         1         0
     18117         1         0     18128         1         0     18139         1         0
     18150         1         0     18161         1         0     18172         1         0
     18183         1         0     18194         1         0     18205         1         0
     18216         1         0     18227         1         0     18238         1         0
     18249         1         0     18260         1         0     18271         1         0
     18282         1         0     18293         1         0     18304         1         0
     18315         1         0     18326         1         0     18337         1         0
     18348         1         0     18359         1         0     18370         1         0
     18381         1         0     18392         1         0     18403         1         0
     18414         1         0     18425         1         0     18436         1         0
     18447         1         0     18458         1         0     18469         1         0
     18480         1         0     18491         1         0     18502         1         0
     18513         1         0     18524         1         0     18535         1         0
     18546         1         0     18557         1         0     18568         1         0
     18579         1         0     18590         1         0     18601         1         0
     18612         1         0     18623         1         0     18634         1         0
     18645         1         0     18656         1         0     18667         1         0
     18678         1         0     18689         1         0     18700         1         0
     18711         1         0     18722         1         0     18733         1         0
     18744         1         0     18755         1         0     18766         1         0
     18777         1         0     18788         1         0     18799         1         0
     18810         1         0     18821         1         0     18832         1         0
     18843         1         0     18854         1         0     18865         1         0
     18876         1         0     18887         1         0     18898         1         0
     18909         1         0     18920         1         0     18931         1         0
     18942         1         0     18953         1         0     18964         1         0
     18975         1         0     18986         1         0     18997         1         0
     19008         1         0     19019         1         0     19030         1         0
     19041         1         0     19052         1         0     19063         1         0
     19074         1         0     19085         1         0     19096         1         0
     19107         1         0     19118         1         0     19129         1         0
     19140         1         0     19151         1         0     19162         1         0
     19173         1         0     19184         1         0     19195         1         0
     19206         1         0     19217         1         0     19228         1         0
     19239         1         0     19250         1         0     19261         1         0
     19272         1         0     19283         1         0     19294         1         0
     19305         1         0     19316         1         0     19327         1         0
     19338         1         0     19349         1         0     19360         1         0
     19371         1         0     19382         1         0     19393         1         0
     19404         1         0     19415         1         0     19426         1         0
     19437         1         0     19448         1         0     19459         1         0
     19470         1         0     19481         1         0     19492         1         0
     19503         1         0     19514         1         0     19525         1         0
     19536         1         0     19547         1         0     19558         1         0
     19569         1         0     19580         1         0     19591         1         0
     19602         1         0     19613         1         0     19624         1         0
     19635         1         0     19646         1         0     19657         1         0
     19668         1         0     19679         1         0     19690         1         0
     19701         1         0     19712         1         0     19723         1         0
     19734         1         0     19745         1         0     19756         1         0
     19767         1         0     19778         1         0     19789         1         0
     19800         2         0     19811         2         0     19822         2         0
     19833         2         0     19844         2         0     19855         2         0
     19866         2         0     19868         2         0     19870         2         0
     19872         2         0     19874         2         0     19876         2         0

         1 !MOLNT
         1         1         1         1         1         1         1         1
         1         1         1         1         1         1         1         1
         1         1         1         1         1         1         1         1
         1         1         1         1         1         1         1         1
         1         1         1         1         1         1         1         1
         1         1         1         1         1         1         1         1
         1         1         1         1         1         1         1         1
         1         1         1         1         1         1         1         1
         1         1         1         1         1         1         1         1
         1         1         1         1         1         1         1         1
         1         1         1         1         1         1         1         1
         1         1         1         1         1         1         1         1
         1         1         1         1         1         1         1         1
         1         1         1         1         1         1         1         1
         1         1         1         1         1         1         1         1
         1         1         1         1         1         1         1         1
         1         1         1         1         1         1         1         1
         1         1         1         1         1         1         1         1
         1         1         1         1         1         1         1         1
         1         1         1         1         1         1         1         1
         1         1         1         1         1         1         1         1
         1         1         1         1         1         1         1         1
         1         1         1         1         1         1         1         1
         1         1         1         1         1         1         1         1
         1         1         1         1         1         1         1         1
         1         1         1         1         1         1         1         1
         1         1         1         1         1         1         1         1
         1         1         1         1         1         1         1         1
         1         1         1         1         1         1         1         1
         1         1         1         1         1         1         1         1
         1         1         1         1         1         1         1         1
         1         1         1         1         1         1         1         1
         1         1         1         1         1         1         1         1
         1         1         1         1         1         1         1         1
         1         1         1         1         1         1         1         1
         1         1         1         1         1         1         1         1
         1         1         1         1         1         1         1         1
         1         1         1         1         1         1         1         1
         1         1         1         1         1         1         1         1
         1         1         1         1         1         1         1         1
         1         1         1         1         1         1         1         1
         1         1         1         1         1         1         1         1
         1         1         1         1         1         1         1         1
         1         1         1         1         1         1         1         1
         1         1         1         1         1         1         1         1
         1         1         1         1         1         1         1         1
         1         1         1         1         1         1         1         1
         1         1         1         1         1         1         1         1
         1         1         1         1         1         1         1         1
         1         1         1         1         1         1         1         1
         1         1         1         1         1         1         1         1
         1         1         1         1         1         1         1         1
         1         1         1         1         1         1         1         1
         1         1         1         1         1         1         1         1
         1         1         1         1         1         1         1         1
         1         1         1         1         1         1         1         1
         1         1         1         1         1         1         1         1
         1         1         1         1         1         1         1         1
         1         1         1         1         1         1         1         1
         1         1         1         1         1         1         1         1
         1         1         1         1         1         1         1         1
         1         1         1         1         1         1         1         1
         1         1         1         1         1         1         1         1
         1         1         1         1         1         1         1         1
         1         1         1         1         1         1         1         1
         1         1         1         1         1         1         1         1
         1         1         1         1         1         1         1         1
         1         1         1         1         1         1         1         1
         1         1         1         1         1         1         1         1
         1         1         1         1         1         1         1         1
         1         1         1         1         1         1         1         1
         1         1         1         1         1         1         1         1
         1         1         1         1         1         1         1         1
         1         1         1         1         1         1         1         1
         1         1         1         1         1         1         1         1
         1         1         1         1         1         1         1         1
         1         1         1         1         1         1         1         1
         1         1         1         1         1         1         1         1
         1         1         1         1         1         1         1         1
         1         1         1         1         1         1         1         1
         1         1         1         1         1         1         1         1
         1         1         1         1         1         1         1         1
         1         1         1         1         1         1         1         1
         1         1         1         1         1         1         1         1
         1         1         1         1         1         1         1         1
         1         1         1         1         1         1         1         1
         1         1         1         1         1         1         1         1
         1         1         1         1         1         1         1         1
         1         1         1         1         1         1         1         1
         1         1         1         1         1         1         1         1
         1         1         1         1         1         1         1         1
         1         1         1         1         1         1         1         1
         1         1         1         1         1         1         1         1
         1         1         1         1         1         1         1         1
         1         1         1         1         1         1         1         1
         1         1         1         1         1         1         1         1
         1         1         1         1         1         1         1         1
         1         1         1         1         1         1         1         1
         1         1         1         1         1         1         1         1
         1         1         1         1         1         1         1         1
         1         1         1         1         1         1         1         1
         1         1         1         1         1         1         1         1
         1         1         1         1         1         1         1         1
         1         1         1         1         1         1         1         1
         1         1         1         1         1         1         1         1
         1         1         1         1         1         1         1         1
         1         1         1         1         1         1         1         1
         1         1         1         1         1         1         1         1
         1         1         1         1         1         1         1         1
         1         1         1         1         1         1         1         1
         1         1         1         1         1         1         1         1
         1         1         1         1         1         1         1         1
         1         1         1         1         1         1         1         1
         1         1         1         1         1         1         1         1
         1         1         1         1         1         1         1         1
         1         1         1         1         1         1         1         1
         1         1         1         1         1         1         1         1
         1         1         1         1         1         1         1         1
         1         1         1         1         1         1         1         1
         1         1         1         1         1         1         1         1
         1         1         1         1         1         1         1         1
         1         1         1         1         1         1         1         1
         1         1         1         1         1         1         1         1
         1         1         1         1         1         1         1         1
         1         1         1         1         1         1         1         1
         1         1         1         1         1         1         1         1
         1         1         1         1         1         1         1         1
         1         1         1         1         1         1         1         1
         1         1         1         1         1         1         1         1
         1         1         1         1         1         1         1         1
         1         1         1         1         1         1         1         1
         1         1         1         1         1         1         1         1
         1         1         1         1         1         1         1         1
         1         1         1         1         1         1         1         1
         1         1         1         1         1         1         1         1
         1         1         1         1         1         1         1         1
         1         1         1         1         1         1         1         1
         1         1         1         1         1         1         1         1
         1         1         1         1         1         1         1         1
         1         1         1         1         1         1         1         1
         1         1         1         1         1         1         1         1
         1         1         1         1         1         1         1         1
         1         1         1         1         1         1         1         1
         1         1         1         1         1         1         1         1
         1         1         1         1         1         1         1         1
         1         1         1         1         1         1         1         1
         1         1         1         1         1         1         1         1
         1         1         1         1         1         1         1         1
         1         1         1         1         1         1         1         1
         1         1         1         1         1         1         1         1
         1         1         1         1         1         1         1         1
         1         1         1         1         1         1         1         1
         1         1         1         1         1         1         1         1
         1         1         1         1         1         1         1         1
         1         1         1         1         1         1         1         1
         1         1         1         1         1         1         1         1
         1         1         1         1         1         1         1         1
         1         1         1         1         1         1         1         1
         1         1         1         1         1         1         1         1
         1         1         1         1         1         1         1         1
         1         1         1         1         1         1         1         1
         1         1         1         1         1         1         1         1
         1         1         1         1         1         1         1         1
         1         1         1         1         1         1         1         1
         1         1         1         1         1         1         1         1
         1         1         1         1         1         1         1         1
         1         1         1         1         1         1         1         1
         1         1         1         1         1         1         1         1
         1         1         1         1         1         1         1         1
         1         1         1         1         1         1         1         1
         1         1         1         1         1         1         1         1
         1         1         1         1         1         1         1         1
         1         1         1         1         1         1         1         1
         1         1         1         1         1         1         1         1
         1         1         1         1         1         1         1         1
         1         1         1         1         1         1         1         1
         1         1         1         1         1         1         1         1
         1         1         1         1         1         1         1         1
         1         1         1         1         1         1         1         1
         1         1         1         1         1         1         1         1
         1         1         1         1         1         1         1         1
         1         1         1         1         1         1         1         1
         1         1         1         1         1         1         1         1
         1         1         1         1         1         1         1         1
         1         1         1         1         1         1         1         1
         1         1         1         1         1         1         1         1
         1         1         1         1         1         1         1         1
         1         1         1         1         1         1         1         1
         1         1         1         1         1         1         1         1
         1         1         1         1         1         1         1         1
         1         1         1         1         1         1         1         1
         1         1         1         1         1         1         1         1
         1         1         1         1         1         1         1         1
         1         1         1         1         1         1         1         1
         1         1         1         1         1         1         1         1
         1         1         1         1         1         1         1         1
         1         1         1         1         1         1         1         1
         1         1         1         1         1         1         1         1
         1         1         1         1         1         1         1         1
         1         1         1         1         1         1         1         1
         1         1         1         1         1         1         1         1
         1         1         1         1         1         1         1         1
         1         1         1         1         1         1         1         1
         1         1         1         1         1         1         1         1
         1         1         1         1         1         1         1         1
         1         1         1         1         1         1         1         1
         1         1         1         1         1         1         1         1
         1         1         1         1         1         1         1         1
         1         1         1         1         1         1         1         1
         1         1         1         1         1         1         1         1
         1         1         1         1         1         1         1         1
         1         1         1         1         1         1         1         1
         1         1         1         1         1         1         1         1
         1         1         1         1         1         1         1         1
         1         1         1         1         1         1         1         1
         1         1         1         1         1         1         1         1
         1         1         1         1         1         1         1         1
         1         1         1         1         1         1         1         1
         1         1         1         1         1         1         1         1
         1         1         1         1         1         1         1         1
         1         1         1         1         1         1         1         1
         1         1         1         1         1         1         1         1
         1         1         1         1         1         1         1         1
         1         1         1         1         1         1         1         1
         1         1         1         1         1         1         1         1
         1         1         1         1         1         1         1         1
         1         1         1         1         1         1         1         1
         1         1         1         1         1         1         1         1
         1         1         1         1         1         1         1         1
         1         1         1         1         1         1         1         1
         1         1         1         1         1         1         1         1
         1         1         1         1         1         1         1         1
         1         1         1         1         1         1         1         1
         1         1         1         1         1         1         1         1
         1         1         1         1         1         1         1         1
         1         1         1         1         1         1         1         1
         1         1         1         1         1         1         1         1
         1         1         1         1         1         1         1         1
         1         1         1         1         1         1         1         1
         1         1         1         1         1         1         1         1
         1         1         1         1         1         1         1         1
         1         1         1         1         1         1         1         1
         1         1         1         1         1         1         1         1
         1         1         1         1         1         1         1         1
         1         1         1         1         1         1         1         1
         1         1         1         1         1         1         1         1
         1         1         1         1         1         1         1         1
         1         1         1         1         1         1         1         1
         1         1         1         1         1         1         1         1
         1         1         1         1         1         1         1         1
         1         1         1         1         1         1         1         1
         1         1         1         1         1         1         1         1
         1         1         1         1         1         1         1         1
         1         1         1         1         1         1         1         1
         1         1         1         1         1         1         1         1
         1         1         1         1         1         1         1         1
         1         1         1         1         1         1         1         1
         1         1         1         1         1         1         1         1
         1         1         1         1         1         1         1         1
         1         1         1         1         1         1         1         1
         1         1         1         1         1         1         1         1
         1         1         1         1         1         1         1         1
         1         1         1         1         1         1         1         1
         1         1         1         1         1         1         1         1
         1         1         1         1         1         1         1         1
         1         1         1         1         1         1         1         1
         1         1         1         1         1         1         1         1
         1         1         1         1         1         1         1         1
         1         1         1         1         1         1         1         1
         1         1         1         1         1         1         1         1
         1         1         1         1         1         1         1         1
         1         1         1         1         1         1         1         1
         1         1         1         1         1         1         1         1
         1         1         1         1         1         1         1         1
         1         1         1         1         1         1         1         1
         1         1         1         1         1         1         1         1
         1         1         1         1         1         1         1         1
         1         1         1         1         1         1         1         1
         1         1         1         1         1         1         1         1
         1         1         1         1         1         1         1         1
         1         1         1         1         1         1         1         1
         1         1         1         1         1         1         1         1
         1         1         1         1         1         1         1         1
         1         1         1         1         1         1         1         1
         1         1         1         1         1         1         1         1
         1         1         1         1         1         1         1         1
         1         1         1         1         1         1         1         1
         1         1         1         1         1         1         1         1
         1         1         1         1         1         1         1         1
         1         1         1         1         1         1         1         1
         1         1         1         1         1         1         1         1
         1         1         1         1         1         1         1         1
         1         1         1         1         1         1         1         1
         1         1         1         1         1         1         1         1
         1         1         1         1         1         1         1         1
         1         1         1         1         1         1         1         1
         1         1         1         1         1         1         1         1
         1         1         1         1         1         1         1         1
         1         1         1         1         1         1         1         1
         1         1         1         1         1         1         1         1
         1         1         1         1         1         1         1         1
         1         1         1         1         1         1         1         1
         1         1         1         1         1         1         1         1
         1         1         1         1         1         1         1         1
         1         1         1         1         1         1         1         1
         1         1         1         1         1         1         1         1
         1         1         1         1         1         1         1         1
         1         1         1         1         1         1         1         1
         1         1         1         1         1         1         1         1
         1         1         1         1         1         1         1         1
         1         1         1         1         1         1         1         1
         1         1         1         1         1         1         1         1
         1         1         1         1         1         1         1         1
         1         1         1         1         1         1         1         1
         1         1         1         1         1         1         1         1
         1         1         1         1         1         1         1         1
         1         1         1         1         1         1         1         1
         1         1         1         1         1         1         1         1
         1         1         1         1         1         1         1         1
         1         1         1         1         1         1         1         1
         1         1         1         1         1         1         1         1
         1         1         1         1         1         1         1         1
         1         1         1         1         1         1         1         1
         1         1         1         1         1         1         1         1
         1         1         1         1         1         1         1         1
         1         1         1         1         1         1         1         1
         1         1         1         1         1         1         1         1
         1         1         1         1         1         1         1         1
         1         1         1         1         1         1         1         1
         1         1         1         1         1         1         1         1
         1         1         1         1         1         1         1         1
         1         1         1         1         1         1         1         1
         1         1         1         1         1         1         1         1
         1         1         1         1         1         1         1         1
         1         1         1         1         1         1         1         1
         1         1         1         1         1         1         1         1
         1         1         1         1         1         1         1         1
         1         1         1         1         1         1         1         1
         1         1         1         1         1         1         1         1
         1         1         1         1         1         1         1         1
         1         1         1         1         1         1         1         1
         1         1         1         1         1         1         1         1
         1         1         1         1         1         1         1         1
         1         1         1         1         1         1         1         1
         1         1         1         1         1         1         1         1
         1         1         1         1         1         1         1         1
         1         1         1         1         1         1         1         1
         1         1         1         1         1         1         1         1
         1         1         1         1         1         1         1         1
         1         1         1         1         1         1         1         1
         1         1         1         1         1         1         1         1
         1         1         1         1         1         1         1         1
         1         1         1         1         1         1         1         1
         1         1         1         1         1         1         1         1
         1         1         1         1         1         1         1         1
         1         1         1         1         1         1         1         1
         1         1         1         1         1         1         1         1
         1         1         1         1         1         1         1         1
         1         1         1         1         1         1         1         1
         1         1         1         1         1         1         1         1
         1         1         1         1         1         1         1         1
         1         1         1         1         1         1         1         1
         1         1         1         1         1         1         1         1
         1         1         1         1         1         1         1         1
         1         1         1         1         1         1         1         1
         1         1         1         1         1         1         1         1
         1         1         1         1         1         1         1         1
         1         1         1         1         1         1         1         1
         1         1         1         1         1         1         1         1
         1         1         1         1         1         1         1         1
         1         1         1         1         1         1         1         1
         1         1         1         1         1         1         1         1
         1         1         1         1         1         1         1         1
         1         1         1         1         1         1         1         1
         1         1         1         1         1         1         1         1
         1         1         1         1         1         1         1         1
         1         1         1         1         1         1         1         1
         1         1         1         1         1         1         1         1
         1         1         1         1         1         1         1         1
         1         1         1         1         1         1         1         1
         1         1         1         1         1         1         1         1
         1         1         1         1         1         1         1         1
         1         1         1         1         1         1         1         1
         1         1         1         1         1         1         1         1
         1         1         1         1         1         1         1         1
         1         1         1         1         1         1         1         1
         1         1         1         1         1         1         1         1
         1         1         1         1         1         1         1         1
         1         1         1         1         1         1         1         1
         1         1         1         1         1         1         1         1
         1         1         1         1         1         1         1         1
         1         1         1         1         1         1         1         1
         1         1         1         1         1         1         1         1
         1         1         1         1         1         1         1         1
         1         1         1         1         1         1         1         1
         1         1         1         1         1         1         1         1
         1         1         1         1         1         1         1         1
         1         1         1         1         1         1         1         1
         1         1         1         1         1         1         1         1
         1         1         1         1         1         1         1         1
         1         1         1         1         1         1         1         1
         1         1         1         1         1         1         1         1
         1         1         1         1         1         1         1         1
         1         1         1         1         1         1         1         1
         1         1         1         1         1         1         1         1
         1         1         1         1         1         1         1         1
         1         1         1         1         1         1         1         1
         1         1         1         1         1         1         1         1
         1         1         1         1         1         1         1         1
         1         1         1         1         1         1         1         1
         1         1         1         1         1         1         1         1
         1         1         1         1         1         1         1         1
         1         1         1         1         1         1         1         1
         1         1         1         1         1         1         1         1
         1         1         1         1         1         1         1         1
         1         1         1         1         1         1         1         1
         1         1         1         1         1         1         1         1
         1         1         1         1         1         1         1         1
         1         1         1         1         1         1         1         1
         1         1         1         1         1         1         1         1
         1         1         1         1         1         1         1         1
         1         1         1         1         1         1         1         1
         1         1         1         1         1         1         1         1
         1         1         1         1         1         1         1         1
         1         1         1         1         1         1         1         1
         1         1         1         1         1         1         1         1
         1         1         1         1         1         1         1         1
         1         1         1         1         1         1         1         1
         1         1         1         1         1         1         1         1
         1         1         1         1         1         1         1         1
         1         1         1         1         1         1         1         1
         1         1         1         1         1         1         1         1
         1         1         1         1         1         1         1         1
         1         1         1         1         1         1         1         1
         1         1         1         1         1         1         1         1
         1         1         1         1         1         1         1         1
         1         1         1         1         1         1         1         1
         1         1         1         1         1         1         1         1
         1         1         1         1         1         1         1         1
         1         1         1         1         1         1         1         1
         1         1         1         1         1         1         1         1
         1         1         1         1         1         1         1         1
         1         1         1         1         1         1         1         1
         1         1         1         1         1         1         1         1
         1         1         1         1         1         1         1         1
         1         1         1         1         1         1         1         1
         1         1         1         1         1         1         1         1
         1         1         1         1         1         1         1         1
         1         1         1         1         1         1         1         1
         1         1         1         1         1         1         1         1
         1         1         1         1         1         1         1         1
         1         1         1         1         1         1         1         1
         1         1         1         1         1         1         1         1
         1         1         1         1         1         1         1         1
         1         1         1         1         1         1         1         1
         1         1         1         1         1         1         1         1
         1         1         1         1         1         1         1         1
         1         1         1         1         1         1         1         1
         1         1         1         1         1         1         1         1
         1         1         1         1         1         1         1         1
         1         1         1         1         1         1         1         1
         1         1         1         1         1         1         1         1
         1         1         1         1         1         1         1         1
         1         1         1         1         1         1         1         1
         1         1         1         1         1         1         1         1
         1         1         1         1         1         1         1         1
         1         1         1         1         1         1         1         1
         1         1         1         1         1         1         1         1
         1         1         1         1         1         1         1         1
         1         1         1         1         1         1         1         1
         1         1         1         1         1         1         1         1
         1         1         1         1         1         1         1         1
         1         1         1         1         1         1         1         1
         1         1         1         1         1         1         1         1
         1         1         1         1         1         1         1         1
         1         1         1         1         1         1         1         1
         1         1         1         1         1         1         1         1
         1         1         1         1         1         1         1         1
         1         1         1         1         1         1         1         1
         1         1         1         1         1         1         1         1
         1         1         1         1         1         1         1         1
         1         1         1         1         1         1         1         1
         1         1         1         1         1         1         1         1
         1         1         1         1         1         1         1         1
         1         1         1         1         1         1         1         1
         1         1         1         1         1         1         1         1
         1         1         1         1         1         1         1         1
         1         1         1         1         1         1         1         1
         1         1         1         1         1         1         1         1
         1         1         1         1         1         1         1         1
         1         1         1         1         1         1         1         1
         1         1         1         1         1         1         1         1
         1         1         1         1         1         1         1         1
         1         1         1         1         1         1         1         1
         1         1         1         1         1         1         1         1
         1         1         1         1         1         1         1         1
         1         1         1         1         1         1         1         1
         1         1         1         1         1         1         1         1
         1         1         1         1         1         1         1         1
         1         1         1         1         1         1         1         1
         1         1         1         1         1         1         1         1
         1         1         1         1         1         1         1         1
         1         1         1         1         1         1         1         1
         1         1         1         1         1         1         1         1
         1         1         1         1         1         1         1         1
         1         1         1         1         1         1         1         1
         1         1         1         1         1         1         1         1
         1         1         1         1         1         1         1         1
         1         1         1         1         1         1         1         1
         1         1         1         1         1         1         1         1
         1         1         1         1         1         1         1         1
         1         1         1         1         1         1         1         1
         1         1         1         1         1         1         1         1
         1         1         1         1         1         1         1         1
         1         1         1         1         1         1         1         1
         1         1         1         1         1         1         1         1
         1         1         1         1         1         1         1         1
         1         1         1         1         1         1         1         1
         1         1         1         1         1         1         1         1
         1         1         1         1         1         1         1         1
         1         1         1         1         1         1         1         1
         1         1         1         1         1         1         1         1
         1         1         1         1         1         1         1         1
         1         1         1         1         1         1         1         1
         1         1         1         1         1         1         1         1
         1         1         1         1         1         1         1         1
         1         1         1         1         1         1         1         1
         1         1         1         1         1         1         1         1
         1         1         1         1         1         1         1         1
         1         1         1         1         1         1         1         1
         1         1         1         1         1         1         1         1
         1         1         1         1         1         1         1         1
         1         1         1         1         1         1         1         1
         1         1         1         1         1         1         1         1
         1         1         1         1         1         1         1         1
         1         1         1         1         1         1         1         1
         1         1         1         1         1         1         1         1
         1         1         1         1         1         1         1         1
         1         1         1         1         1         1         1         1
         1         1         1         1         1         1         1         1
         1         1         1         1         1         1         1         1
         1         1         1         1         1         1         1         1
         1         1         1         1         1         1         1         1
         1         1         1         1         1         1         1         1
         1         1         1         1         1         1         1         1
         1         1         1         1         1         1         1         1
         1         1         1         1         1         1         1         1
         1         1         1         1         1         1         1         1
         1         1         1         1         1         1         1         1
         1         1         1         1         1         1         1         1
         1         1         1         1         1         1         1         1
         1         1         1         1         1         1         1         1
         1         1         1         1         1         1         1         1
         1         1         1         1         1         1         1         1
         1         1         1         1         1         1         1         1
         1         1         1         1         1         1         1         1
         1         1         1         1         1         1         1         1
         1         1         1         1         1         1         1         1
         1         1         1         1         1         1         1         1
         1         1         1         1         1         1         1         1
         1         1         1         1         1         1         1         1
         1         1         1         1         1         1         1         1
         1         1         1         1         1         1         1         1
         1         1         1         1         1         1         1         1
         1         1         1         1         1         1         1         1
         1         1         1         1         1         1         1         1
         1         1         1         1         1         1         1         1
         1         1         1         1         1         1         1         1
         1         1         1         1         1         1         1         1
         1         1         1         1         1         1         1         1
         1         1         1         1         1         1         1         1
         1         1         1         1         1         1         1         1
         1         1         1         1         1         1         1         1
         1         1         1         1         1         1         1         1
         1         1         1         1         1         1         1         1
         1         1         1         1         1         1         1         1
         1         1         1         1         1         1         1         1
         1         1         1         1         1         1         1         1
         1         1         1         1         1         1         1         1
         1         1         1         1         1         1         1         1
         1         1         1         1         1         1         1         1
         1         1         1         1         1         1         1         1
         1         1         1         1         1         1         1         1
         1         1         1         1         1         1         1         1
         1         1         1         1         1         1         1         1
         1         1         1         1         1         1         1         1
         1         1         1         1         1         1         1         1
         1         1         1         1         1         1         1         1
         1         1         1         1         1         1         1         1
         1         1         1         1         1         1         1         1
         1         1         1         1         1         1         1         1
         1         1         1         1         1         1         1         1
         1         1         1         1         1         1         1         1
         1         1         1         1         1         1         1         1
         1         1         1         1         1         1         1         1
         1         1         1         1         1         1         1         1
         1         1         1         1         1         1         1         1
         1         1         1         1         1         1         1         1
         1         1         1         1         1         1         1         1
         1         1         1         1         1         1         1         1
         1         1         1         1         1         1         1         1
         1         1         1         1         1         1         1         1
         1         1         1         1         1         1         1         1
         1         1         1         1         1         1         1         1
         1         1         1         1         1         1         1         1
         1         1         1         1         1         1         1         1
         1         1         1         1         1         1         1         1
         1         1         1         1         1         1         1         1
         1         1         1         1         1         1         1         1
         1         1         1         1         1         1         1         1
         1         1         1         1         1         1         1         1
         1         1         1         1         1         1         1         1
         1         1         1         1         1         1         1         1
         1         1         1         1         1         1         1         1
         1         1         1         1         1         1         1         1
         1         1         1         1         1         1         1         1
         1         1         1         1         1         1         1         1
         1         1         1         1         1         1         1         1
         1         1         1         1         1         1         1         1
         1         1         1         1         1         1         1         1
         1         1         1         1         1         1         1         1
         1         1         1         1         1         1         1         1
         1         1         1         1         1         1         1         1
         1         1         1         1         1         1         1         1
         1         1         1         1         1         1         1         1
         1         1         1         1         1         1         1         1
         1         1         1         1         1         1         1         1
         1         1         1         1         1         1         1         1
         1         1         1         1         1         1         1         1
         1         1         1         1         1         1         1         1
         1         1         1         1         1         1         1         1
         1         1         1         1         1         1         1         1
         1         1         1         1         1         1         1         1
         1         1         1         1         1         1         1         1
         1         1         1         1         1         1         1         1
         1         1         1         1         1         1         1         1
         1         1         1         1         1         1         1         1
         1         1         1         1         1         1         1         1
         1         1         1         1         1         1         1         1
         1         1         1         1         1         1         1         1
         1         1         1         1         1         1         1         1
         1         1         1         1         1         1         1         1
         1         1         1         1         1         1         1         1
         1         1         1         1         1         1         1         1
         1         1         1         1         1         1         1         1
         1         1         1         1         1         1         1         1
         1         1         1         1         1         1         1         1
         1         1         1         1         1         1         1         1
         1         1         1         1         1         1         1         1
         1         1         1         1         1         1         1         1
         1         1         1         1         1         1         1         1
         1         1         1         1         1         1         1         1
         1         1         1         1         1         1         1         1
         1         1         1         1         1         1         1         1
         1         1         1         1         1         1         1         1
         1         1         1         1         1         1         1         1
         1         1         1         1         1         1         1         1
         1         1         1         1         1         1         1         1
         1         1         1         1         1         1         1         1
         1         1         1         1         1         1         1         1
         1         1         1         1         1         1         1         1
         1         1         1         1         1         1         1         1
         1         1         1         1         1         1         1         1
         1         1         1         1         1         1         1         1
         1         1         1         1         1         1         1         1
         1         1         1         1         1         1         1         1
         1         1         1         1         1         1         1         1
         1         1         1         1         1         1         1         1
         1         1         1         1         1         1         1         1
         1         1         1         1         1         1         1         1
         1         1         1         1         1         1         1         1
         1         1         1         1         1         1         1         1
         1         1         1         1         1         1         1         1
         1         1         1         1         1         1         1         1
         1         1         1         1         1         1         1         1
         1         1         1         1         1         1         1         1
         1         1         1         1         1         1         1         1
         1         1         1         1         1         1         1         1
         1         1         1         1         1         1         1         1
         1         1         1         1         1         1         1         1
         1         1         1         1         1         1         1         1
         1         1         1         1         1         1         1         1
         1         1         1         1         1         1         1         1
         1         1         1         1         1         1         1         1
         1         1         1         1         1         1         1         1
         1         1         1         1         1         1         1         1
         1         1         1         1         1         1         1         1
         1         1         1         1         1         1         1         1
         1         1         1         1         1         1         1         1
         1         1         1         1         1         1         1         1
         1         1         1         1         1         1         1         1
         1         1         1         1         1         1         1         1
         1         1         1         1         1         1         1         1
         1         1         1         1         1         1         1         1
         1         1         1         1         1         1         1         1
         1         1         1         1         1         1         1         1
         1         1         1         1         1         1         1         1
         1         1         1         1         1         1         1         1
         1         1         1         1         1         1         1         1
         1         1         1         1         1         1         1         1
         1         1         1         1         1         1         1         1
         1         1         1         1         1         1         1         1
         1         1         1         1         1         1         1         1
         1         1         1         1         1         1         1         1
         1         1         1         1         1         1         1         1
         1         1         1         1         1         1         1         1
         1         1         1         1         1         1         1         1
         1         1         1         1         1         1         1         1
         1         1         1         1         1         1         1         1
         1         1         1         1         1         1         1         1
         1         1         1         1         1         1         1         1
         1         1         1         1         1         1         1         1
         1         1         1         1         1         1         1         1
         1         1         1         1         1         1         1         1
         1         1         1         1         1         1         1         1
         1         1         1         1         1         1         1         1
         1         1         1         1         1         1         1         1
         1         1         1         1         1         1         1         1
         1         1         1         1         1         1         1         1
         1         1         1         1         1         1         1         1
         1         1         1         1         1         1         1         1
         1         1         1         1         1         1         1         1
         1         1         1         1         1         1         1         1
         1         1         1         1         1         1         1         1
         1         1         1         1         1         1         1         1
         1         1         1         1         1         1         1         1
         1         1         1         1         1         1         1         1
         1         1         1         1         1         1         1         1
         1         1         1         1         1         1         1         1
         1         1         1         1         1         1         1         1
         1         1         1         1         1         1         1         1
         1         1         1         1         1         1         1         1
         1         1         1         1         1         1         1         1
         1         1         1         1         1         1         1         1
         1         1         1         1         1         1         1         1
         1         1         1         1         1         1         1         1
         1         1         1         1         1         1         1         1
         1         1         1         1         1         1         1         1
         1         1         1         1         1         1         1         1
         1         1         1         1         1         1         1         1
         1         1         1         1         1         1         1         1
         1         1         1         1         1         1         1         1
         1         1         1         1         1         1         1         1
         1         1         1         1         1         1         1         1
         1         1         1         1         1         1         1         1
         1         1         1         1         1         1         1         1
         1         1         1         1         1         1         1         1
         1         1         1         1         1         1         1         1
         1         1         1         1         1         1         1         1
         1         1         1         1         1         1         1         1
         1         1         1         1         1         1         1         1
         1         1         1         1         1         1         1         1
         1         1         1         1         1         1         1         1
         1         1         1         1         1         1         1         1
         1         1         1         1         1         1         1         1
         1         1         1         1         1         1         1         1
         1         1         1         1         1         1         1         1
         1         1         1         1         1         1         1         1
         1         1         1         1         1         1         1         1
         1         1         1         1         1         1         1         1
         1         1         1         1         1         1         1         1
         1         1         1         1         1         1         1         1
         1         1         1         1         1         1         1         1
         1         1         1         1         1         1         1         1
         1         1         1         1         1         1         1         1
         1         1         1         1         1         1         1         1
         1         1         1         1         1         1         1         1
         1         1         1         1         1         1         1         1
         1         1         1         1         1         1         1         1
         1         1         1         1         1         1         1         1
         1         1         1         1         1         1         1         1
         1         1         1         1         1         1         1         1
         1         1         1         1         1         1         1         1
         1         1         1         1         1         1         1         1
         1         1         1         1         1         1         1         1
         1         1         1         1         1         1         1         1
         1         1         1         1         1         1         1         1
         1         1         1         1         1         1         1         1
         1         1         1         1         1         1         1         1
         1         1         1         1         1         1         1         1
         1         1         1         1         1         1         1         1
         1         1         1         1         1         1         1         1
         1         1         1         1         1         1         1         1
         1         1         1         1         1         1         1         1
         1         1         1         1         1         1         1         1
         1         1         1         1         1         1         1         1
         1         1         1         1         1         1         1         1
         1         1         1         1         1         1         1         1
         1         1         1         1         1         1         1         1
         1         1         1         1         1         1         1         1
         1         1         1         1         1         1         1         1
         1         1         1         1         1         1         1         1
         1         1         1         1         1         1         1         1
         1         1         1         1         1         1         1         1
         1         1         1         1         1         1         1         1
         1         1         1         1         1         1         1         1
         1         1         1         1         1         1         1         1
         1         1         1         1         1         1         1         1
         1         1         1         1         1         1         1         1
         1         1         1         1         1         1         1         1
         1         1         1         1         1         1         1         1
         1         1         1         1         1         1         1         1
         1         1         1         1         1         1         1         1
         1         1         1         1         1         1         1         1
         1         1         1         1         1         1         1         1
         1         1         1         1         1         1         1         1
         1         1         1         1         1         1         1         1
         1         1         1         1         1         1         1         1
         1         1         1         1         1         1         1         1
         1         1         1         1         1         1         1         1
         1         1         1         1         1         1         1         1
         1         1         1         1         1         1         1         1
         1         1         1         1         1         1         1         1
         1         1         1         1         1         1         1         1
         1         1         1         1         1         1         1         1
         1         1         1         1         1         1         1         1
         1         1         1         1         1         1         1         1
         1         1         1         1         1         1         1         1
         1         1         1         1         1         1         1         1
         1         1         1         1         1         1         1         1
         1         1         1         1         1         1         1         1
         1         1         1         1         1         1         1         1
         1         1         1         1         1         1         1         1
         1         1         1         1         1         1         1         1
         1         1         1         1         1         1         1         1
         1         1         1         1         1         1         1         1
         1         1         1         1         1         1         1         1
         1         1         1         1         1         1         1         1
         1         1         1         1         1         1         1         1
         1         1         1         1         1         1         1         1
         1         1         1         1         1         1         1         1
         1         1         1         1         1         1         1         1
         1         1         1         1         1         1         1         1
         1         1         1         1         1         1         1         1
         1         1         1         1         1         1         1         1
         1         1         1         1         1         1         1         1
         1         1         1         1         1         1         1         1
         1         1         1         1         1         1         1         1
         1         1         1         1         1         1         1         1
         1         1         1         1         1         1         1         1
         1         1         1         1         1         1         1         1
         1         1         1         1         1         1         1         1
         1         1         1         1         1         1         1         1
         1         1         1         1         1         1         1         1
         1         1         1         1         1         1         1         1
         1         1         1         1         1         1         1         1
         1         1         1         1         1         1         1         1
         1         1         1         1         1         1         1         1
         1         1         1         1         1         1         1         1
         1         1         1         1         1         1         1         1
         1         1         1         1         1         1         1         1
         1         1         1         1         1         1         1         1
         1         1         1         1         1         1         1         1
         1         1         1         1         1         1         1         1
         1         1         1         1         1         1         1         1
         1         1         1         1         1         1         1         1
         1         1         1         1         1         1         1         1
         1         1         1         1         1         1         1         1
         1         1         1         1         1         1         1         1
         1         1         1         1         1         1         1         1
         1         1         1         1         1         1         1         1
         1         1         1         1         1         1         1         1
         1         1         1         1         1         1         1         1
         1         1         1         1         1         1         1         1
         1         1         1         1         1         1         1         1
         1         1         1         1         1         1         1         1
         1         1         1         1         1         1         1         1
         1         1         1         1         1         1         1         1
         1         1         1         1         1         1         1         1
         1         1         1         1         1         1         1         1
         1         1         1         1         1         1         1         1
         1         1         1         1         1         1         1         1
         1         1         1         1         1         1         1         1
         1         1         1         1         1         1         1         1
         1         1         1         1         1         1         1         1
         1         1         1         1         1         1         1         1
         1         1         1         1         1         1         1         1
         1         1         1         1         1         1         1         1
         1         1         1         1         1         1         1         1
         1         1         1         1         1         1         1         1
         1         1         1         1         1         1         1         1
         1         1         1         1         1         1         1         1
         1         1         1         1         1         1         1         1
         1         1         1         1         1         1         1         1
         1         1         1         1         1         1         1         1
         1         1         1         1         1         1         1         1
         1         1         1         1         1         1         1         1
         1         1         1         1         1         1         1         1
         1         1         1         1         1         1         1         1
         1         1         1         1         1         1         1         1
         1         1         1         1         1         1         1         1
         1         1         1         1         1         1         1         1
         1         1         1         1         1         1         1         1
         1         1         1         1         1         1         1         1
         1         1         1         1         1         1         1         1
         1         1         1         1         1         1         1         1
         1         1         1         1         1         1         1         1
         1         1         1         1         1         1         1         1
         1         1         1         1         1         1         1         1
         1         1         1         1         1         1         1         1
         1         1         1         1         1         1         1         1
         1         1         1         1         1         1         1         1
         1         1         1         1         1         1         1         1
         1         1         1         1         1         1         1         1
         1         1         1         1         1         1         1         1
         1         1         1         1         1         1         1         1
         1         1         1         1         1         1         1         1
         1         1         1         1         1         1         1         1
         1         1         1         1         1         1         1         1
         1         1         1         1         1         1         1         1
         1         1         1         1         1         1         1         1
         1         1         1         1         1         1         1         1
         1         1         1         1         1         1         1         1
         1         1         1         1         1         1         1         1
         1         1         1         1         1         1         1         1
         1         1         1         1         1         1         1         1
         1         1         1         1         1         1         1         1
         1         1         1         1         1         1         1         1
         1         1         1         1         1         1         1         1
         1         1         1         1         1         1         1         1
         1         1         1         1         1         1         1         1
         1         1         1         1         1         1         1         1
         1         1         1         1         1         1         1         1
         1         1         1         1         1         1         1         1
         1         1         1         1         1         1         1         1
         1         1         1         1         1         1         1         1
         1         1         1         1         1         1         1         1
         1         1         1         1         1         1         1         1
         1         1         1         1         1         1         1         1
         1         1         1         1         1         1         1         1
         1         1         1         1         1         1         1         1
         1         1         1         1         1         1         1         1
         1         1         1         1         1         1         1         1
         1         1         1         1         1         1         1         1
         1         1         1         1         1         1         1         1
         1         1         1         1         1         1         1         1
         1         1         1         1         1         1         1         1
         1         1         1         1         1         1         1         1
         1         1         1         1         1         1         1         1
         1         1         1         1         1         1         1         1
         1         1         1         1         1         1         1         1
         1         1         1         1         1         1         1         1
         1         1         1         1         1         1         1         1
         1         1         1         1         1         1         1         1
         1         1         1         1         1         1         1         1
         1         1         1         1         1         1         1         1
         1         1         1         1         1         1         1         1
         1         1         1         1         1         1         1         1
         1         1         1         1         1         1         1         1
         1         1         1         1         1         1         1         1
         1         1         1         1         1         1         1         1
         1         1         1         1         1         1         1         1
         1         1         1         1         1         1         1         1
         1         1         1         1         1         1         1         1
         1         1         1         1         1         1         1         1
         1         1         1         1         1         1         1         1
         1         1         1         1         1         1         1         1
         1         1         1         1         1         1         1         1
         1         1         1         1         1         1         1         1
         1         1         1         1         1         1         1         1
         1         1         1         1         1         1         1         1
         1         1         1         1         1         1         1         1
         1         1         1         1         1         1         1         1
         1         1         1         1         1         1         1         1
         1         1         1         1         1         1         1         1
         1         1         1         1         1         1         1         1
         1         1         1         1         1         1         1         1
         1         1         1         1         1         1         1         1
         1         1         1         1         1         1         1         1
         1         1         1         1         1         1         1         1
         1         1         1         1         1         1         1         1
         1         1         1         1         1         1         1         1
         1         1         1         1         1         1         1         1
         1         1         1         1         1         1         1         1
         1         1         1         1         1         1         1         1
         1         1         1         1         1         1         1         1
         1         1         1         1         1         1         1         1
         1         1         1         1         1         1         1         1
         1         1         1         1         1         1         1         1
         1         1         1         1         1         1         1         1
         1         1         1         1         1         1         1         1
         1         1         1         1         1         1         1         1
         1         1         1         1         1         1         1         1
         1         1         1         1         1         1         1         1
         1         1         1         1         1         1         1         1
         1         1         1         1         1         1         1         1
         1         1         1         1         1         1         1         1
         1         1         1         1         1         1         1         1
         1         1         1         1         1         1         1         1
         1         1         1         1         1         1         1         1
         1         1         1         1         1         1         1         1
         1         1         1         1         1         1         1         1
         1         1         1         1         1         1         1         1
         1         1         1         1         1         1         1         1
         1         1         1         1         1         1         1         1
         1         1         1         1         1         1         1         1
         1         1         1         1         1         1         1         1
         1         1         1         1         1         1         1         1
         1         1         1         1         1         1         1         1
         1         1         1         1         1         1         1         1
         1         1         1         1         1         1         1         1
         1         1         1         1         1         1         1         1
         1         1         1         1         1         1         1         1
         1         1         1         1         1         1         1         1
         1         1         1         1         1         1         1         1
         1         1         1         1         1         1         1         1
         1         1         1         1         1         1         1         1
         1         1         1         1         1         1         1         1
         1         1         1         1         1         1         1         1
         1         1         1         1         1         1         1         1
         1         1         1         1         1         1         1         1
         1         1         1         1         1         1         1         1
         1         1         1         1         1         1         1         1
         1         1         1         1         1         1         1         1
         1         1         1         1         1         1         1         1
         1         1         1         1         1         1         1         1
         1         1         1         1         1         1         1         1
         1         1         1         1         1         1         1         1
         1         1         1         1         1         1         1         1
         1         1         1         1         1         1         1         1
         1         1         1         1         1         1         1         1
         1         1         1         1         1         1         1         1
         1         1         1         1         1         1         1         1
         1         1         1         1         1         1         1         1
         1         1         1         1         1         1         1         1
         1         1         1         1         1         1         1         1
         1         1         1         1         1         1         1         1
         1         1         1         1         1         1         1         1
         1         1         1         1         1         1         1         1
         1         1         1         1         1         1         1         1
         1         1         1         1         1         1         1         1
         1         1         1         1         1         1         1         1
         1         1         1         1         1         1         1         1
         1         1         1         1         1         1         1         1
         1         1         1         1         1         1         1         1
         1         1         1         1         1         1         1         1
         1         1         1         1         1         1         1         1
         1         1         1         1         1         1         1         1
         1         1         1         1         1         1         1         1
         1         1         1         1         1         1         1         1
         1         1         1         1         1         1         1         1
         1         1         1         1         1         1         1         1
         1         1         1         1         1         1         1         1
         1         1         1         1         1         1         1         1
         1         1         1         1         1         1         1         1
         1         1         1         1         1         1         1         1
         1         1         1         1         1         1         1         1
         1         1         1         1         1         1         1         1
         1         1         1         1         1         1         1         1
         1         1         1         1         1         1         1         1
         1         1         1         1         1         1         1         1
         1         1         1         1         1         1         1         1
         1         1         1         1         1         1         1         1
         1         1         1         1         1         1         1         1
         1         1         1         1         1         1         1         1
         1         1         1         1         1         1         1         1
         1         1         1         1         1         1         1         1
         1         1         1         1         1         1         1         1
         1         1         1         1         1         1         1         1
         1         1         1         1         1         1         1         1
         1         1         1         1         1         1         1         1
         1         1         1         1         1         1         1         1
         1         1         1         1         1         1         1         1
         1         1         1         1         1         1         1         1
         1         1         1         1         1         1         1         1
         1         1         1         1         1         1         1         1
         1         1         1         1         1         1         1         1
         1         1         1         1         1         1         1         1
         1         1         1         1         1         1         1         1
         1         1         1         1         1         1         1         1
         1         1         1         1         1         1         1         1
         1         1         1         1         1         1         1         1
         1         1         1         1         1         1         1         1
         1         1         1         1         1         1         1         1
         1         1         1         1         1         1         1         1
         1         1         1         1         1         1         1         1
         1         1         1         1         1         1         1         1
         1         1         1         1         1         1         1         1
         1         1         1         1         1         1         1         1
         1         1         1         1         1         1         1         1
         1         1         1         1         1         1         1         1
         1         1         1         1         1         1         1         1
         1         1         1         1         1         1         1         1
         1         1         1         1         1         1         1         1
         1         1         1         1         1         1         1         1
         1         1         1         1         1         1         1         1
         1         1         1         1         1         1         1         1
         1         1         1         1         1         1         1         1
         1         1         1         1         1         1         1         1
         1         1         1         1         1         1         1         1
         1         1         1         1         1         1         1         1
         1         1         1         1         1         1         1         1
         1         1         1         1         1         1         1         1
         1         1         1         1         1         1         1         1
         1         1         1         1         1         1         1         1
         1         1         1         1         1         1         1         1
         1         1         1         1         1         1         1         1
         1         1         1         1         1         1         1         1
         1         1         1         1         1         1         1         1
         1         1         1         1         1         1         1         1
         1         1         1         1         1         1         1         1
         1         1         1         1         1         1         1         1
         1         1         1         1         1         1         1         1
         1         1         1         1         1         1         1         1
         1         1         1         1         1         1         1         1
         1         1         1         1         1         1         1         1
         1         1         1         1         1         1         1         1
         1         1         1         1         1         1         1         1
         1         1         1         1         1         1         1         1
         1         1         1         1         1         1         1         1
         1         1         1         1         1         1         1         1
         1         1         1         1         1         1         1         1
         1         1         1         1         1         1         1         1
         1         1         1         1         1         1         1         1
         1         1         1         1         1         1         1         1
         1         1         1         1         1         1         1         1
         1         1         1         1         1         1         1         1
         1         1         1         1         1         1         1         1
         1         1         1         1         1         1         1         1
         1         1         1         1         1         1         1         1
         1         1         1         1         1         1         1         1
         1         1         1         1         1         1         1         1
         1         1         1         1         1         1         1         1
         1         1         1         1         1         1         1         1
         1         1         1         1         1         1         1         1
         1         1         1         1         1         1         1         1
         1         1         1         1         1         1         1         1
         1         1         1         1         1         1         1         1
         1         1         1         1         1         1         1         1
         1         1         1         1         1         1         1         1
         1         1         1         1         1         1         1         1
         1         1         1         1         1         1         1         1
         1         1         1         1         1         1         1         1
         1         1         1         1         1         1         1         1
         1         1         1         1         1         1         1         1
         1         1         1         1         1         1         1         1
         1         1         1         1         1         1         1         1
         1         1         1         1         1         1         1         1
         1         1         1         1         1         1         1         1
         1         1         1         1         1         1         1         1
         1         1         1         1         1         1         1         1
         1         1         1         1         1         1         1         1
         1         1         1         1         1         1         1         1
         1         1         1         1         1         1         1         1
         1         1         1         1         1         1         1         1
         1         1         1         1         1         1         1         1
         1         1         1         1         1         1         1         1
         1         1         1         1         1         1         1         1
         1         1         1         1         1         1         1         1
         1         1         1         1         1         1         1         1
         1         1         1         1         1         1         1         1
         1         1         1         1         1         1         1         1
         1         1         1         1         1         1         1         1
         1         1         1         1         1         1         1         1
         1         1         1         1         1         1         1         1
         1         1         1         1         1         1         1         1
         1         1         1         1         1         1         1         1
         1         1         1         1         1         1         1         1
         1         1         1         1         1         1         1         1
         1         1         1         1         1         1         1         1
         1         1         1         1         1         1         1         1
         1         1         1         1         1         1         1         1
         1         1         1         1         1         1         1         1
         1         1         1         1         1         1         1         1
         1         1         1         1         1         1         1         1
         1         1         1         1         1         1         1         1
         1         1         1         1         1         1         1         1
         1         1         1         1         1         1         1         1
         1         1         1         1         1         1         1         1
         1         1         1         1         1         1         1         1
         1         1         1         1         1         1         1         1
         1         1         1         1         1         1         1         1
         1         1         1         1         1         1         1         1
         1         1         1         1         1         1         1         1
         1         1         1         1         1         1         1         1
         1         1         1         1         1         1         1         1
         1         1         1         1         1         1         1         1
         1         1         1         1         1         1         1         1
         1         1         1         1         1         1         1         1
         1         1         1         1         1         1         1         1
         1         1         1         1         1         1         1         1
         1         1         1         1         1         1         1         1
         1         1         1         1         1         1         1         1
         1         1         1         1         1         1         1         1
         1         1         1         1         1         1         1         1
         1         1         1         1         1         1         1         1
         1         1         1         1         1         1         1         1
         1         1         1         1         1         1         1         1
         1         1         1         1         1         1         1         1
         1         1         1         1         1         1         1         1
         1         1         1         1         1         1         1         1
         1         1         1         1         1         1         1         1
         1         1         1         1         1         1         1         1
         1         1         1         1         1         1         1         1
         1         1         1         1         1         1         1         1
         1         1         1         1         1         1         1         1
         1         1         1         1         1         1         1         1
         1         1         1         1         1         1         1         1
         1         1         1         1         1         1         1         1
         1         1         1         1         1         1         1         1
         1         1         1         1         1         1         1         1
         1         1         1         1         1         1         1         1
         1         1         1         1         1         1         1         1
         1         1         1         1         1         1         1         1
         1         1         1         1         1         1         1         1
         1         1         1         1         1         1         1         1
         1         1         1         1         1         1         1         1
         1         1         1         1         1         1         1         1
         1         1         1         1         1         1         1         1
         1         1         1         1         1         1         1         1
         1         1         1         1         1         1         1         1
         1         1         1         1         1         1         1         1
         1         1         1         1         1         1         1         1
         1         1         1         1         1         1         1         1
         1         1         1         1         1         1         1         1
         1         1         1         1         1         1         1         1
         1         1         1         1         1         1         1         1
         1         1         1         1         1         1         1         1
         1         1         1         1         1         1         1         1
         1         1         1         1         1         1         1         1
         1         1         1         1         1         1         1         1
         1         1         1         1         1         1         1         1
         1         1         1         1         1         1         1         1
         1         1         1         1         1         1         1         1
         1         1         1         1         1         1         1         1
         1         1         1         1         1         1         1         1
         1         1         1         1         1         1         1         1
         1         1         1         1         1         1         1         1
         1         1         1         1         1         1         1         1
         1         1         1         1         1         1         1         1
         1         1         1         1         1         1         1         1
         1         1         1         1         1         1         1         1
         1         1         1         1         1         1         1         1
         1         1         1         1         1         1         1         1
         1         1         1         1         1         1         1         1
         1         1         1         1         1         1         1         1
         1         1         1         1         1         1         1         1
         1         1         1         1         1         1         1         1
         1         1         1         1         1         1         1         1
         1         1         1         1         1         1         1         1
         1         1         1         1         1         1         1         1
         1         1         1         1         1         1         1         1
         1         1         1         1         1         1         1         1
         1         1         1         1         1         1         1         1
         1         1         1         1         1         1         1         1
         1         1         1         1         1         1         1         1
         1         1         1         1         1         1         1         1
         1         1         1         1         1         1         1         1
         1         1         1         1         1         1         1         1
         1         1         1         1         1         1         1         1
         1         1         1         1         1         1         1         1
         1         1         1         1         1         1         1         1
         1         1         1         1         1         1         1         1
         1         1         1         1         1         1         1         1
         1         1         1         1         1         1         1         1
         1         1         1         1         1         1         1         1
         1         1         1         1         1         1         1         1
         1         1         1         1         1         1         1         1
         1         1         1         1         1         1         1         1
         1         1         1         1         1         1         1         1
         1         1         1         1         1         1         1         1
         1         1         1         1         1         1         1         1
         1         1         1         1         1         1         1         1
         1         1         1         1         1         1         1         1
         1         1         1         1         1         1         1         1
         1         1         1         1         1         1         1         1
         1         1         1         1         1         1         1         1
         1         1         1         1         1         1         1         1
         1         1         1         1         1         1         1         1
         1         1         1         1         1         1         1         1
         1         1         1         1         1         1         1         1
         1         1         1         1         1         1         1         1
         1         1         1         1         1         1         1         1
         1         1         1         1         1         1         1         1
         1         1         1         1         1         1         1         1
         1         1         1         1         1         1         1         1
         1         1         1         1         1         1         1         1
         1         1         1         1         1         1         1         1
         1         1         1         1         1         1         1         1
         1         1         1         1         1         1         1         1
         1         1         1         1         1         1         1         1
         1         1         1         1         1         1         1         1
         1         1         1         1         1         1         1         1
         1         1         1         1         1         1         1         1
         1         1         1         1         1         1         1         1
         1         1         1         1         1         1         1         1
         1         1         1         1         1         1         1         1
         1         1         1         1         1         1         1         1
         1         1         1         1         1         1         1         1
         1         1         1         1         1         1         1         1
         1         1         1         1         1         1         1         1
         1         1         1         1         1         1         1         1
         1         1         1         1         1         1         1         1
         1         1         1         1         1         1         1         1
         1         1         1         1         1         1         1         1
         1         1         1         1         1         1         1         1
         1         1         1         1         1         1         1         1
         1         1         1         1         1         1         1         1
         1         1         1         1         1         1         1         1
         1         1         1         1         1         1         1         1
         1         1         1         1         1         1         1         1
         1         1         1         1         1         1         1         1
         1         1         1         1         1         1         1         1
         1         1         1         1         1         1         1         1
         1         1         1         1         1         1         1         1
         1         1         1         1         1         1         1         1
         1         1         1         1         1         1         1         1
         1         1         1         1         1         1         1         1
         1         1         1         1         1         1         1         1
         1         1         1         1         1         1         1         1
         1         1         1         1         1         1         1         1
         1         1         1         1         1         1         1         1
         1         1         1         1         1         1         1         1
         1         1         1         1         1         1         1         1
         1         1         1         1         1         1         1         1
         1         1         1         1         1         1         1         1
         1         1         1         1         1         1         1         1
         1         1         1         1         1         1         1         1
         1         1         1         1         1         1         1         1
         1         1         1         1         1         1         1         1
         1         1         1         1         1         1         1         1
         1         1         1         1         1         1         1         1
         1         1         1         1         1         1         1         1
         1         1         1         1         1         1         1         1
         1         1         1         1         1         1         1         1
         1         1         1         1         1         1         1         1
         1         1         1         1         1         1         1         1
         1         1         1         1         1         1         1         1
         1         1         1         1         1         1         1         1
         1         1         1         1         1         1         1         1
         1         1         1         1         1         1         1         1
         1         1         1         1         1         1         1         1
         1         1         1         1         1         1         1         1
         1         1         1         1         1         1         1         1
         1         1         1         1         1         1         1         1
         1         1         1         1         1         1         1         1
         1         1         1         1         1         1         1         1
         1         1         1         1         1         1         1         1
         1         1         1         1         1         1         1         1
         1         1         1         1         1         1         1         1
         1         1         1         1         1         1         1         1
         1         1         1         1         1         1         1         1
         1         1         1         1         1         1         1         1
         1         1         1         1         1         1         1         1
         1         1         1         1         1         1         1         1
         1         1         1         1         1         1         1         1
         1         1         1         1         1         1         1         1
         1         1         1         1         1         1         1         1
         1         1         1         1         1         1         1         1
         1         1         1         1         1         1         1         1
         1         1         1         1         1         1         1         1
         1         1         1         1         1         1         1         1
         1         1         1         1         1         1         1         1
         1         1         1         1         1         1         1         1
         1         1         1         1         1         1         1         1
         1         1         1         1         1         1         1         1
         1         1         1         1         1         1         1         1
         1         1         1         1         1         1         1         1
         1         1         1         1         1         1         1         1
         1         1         1         1         1         1         1         1
         1         1         1         1         1         1         1         1
         1         1         1         1         1         1         1         1
         1         1         1         1         1         1         1         1
         1         1         1         1         1         1         1         1
         1         1         1         1         1         1         1         1
         1         1         1         1         1         1         1         1
         1         1         1         1         1         1         1         1
         1         1         1         1         1         1         1         1
         1         1         1         1         1         1         1         1
         1         1         1         1         1         1         1         1
         1         1         1         1         1         1         1         1
         1         1         1         1         1         1         1         1
         1         1         1         1         1         1         1         1
         1         1         1         1         1         1         1         1
         1         1         1         1         1         1         1         1
         1         1         1         1         1         1         1         1
         1         1         1         1         1         1         1         1
         1         1         1         1         1         1         1         1
         1         1         1         1         1         1         1         1
         1         1         1         1         1         1         1         1
         1         1         1         1         1         1         1         1
         1         1         1         1         1         1         1         1
         1         1         1         1         1         1         1         1
         1         1         1         1         1         1         1         1
         1         1         1         1         1         1         1         1
         1         1         1         1         1         1         1         1
         1         1         1         1         1         1         1         1
         1         1         1         1         1         1         1         1
         1         1         1         1         1         1         1         1
         1         1         1         1         1         1         1         1
         1         1         1         1         1         1         1         1
         1         1         1         1         1         1         1         1
         1         1         1         1         1         1         1         1
         1         1         1         1         1         1         1         1
         1         1         1         1         1         1         1         1
         1         1         1         1         1         1         1         1
         1         1         1         1         1         1         1         1
         1         1         1         1         1         1         1         1
         1         1         1         1         1         1         1         1
         1         1         1         1         1         1         1         1
         1         1         1         1         1         1         1         1
         1         1         1         1         1         1         1         1
         1         1         1         1         1         1         1         1
         1         1         1         1         1         1         1         1
         1         1         1         1         1         1         1         1
         1         1         1         1         1         1         1         1
         1         1         1         1         1         1         1         1
         1         1         1         1         1         1         1         1
         1         1         1         1         1         1         1         1
         1         1         1         1         1         1         1         1
         1         1         1         1         1         1         1         1
         1         1         1         1         1         1         1         1
         1         1         1         1         1         1         1         1
         1         1         1         1         1         1         1         1
         1         1         1         1         1         1         1         1
         1         1         1         1         1         1         1         1
         1         1         1         1         1         1         1         1
         1         1         1         1         1         1         1         1
         1         1         1         1         1         1         1         1
         1         1         1         1         1         1         1         1
         1         1         1         1         1         1         1         1
         1         1         1         1         1         1         1         1
         1         1         1         1         1         1         1         1
         1         1         1         1         1         1         1         1
         1         1         1         1         1         1         1         1
         1         1         1         1         1         1         1         1
         1         1         1         1         1         1         1         1
         1         1         1         1         1         1         1         1
         1         1         1         1         1         1         1         1
         1         1         1         1         1         1         1         1
         1         1         1         1         1         1         1         1
         1         1         1         1         1         1         1         1
         1         1         1         1         1         1         1         1
         1         1         1         1         1         1         1         1
         1         1         1         1         1         1         1         1
         1         1         1         1         1         1         1         1
         1         1         1         1         1         1         1         1
         1         1         1         1         1         1         1         1
         1         1         1         1         1         1         1         1
         1         1         1         1         1         1         1         1
         1         1         1         1         1         1         1         1
         1         1         1         1         1         1         1         1
         1         1         1         1         1         1         1         1
         1         1         1         1         1         1         1         1
         1         1         1         1         1         1         1         1
         1         1         1         1         1         1         1         1
         1         1         1         1         1         1         1         1
         1         1         1         1         1         1         1         1
         1         1         1         1         1         1         1         1
         1         1         1         1         1         1         1         1
         1         1         1         1         1         1         1         1
         1         1         1         1         1         1         1         1
         1         1         1         1         1         1         1         1
         1         1         1         1         1         1         1         1
         1         1         1         1         1         1         1         1
         1         1         1         1         1         1         1         1
         1         1         1         1         1         1         1         1
         1         1         1         1         1         1         1         1
         1         1         1         1         1         1         1         1
         1         1         1         1         1         1         1         1
         1         1         1         1         1         1         1         1
         1         1         1         1         1         1         1         1
         1         1         1         1         1         1         1         1
         1         1         1         1         1         1         1         1
         1         1         1         1         1         1         1         1
         1         1         1         1         1         1         1         1
         1         1         1         1         1         1         1         1
         1         1         1         1         1         1         1         1
         1         1         1         1         1         1         1         1
         1         1         1         1         1         1         1         1
         1         1         1         1         1         1         1         1
         1         1         1         1         1         1         1         1
         1         1         1         1         1         1         1         1
         1         1         1         1         1         1         1         1
         1         1         1         1         1         1         1         1
         1         1         1         1         1         1         1         1
         1         1         1         1         1         1         1         1
         1         1         1         1         1         1         1         1
         1         1         1         1         1         1         1         1
         1         1         1         1         1         1         1         1
         1         1         1         1         1         1         1         1
         1         1         1         1         1         1         1         1
         1         1         1         1         1         1         1         1
         1         1         1         1         1         1         1         1
         1         1         1         1         1         1         1         1
         1         1         1         1         1         1         1         1
         1         1         1         1         1         1         1         1
         1         1         1         1         1         1         1         1
         1         1         1         1         1         1         1         1
         1         1         1         1         1         1         1         1
         1         1         1         1         1         1         1         1
         1         1         1         1         1         1         1         1
         1         1         1         1         1         1         1         1
         1         1         1         1         1         1         1         1
         1         1         1         1         1         1         1         1
         1         1         1         1         1         1         1         1
         1         1         1         1         1         1         1         1
         1         1         1         1         1         1         1         1
         1         1         1         1         1         1         1         1
         1         1         1         1         1         1         1         1
         1         1         1         1         1         1         1         1
         1         1         1         1         1         1         1         1
         1         1         1         1         1         1         1         1
         1         1         1         1         1         1         1         1
         1         1         1         1         1         1         1         1
         1         1         1         1         1         1         1         1
         1         1         1         1         1         1         1         1
         1         1         1         1         1         1         1         1
         1         1         1         1         1         1         1         1
         1         1         1         1         1         1         1         1
         1         1         1         1         1         1         1         1
         1         1         1         1         1         1         1         1
         1         1         1         1         1         1         1         1
         1         1         1         1         1         1         1         1
         1         1         1         1         1         1         1         1
         1         1         1         1         1         1         1         1
         1         1         1         1         1         1         1         1
         1         1         1         1         1         1         1         1
         1         1         1         1         1         1         1         1
         1         1         1         1         1         1         1         1
         1         1         1         1         1         1         1         1
         1         1         1         1         1         1         1         1
         1         1         1         1         1         1         1         1
         1         1         1         1         1         1         1         1
         1         1         1         1         1         1         1         1
         1         1         1         1         1         1         1         1
         1         1         1         1         1         1         1         1
         1         1         1         1         1         1         1         1
         1         1         1         1         1         1         1         1
         1         1         1         1         1         1         1         1
         1         1         1         1         1         1         1         1
         1         1         1         1         1         1         1         1
         1         1         1         1         1         1         1         1
         1         1         1         1         1         1         1         1
         1         1         1         1         1         1         1         1
         1         1         1         1         1         1         1         1
         1         1         1         1         1         1         1         1
         1         1         1         1         1         1         1         1
         1         1         1         1         1         1         1         1
         1         1         1         1         1         1         1         1
         1         1         1         1         1         1         1         1
         1         1         1         1         1         1         1         1
         1         1         1         1         1         1         1         1
         1         1         1         1         1         1         1         1
         1         1         1         1         1         1         1         1
         1         1         1         1         1         1         1         1
         1         1         1         1         1         1         1         1
         1         1         1         1         1         1         1         1
         1         1         1         1         1         1         1         1
         1         1         1         1         1         1         1         1
         1         1         1         1         1         1         1         1
         1         1         1         1         1         1         1         1
         1         1         1         1         1         1         1         1
         1         1         1         1         1         1         1         1
         1         1         1         1         1         1         1         1
         1         1         1         1         1         1         1         1
         1         1         1         1         1         1         1         1
         1         1         1         1         1         1         1         1
         1         1         1         1         1         1         1         1
         1         1         1         1         1         1         1         1
         1         1         1         1         1         1         1         1
         1         1         1         1         1         1         1         1
         1         1         1         1         1         1         1         1
         1         1         1         1         1         1         1         1
         1         1         1         1         1         1         1         1
         1         1         1         1         1         1         1         1
         1         1         1         1         1         1         1         1
         1         1         1         1         1         1         1         1
         1         1         1         1         1         1         1         1
         1         1         1         1         1         1         1         1
         1         1         1         1         1         1         1         1
         1         1         1         1         1         1         1         1
         1         1         1         1         1         1         1         1
         1         1         1         1         1         1         1         1
         1         1         1         1         1         1         1         1
         1         1         1         1         1         1         1         1
         1         1         1         1         1         1         1         1
         1         1         1         1         1         1         1         1
         1         1         1         1         1         1         1         1
         1         1         1         1         1         1         1         1
         1         1         1         1         1         1         1         1
         1         1         1         1         1         1         1         1
         1         1         1         1         1         1         1         1
         1         1         1         1         1         1         1         1
         1         1         1         1         1         1         1         1
         1         1         1         1         1         1         1         1
         1         1         1         1         1         1         1         1
         1         1         1         1         1         1         1         1
         1         1         1         1         1         1         1         1
         1         1         1         1         1         1         1         1
         1         1         1         1         1         1         1         1
         1         1         1         1         1         1         1         1
         1         1         1         1         1         1         1         1
         1         1         1         1         1         1         1         1
         1         1         1         1         1         1         1         1
         1         1         1         1         1         1         1         1
         1         1         1         1         1         1         1         1
         1         1         1         1         1         1         1         1
         1         1         1         1         1         1         1         1
         1         1         1         1         1         1         1         1
         1         1         1         1         1         1         1         1
         1         1         1         1         1         1         1         1
         1         1         1         1         1         1         1         1
         1         1         1         1         1         1         1         1
         1         1         1         1         1         1         1         1
         1         1         1         1         1         1         1         1
         1         1         1         1         1         1         1         1
         1         1         1         1         1         1         1         1
         1         1         1         1         1         1         1         1
         1         1         1         1         1         1         1         1
         1         1         1         1         1         1         1         1
         1         1         1         1         1         1         1         1
         1         1         1         1         1         1         1         1
         1         1         1         1         1         1         1         1
         1         1         1         1         1         1         1         1
         1         1         1         1         1         1         1         1
         1         1         1         1         1         1         1         1
         1         1         1         1         1         1         1         1
         1         1         1         1         1         1         1         1
         1         1         1         1         1         1         1         1
         1         1         1         1         1         1         1         1
         1         1         1         1         1         1         1         1
         1         1         1         1         1         1         1         1
         1         1         1         1         1         1         1         1
         1         1         1         1         1         1         1         1
         1         1         1         1         1         1         1         1
         1         1         1         1         1         1         1         1
         1         1         1         1         1         1         1         1
         1         1         1         1         1         1         1         1
         1         1         1         1         1         1         1         1
         1         1         1         1         1         1         1         1
         1         1         1         1         1         1         1         1
         1         1         1         1         1         1         1         1
         1         1         1         1         1         1         1         1
         1         1         1         1         1         1         1         1
         1         1         1         1         1         1         1         1
         1         1         1         1         1         1         1         1
         1         1         1         1         1         1         1         1
         1         1         1         1         1         1         1         1
         1         1         1         1         1         1         1         1
         1         1         1         1         1         1         1         1
         1         1         1         1         1         1         1         1
         1         1         1         1         1         1         1         1
         1         1         1         1         1         1         1         1
         1         1         1         1         1         1         1         1
         1         1         1         1         1         1         1         1
         1         1         1         1         1         1         1         1
         1         1         1         1         1         1         1         1
         1         1         1         1         1         1         1         1
         1         1         1         1         1         1         1         1
         1         1         1         1         1         1         1         1
         1         1         1         1         1         1         1         1
         1         1         1         1         1         1         1         1
         1         1         1         1         1         1         1         1
         1         1         1         1         1         1         1         1
         1         1         1         1         1         1         1         1
         1         1         1         1         1         1         1         1
         1         1         1         1         1         1         1         1
         1         1         1         1         1         1         1         1
         1         1         1         1         1         1         1         1
         1         1         1         1         1         1         1         1
         1         1         1         1         1         1         1         1
         1         1         1         1         1         1         1         1
         1         1         1         1         1         1         1         1
         1         1         1         1         1         1         1         1
         1         1         1         1         1         1         1         1
         1         1         1         1         1         1         1         1
         1         1         1         1         1         1         1         1
         1         1         1         1         1         1         1         1
         1         1         1         1         1         1         1         1
         1         1         1         1         1         1         1         1
         1         1         1         1         1         1         1         1
         1         1         1         1         1         1         1         1
         1         1         1         1         1         1         1         1
         1         1         1         1         1         1         1         1
         1         1         1         1         1         1         1         1
         1         1         1         1         1         1         1         1
         1         1         1         1         1         1         1         1
         1         1         1         1         1         1         1         1
         1         1         1         1         1         1         1         1
         1         1         1         1         1         1         1         1
         1         1         1         1         1         1         1         1
         1         1         1         1         1         1         1         1
         1         1         1         1         1         1         1         1
         1         1         1         1         1         1         1         1
         1         1         1         1         1         1         1         1
         1         1         1         1         1         1         1         1
         1         1         1         1         1         1         1         1
         1         1         1         1         1         1         1         1
         1         1         1         1         1         1         1         1
         1         1         1         1         1         1         1         1
         1         1         1         1         1         1         1         1
         1         1         1         1         1         1         1         1
         1         1         1         1         1         1         1         1
         1         1         1         1         1         1         1         1
         1         1         1         1         1         1         1         1
         1         1         1         1         1         1         1         1
         1         1         1         1         1         1         1         1
         1         1         1         1         1         1         1         1
         1         1         1         1         1         1         1         1
         1         1         1         1         1         1         1         1
         1         1         1         1         1         1         1         1
         1         1         1         1         1         1         1         1
         1         1         1         1         1         1         1         1
         1         1         1         1         1         1         1         1
         1         1         1         1         1         1         1         1
         1         1         1         1         1         1         1         1
         1         1         1         1         1         1         1         1
         1         1         1         1         1         1         1         1
         1         1         1         1         1         1         1         1
         1         1         1         1         1         1         1         1
         1         1         1         1         1         1         1         1
         1         1         1         1         1         1         1         1
         1         1         1         1         1         1         1         1
         1         1         1         1         1         1         1         1
         1         1         1         1         1         1         1         1
         1         1         1         1         1         1         1         1
         1         1         1         1         1         1         1         1
         1         1         1         1         1         1         1         1
         1         1         1         1         1         1         1         1
         1         1         1         1         1         1         1         1
         1         1         1         1         1         1         1         1
         1         1         1         1         1         1         1         1
         1         1         1         1         1         1         1         1
         1         1         1         1         1         1         1         1
         1         1         1         1         1         1         1         1
         1         1         1         1         1         1         1         1
         1         1         1         1         1         1         1         1
         1         1         1         1         1         1         1         1
         1         1         1         1         1         1         1         1
         1         1         1         1         1         1         1         1
         1         1         1         1         1         1         1         1
         1         1         1         1         1         1         1         1
         1         1         1         1         1         1         1         1
         1         1         1         1         1         1         1         1
         1         1         1         1         1         1         1         1
         1         1         1         1         1         1         1         1
         1         1         1         1         1         1         1         1
         1         1         1         1         1         1         1         1
         1         1         1         1         1         1         1         1
         1         1         1         1         1         1         1         1
         1         1         1         1         1         1         1         1
         1         1         1         1         1         1         1         1
         1         1         1         1         1         1         1         1
         1         1         1         1         1         1         1         1
         1         1         1         1         1         1         1         1
         1         1         1         1         1         1         1         1
         1         1         1         1         1         1         1         1
         1         1         1         1         1         1         1         1
         1         1         1         1         1         1         1         1
         1         1         1         1         1         1         1         1
         1         1         1         1         1         1         1         1
         1         1         1         1         1         1         1         1
         1         1         1         1         1         1         1         1
         1         1         1         1         1         1         1         1
         1         1         1         1         1         1         1         1
         1         1         1         1         1         1         1         1
         1         1         1         1         1         1         1         1
         1         1         1         1         1         1         1         1
         1         1         1         1         1         1         1         1
         1         1         1         1         1         1         1         1
         1         1         1         1         1         1         1         1
         1         1         1         1         1         1         1         1
         1         1         1         1         1         1         1         1
         1         1         1         1         1         1         1         1
         1         1         1         1         1         1         1         1
         1         1         1         1         1         1         1         1
         1         1         1         1         1         1         1         1
         1         1         1         1         1         1         1         1
         1         1         1         1         1         1         1         1
         1         1         1         1         1         1         1         1
         1         1         1         1         1         1         1         1
         1         1         1         1         1         1         1         1
         1         1         1         1         1         1         1         1
         1         1         1         1         1         1         1         1
         1         1         1         1         1         1         1         1
         1         1         1         1         1         1         1         1
         1         1         1         1         1         1         1         1
         1         1         1         1         1         1         1         1
         1         1         1         1         1         1         1         1
         1         1         1         1         1         1         1         1
         1         1         1         1         1         1         1         1
         1         1         1         1         1         1         1         1
         1         1         1         1         1         1         1         1
         1         1         1         1         1         1         1         1
         1         1         1         1         1         1         1         1
         1         1         1         1         1         1         1         1
         1         1         1         1         1         1         1         1
         1         1         1         1         1         1         1         1
         1         1         1         1         1         1         1         1
         1         1         1         1         1         1         1         1
         1         1         1         1         1         1         1         1
         1         1         1         1         1         1         1         1
         1         1         1         1         1         1         1         1
         1         1         1         1         1         1         1         1
         1         1         1         1         1         1         1         1
         1         1         1         1         1         1         1         1
         1         1         1         1         1         1         1         1
         1         1         1         1         1         1         1         1
         1         1         1         1         1         1         1         1
         1         1         1         1         1         1         1         1
         1         1         1         1         1         1         1         1
         1         1         1         1         1         1         1         1
         1         1         1         1         1         1         1         1
         1         1         1         1         1         1         1         1
         1         1         1         1         1         1         1         1
         1         1         1         1         1         1         1         1
         1         1         1         1         1         1         1         1
         1         1         1         1         1         1         1         1
         1         1         1         1         1         1         1         1
         1         1         1         1         1         1         1         1
         1         1         1         1         1         1         1         1
         1         1         1         1         1         1         1         1
         1         1         1         1         1         1         1         1
         1         1         1         1         1         1         1         1
         1         1         1         1         1         1         1         1
         1         1         1         1         1         1         1         1
         1         1         1         1         1         1         1         1
         1         1         1         1         1         1         1         1
         1         1         1         1         1         1         1         1
         1         1         1         1         1         1         1         1
         1         1         1         1         1         1         1         1
         1         1         1         1         1         1         1         1
         1         1         1         1         1         1         1         1
         1         1         1         1         1         1         1         1
         1         1         1         1         1         1         1         1
         1         1         1         1         1         1         1         1
         1         1         1         1         1         1         1         1
         1         1         1         1         1         1         1         1
         1         1         1         1         1         1         1         1
         1         1         1         1         1         1         1         1
         1         1         1         1         1         1         1         1
         1         1         1         1         1         1         1         1
         1         1         1         1         1         1         1         1
         1         1         1         1         1         1         1         1
         1         1         1         1         1         1         1         1
         1         1         1         1         1         1         1         1
         1         1         1         1         1         1         1         1
         1         1         1         1         1         1         1         1
         1         1         1         1         1         1         1         1
         1         1         1         1         1         1         1         1
         1         1         1         1         1         1         1         1
         1         1         1         1         1         1         1         1
         1         1         1         1         1         1         1         1
         1         1         1         1         1         1         1         1
         1         1         1         1         1         1         1         1
         1         1         1         1         1         1         1         1
         1         1         1         1         1         1         1         1
         1         1         1         1         1         1         1         1
         1         1         1         1         1         1         1         1
         1         1         1         1         1         1         1         1
         1         1         1         1         1         1         1         1
         1         1         1         1         1         1         1         1
         1         1         1         1         1         1         1         1
         1         1         1         1         1         1         1         1
         1         1         1         1         1         1         1         1
         1         1         1         1         1         1         1         1
         1         1         1         1         1         1         1         1
         1         1         1         1         1         1         1         1
         1         1         1         1         1         1         1         1
         1         1         1         1         1         1         1         1
         1         1         1         1         1         1         1         1
         1         1         1         1         1         1         1         1
         1         1         1         1         1         1         1         1
         1         1         1         1         1         1         1         1
         1         1         1         1         1         1         1         1
         1         1         1         1         1         1         1         1
         1         1         1         1         1         1         1         1
         1         1         1         1         1         1         1         1
         1         1         1         1         1         1         1         1
         1         1         1         1         1         1         1         1
         1         1         1         1         1         1         1         1
         1         1         1         1         1         1         1         1
         1         1         1         1         1         1         1         1
         1         1         1         1         1         1         1         1
         1         1         1         1         1         1         1         1
         1         1         1         1         1         1         1         1
         1         1         1         1         1         1         1         1
         1         1         1         1         1         1         1         1
         1         1         1         1         1         1         1         1
         1         1         1         1         1         1         1         1
         1         1         1         1         1         1         1         1
         1         1         1         1         1         1         1         1
         1         1         1         1         1         1         1         1
         1         1         1         1         1         1         1         1
         1         1         1         1         1         1         1         1
         1         1         1         1         1         1         1         1
         1         1         1         1         1         1         1         1
         1         1         1         1         1         1         1         1
         1         1         1         1         1         1         1         1
         1         1         1         1         1         1         1         1
         1         1         1         1         1         1         1         1
         1         1         1         1         1         1         1         1
         1         1         1         1         1         1         1         1
         1         1         1         1         1         1         1         1
         1         1         1         1         1         1         1         1
         1         1         1         1         1         1         1         1
         1         1         1         1         1         1         1         1
         1         1         1         1         1         1         1         1
         1         1         1         1         1         1         1         1
         1         1         1         1         1         1         1         1
         1         1         1         1         1         1         1         1
         1         1         1         1         1         1         1         1
         1         1         1         1         1         1         1         1
         1         1         1         1         1         1         1         1
         1         1         1         1         1         1         1         1
         1         1         1         1         1         1         1         1
         1         1         1         1         1         1         1         1
         1         1         1         1         1         1         1         1
         1         1         1         1         1         1         1         1
         1         1         1         1         1         1         1         1
         1         1         1         1         1         1         1         1
         1         1         1         1         1         1         1         1
         1         1         1         1         1         1         1         1
         1         1         1         1         1         1         1         1
         1         1         1         1         1         1         1         1
         1         1         1         1         1         1         1         1
         1         1         1         1         1         1         1         1
         1         1         1         1         1         1         1         1
         1         1         1         1         1         1         1         1
         1         1         1         1         1         1         1         1
         1         1         1         1         1         1         1         1
         1         1         1         1         1         1         1         1
         1         1         1         1         1         1         1         1
         1         1         1         1         1         1         1         1
         1         1         1         1         1         1         1         1
         1         1         1         1         1         1         1         1
         1         1         1         1         1         1         1         1
         1         1         1         1         1         1         1         1
         1         1         1         1         1         1         1         1
         1         1         1         1         1         1         1         1
         1         1         1         1         1         1         1         1
         1         1         1         1         1         1         1         1
         1         1         1         1         1         1         1         1
         1         1         1         1         1         1         1         1
         1         1         1         1         1         1         1         1
         1         1         1         1         1         1         1         1
         1         1         1         1         1         1         1         1
         1         1         1         1         1         1         1         1
         1         1         1         1         1         1         1         1
         1         1         1         1         1         1         1         1
         1         1         1         1         1         1         1         1
         1         1         1         1         1         1         1         1
         1         1         1         1         1         1         1         1
         1         1         1         1         1         1         1         1
         1         1         1         1         1         1         1         1
         1         1         1         1         1         1         1         1
         1         1         1         1         1         1         1         1
         1         1         1         1         1         1         1         1
         1         1         1         1         1         1         1         1
         1         1         1         1         1         1         1         1
         1         1         1         1         1         1         1         1
         1         1         1         1         1         1         1         1
         1         1         1         1         1         1         1         1
         1         1         1         1         1         1         1         1
         1         1         1         1         1         1         1         1
         1         1         1         1         1         1         1         1
         1         1         1         1         1         1         1         1
         1         1         1         1         1         1         1         1
         1         1         1         1         1         1         1         1
         1         1         1         1         1         1         1         1
         1         1         1         1         1         1         1         1
         1         1         1         1         1         1         1         1
         1         1         1         1         1         1         1         1
         1         1         1         1         1         1         1         1
         1         1         1         1         1         1         1         1
         1         1         1         1         1         1         1         1
         1         1         1         1         1         1         1         1
         1         1         1         1         1         1         1         1
         1         1         1         1         1         1         1         1
         1         1         1         1         1         1         1         1
         1         1         1         1         1         1         1         1
         1         1         1         1         1         1         1         1
         1         1         1         1         1         1         1         1
         1         1         1         1         1         1         1         1
         1         1         1         1         1         1         1         1
         1         1         1         1         1         1         1         1
         1         1         1         1         1         1         1         1
         1         1         1         1         1         1         1         1
         1         1         1         1         1         1         1         1
         1         1         1         1         1         1         1         1
         1         1         1         1         1         1         1         1
         1         1         1         1         1         1         1         1
         1         1         1         1         1         1         1         1
         1         1         1         1         1         1         1         1
         1         1         1         1         1         1         1         1
         1         1         1         1         1         1         1         1
         1         1         1         1         1         1         1         1
         1         1         1         1         1         1         1         1
         1         1         1         1         1         1         1         1
         1         1         1         1         1         1         1         1
         1         1         1         1         1         1         1         1
         1         1         1         1         1         1         1         1
         1         1         1         1         1         1         1         1
         1         1         1         1         1         1         1         1
         1         1         1         1         1         1         1         1
         1         1         1         1         1         1         1         1
         1         1         1         1         1         1         1         1
         1         1         1         1         1         1         1         1
         1         1         1         1         1         1         1         1
         1         1         1         1         1         1         1         1
         1         1         1         1         1         1         1         1
         1         1         1         1         1         1         1         1
         1         1         1         1         1         1         1         1
         1         1         1         1         1         1         1         1
         1         1         1         1         1         1         1         1
         1         1         1         1         1         1         1         1
         1         1         1         1         1         1         1         1
         1         1         1         1         1         1         1         1
         1         1         1         1         1         1         1         1
         1         1         1         1         1         1         1         1
         1         1         1         1         1         1         1         1
         1         1         1         1         1         1         1         1
         1         1         1         1         1         1         1         1
         1         1         1         1         1         1         1         1
         1         1         1         1         1         1         1         1
         1         1         1         1         1         1         1         1
         1         1         1         1         1         1         1         1
         1         1         1         1         1         1         1         1
         1         1         1         1         1         1         1         1
         1         1         1         1         1         1         1         1
         1         1         1         1         1         1         1         1
         1         1         1         1         1         1         1         1
         1         1         1         1         1         1         1         1
         1         1         1         1         1         1         1         1
         1         1         1         1         1         1         1         1
         1         1         1         1         1         1         1         1
         1         1         1         1         1         1         1         1
         1         1         1         1         1         1         1         1
         1         1         1         1         1         1         1         1
         1         1         1         1         1         1         1         1
         1         1         1         1         1         1         1         1
         1         1         1         1         1         1         1         1
         1         1         1         1         1         1         1         1
         1         1         1         1         1         1         1         1
         1         1         1         1         1         1         1         1
         1         1         1         1         1         1         1         1
         1         1         1         1         1         1         1         1
         1         1         1         1         1         1         1         1
         1         1         1         1         1         1         1         1
         1         1         1         1         1         1         1         1
         1         1         1         1         1         1         1         1
         1         1         1         1         1         1         1         1
         1         1         1         1         1         1         1         1
         1         1         1         1         1         1         1         1
         1         1         1         1         1         1         1         1
         1         1         1         1         1         1         1         1
         1         1         1         1         1         1         1         1
         1         1         1         1         1         1         1         1
         1         1         1         1         1         1         1         1
         1         1         1         1         1         1         1         1
         1         1         1         1         1         1         1         1
         1         1         1         1         1         1         1         1
         1         1         1         1         1         1         1         1
         1         1         1         1         1         1         1         1
         1         1         1         1         1         1         1         1
         1         1         1         1         1         1         1         1
         1         1         1         1         1         1         1         1
         1         1         1         1         1         1         1         1
         1         1         1         1         1         1         1         1
         1         1         1         1         1         1         1         1
         1         1         1         1         1         1         1         1
         1         1         1         1         1         1         1         1
         1         1         1         1         1         1         1         1
         1         1         1         1         1         1         1         1
         1         1         1         1         1         1         1         1
         1         1         1         1         1         1         1         1
         1         1         1         1         1         1         1         1
         1         1         1         1         1         1         1         1
         1         1         1         1         1         1         1         1
         1         1         1         1         1         1         1         1
         1         1         1         1         1         1         1         1
         1         1         1         1         1         1         1         1
         1         1         1         1         1         1         1         1
         1         1         1         1         1         1         1         1
         1         1         1         1         1         1         1         1
         1         1         1         1         1         1         1         1
         1         1         1         1         1         1         1         1
         1         1         1         1         1         1         1         1
         1         1         1         1         1         1         1         1
         1         1         1         1         1         1         1         1
         1         1         1         1         1         1         1         1
         1         1         1         1         1         1         1         1
         1         1         1         1         1         1         1         1
         1         1         1         1         1         1         1         1
         1         1         1         1         1         1         1         1
         1         1         1         1         1         1         1         1
         1         1         1         1         1         1         1         1
         1         1         1         1         1         1         1         1
         1         1         1         1         1         1         1         1
         1         1         1         1         1         1         1         1
         1         1         1         1         1         1         1         1
         1         1         1         1         1         1         1         1
         1         1         1         1         1         1         1         1
         1         1         1         1         1         1         1         1
         1         1         1         1         1         1         1         1
         1         1         1         1         1         1         1         1
         1         1         1         1         1         1         1         1
         1         1         1         1         1         1         1         1
         1         1         1         1         1         1         1         1
         1         1         1         1         1         1         1         1
         1         1         1         1         1         1         1         1
         1         1         1         1         1         1         1         1
         1         1         1         1         1         1         1         1
         1         1         1         1         1         1         1         1
         1         1         1         1         1         1         1         1
         1         1         1         1         1         1         1         1
         1         1         1         1         1         1         1         1
         1         1         1         1         1         1         1         1
         1         1         1         1         1         1         1         1
         1         1         1         1         1         1         1         1
         1         1         1         1         1         1         1         1
         1         1         1         1         1         1         1         1
         1         1         1         1         1         1         1         1
         1         1         1         1         1         1         1         1
         1         1         1         1         1         1         1         1
         1         1         1         1         1         1         1         1
         1         1         1         1         1         1         1         1
         1         1         1         1         1         1         1         1
         1         1         1         1         1         1         1         1
         1         1         1         1         1         1         1         1
         1         1         1         1         1         1         1         1
         1         1         1         1         1         1         1         1
         1         1         1         1         1         1         1         1
         1         1         1         1         1         1         1         1
         1         1         1         1         1         1         1         1
         1         1         1         1         1         1         1         1
         1         1         1         1         1         1         1         1
         1         1         1         1         1         1         1         1
         1         1         1         1         1         1         1         1
         1         1         1         1         1         1         1         1
         1         1         1         1         1         1         1         1
         1         1         1         1         1         1         1         1
         1         1         1         1         1         1         1         1
         1         1         1         1         1         1         1         1
         1         1         1         1         1         1         1         1
         1         1         1         1         1         1         1         1
         1         1         1         1         1         1         1         1
         1         1         1         1         1         1         1         1
         1         1         1         1         1         1         1         1
         1         1         1         1         1         1         1         1
         1         1         1         1         1         1         1         1
         1         1         1         1         1         1         1         1
         1         1         1         1         1         1         1         1
         1         1         1         1         1         1         1         1
         1         1         1         1         1         1         1         1
         1         1         1         1         1         1         1         1
         1         1         1         1         1         1         1         1
         1         1         1         1         1         1         1         1
         1         1         1         1         1         1         1         1
         1         1         1         1         1         1         1         1
         1         1         1         1         1         1         1         1
         1         1         1         1         1         1         1         1
         1         1         1         1         1         1         1         1
         1         1         1         1         1         1         1         1
         1         1         1         1         1         1         1         1
         1         1         1         1         1         1         1         1
         1         1         1         1         1         1         1         1
         1         1         1         1         1         1         1         1
         1         1         1         1         1         1         1         1
         1         1         1         1         1         1         1         1
         1         1         1         1         1         1         1         1
         1         1         1         1         1         1         1         1
         1         1         1         1         1         1         1         1
         1         1         1         1         1         1         1         1
         1         1         1         1         1         1         1         1
         1         1         1         1         1         1         1         1
         1         1         1         1         1         1         1         1
         1         1         1         1         1         1         1         1
         1         1         1         1         1         1         1         1
         1         1         1         1         1         1         1         1
         1         1         1         1         1         1         1         1
         1         1         1         1         1         1         1         1
         1         1         1         1         1         1         1         1
         1         1         1         1         1         1         1         1
         1         1         1         1         1         1         1         1
         1         1         1         1         1         1         1         1
         1         1         1         1         1         1         1         1
         1         1         1         1         1         1         1         1
         1         1         1         1         1         1         1         1
         1         1         1         1         1         1         1         1
         1         1         1         1         1         1         1         1
         1         1         1         1         1         1         1         1
         1         1         1         1         1         1         1         1
         1         1         1         1         1         1         1         1
         1         1         1         1         1         1         1         1
         1         1         1         1         1         1         1         1
         1         1         1         1         1         1         1         1
         1         1         1         1         1         1         1         1
         1         1         1         1         1         1         1         1
         1         1         1         1         1         1         1         1
         1         1         1         1         1         1         1         1
         1         1         1         1         1         1         1         1
         1         1         1         1         1         1         1         1
         1         1         1         1         1         1         1         1
         1         1         1         1         1         1         1         1
         1         1         1         1         1         1         1         1
         1         1         1         1         1         1         1         1
         1         1         1         1         1         1         1         1
         1         1         1         1         1         1         1         1
         1         1         1         1         1         1         1         1
         1         1         1         1         1         1         1         1
         1         1         1         1         1         1         1         1
         1         1         1         1         1         1         1         1
         1         1         1         1         1         1         1         1
         1         1         1         1         1         1         1         1
         1         1         1         1         1         1         1         1
         1         1         1         1         1         1         1         1
         1         1         1         1         1         1         1         1
         1         1         1         1         1         1         1         1
         1         1         1         1         1         1         1         1
         1         1         1         1         1         1         1         1
         1         1         1         1         1         1         1         1
         1         1         1         1         1         1         1         1
         1         1         1         1         1         1         1         1
         1         1         1         1         1         1         1         1
         1         1         1         1         1         1         1         1
         1         1         1         1         1         1         1         1
         1         1         1         1         1         1         1         1
         1         1         1         1         1         1         1         1
         1         1         1         1         1         1         1         1
         1         1         1         1         1         1         1         1
         1         1         1         1         1         1         1         1
         1         1         1         1         1         1         1         1
         1         1         1         1         1         1         1         1
         1         1         1         1         1         1         1         1
         1         1         1         1         1         1         1         1
         1         1         1         1         1         1         1         1
         1         1         1         1         1         1         1         1
         1         1         1         1         1         1         1         1
         1         1         1         1         1         1         1         1
         1         1         1         1         1         1         1         1
         1         1         1         1         1         1         1         1
         1         1         1         1         1         1         1         1
         1         1         1         1         1         1         1         1
         1         1         1         1         1         1         1         1
         1         1         1         1         1         1         1         1
         1         1         1         1         1         1         1         1
         1         1         1         1         1         1         1         1
         1         1         1         1         1         1         1         1
         1         1         1         1         1         1         1         1
         1         1         1         1         1         1         1         1
         1         1         1         1         1         1         1         1
         1         1         1         1         1         1         1         1
         1         1         1         1         1         1         1         1
         1         1         1         1         1         1         1         1
         1         1         1         1         1         1         1         1
         1         1         1         1         1         1         1         1
         1         1         1         1         1         1         1         1
         1         1         1         1         1         1         1         1
         1         1         1         1         1         1         1         1
         1         1         1         1         1         1         1         1
         1         1         1         1         1         1         1         1
         1         1         1         1         1         1         1         1
         1         1         1         1         1         1         1         1
         1         1         1         1         1         1         1         1
         1         1         1         1         1         1         1         1
         1         1         1         1         1         1         1         1
         1         1         1         1         1         1         1         1
         1         1         1         1         1         1         1         1
         1         1         1         1         1         1         1         1
         1         1         1         1         1         1         1         1
         1         1         1         1         1         1         1         1
         1         1         1         1         1         1         1         1
         1         1         1         1         1         1         1         1
         1         1         1         1         1         1         1         1
         1         1         1         1         1         1         1         1
         1         1         1         1         1         1         1         1
         1         1         1         1         1         1         1         1
         1         1         1         1         1         1         1         1
         1         1         1         1         1         1         1         1
         1         1         1         1         1         1         1         1
         1         1         1         1         1         1         1         1
         1         1         1         1         1         1         1         1
         1         1         1         1         1         1         1         1
         1         1         1         1         1         1         1         1
         1         1         1         1         1         1         1         1
         1         1         1         1         1         1         1         1
         1         1         1         1         1         1         1         1
         1         1         1         1         1         1         1         1
         1         1         1         1         1         1         1         1
         1         1         1         1         1         1         1         1
         1         1         1         1         1         1         1         1
         1         1         1         1         1         1         1         1
         1         1         1         1         1         1         1         1
         1         1         1         1         1         1         1         1
         1         1         1         1         1         1         1         1
         1         1         1         1         1         1         1         1
         1         1         1         1         1         1         1         1
         1         1         1         1         1         1         1         1
         1         1         1         1         1         1         1         1
         1         1         1         1         1         1         1         1
         1         1         1         1         1         1         1         1
         1         1         1         1         1         1         1         1
         1         1         1         1         1         1         1         1
         1         1         1         1         1         1         1         1
         1         1         1         1         1         1         1         1
         1         1         1         1         1         1         1         1
         1         1         1         1         1         1         1         1
         1         1         1         1         1         1         1         1
         1         1         1         1         1         1         1         1
         1         1         1         1         1         1         1         1
         1         1         1         1         1         1         1         1
         1         1         1         1         1         1         1         1
         1         1         1         1         1         1         1         1
         1         1         1         1         1         1         1         1
         1         1         1         1         1         1         1         1
         1         1         1         1         1         1         1         1
         1         1         1         1         1         1         1         1
         1         1         1         1         1         1         1         1
         1         1         1         1         1         1         1         1
         1         1         1         1         1         1         1         1
         1         1         1         1         1         1         1         1
         1         1         1         1         1         1         1         1
         1         1         1         1         1         1         1         1
         1         1         1         1         1         1         1         1
         1         1         1         1         1         1         1         1
         1         1         1         1         1         1         1         1
         1         1         1         1         1         1         1         1
         1         1         1         1         1         1         1         1
         1         1         1         1         1         1         1         1
         1         1         1         1         1         1         1         1
         1         1         1         1         1         1         1         1
         1         1         1         1         1         1         1         1
         1         1         1         1         1         1         1         1
         1         1         1         1         1         1         1         1
         1         1         1         1         1         1         1         1
         1         1         1         1         1         1         1         1
         1         1         1         1         1         1         1         1
         1         1         1         1         1         1         1         1
         1         1         1         1         1         1         1         1
         1         1         1         1         1         1         1         1
         1         1         1         1         1         1         1         1
         1         1         1         1         1         1         1         1
         1         1         1         1         1         1         1         1
         1         1         1         1         1         1         1         1
         1         1         1         1         1         1         1         1
         1         1         1         1         1         1         1         1
         1         1         1         1         1         1         1         1
         1         1         1         1         1         1         1         1
         1         1         1         1         1         1         1         1
         1         1         1         1         1         1         1         1
         1         1         1         1         1         1         1         1
         1         1         1         1         1         1         1         1
         1         1         1         1         1         1         1         1
         1         1         1         1         1         1         1         1
         1         1         1         1         1         1         1         1
         1         1         1         1         1         1         1         1
         1         1         1         1         1         1         1         1
         1         1         1         1         1         1         1         1
         1         1         1         1         1         1         1         1
         1         1         1         1         1         1         1         1
         1         1         1         1         1         1         1         1
         1         1         1         1         1         1         1         1
         1         1         1         1         1         1         1         1
         1         1         1         1         1         1         1         1
         1         1         1         1         1         1         1         1
         1         1         1         1         1         1         1         1
         1         1         1         1         1         1         1         1
         1         1         1         1         1         1         1         1
         1         1         1         1         1         1         1         1
         1         1         1         1         1         1         1         1
         1         1         1         1         1         1         1         1
         1         1         1         1         1         1         1         1
         1         1         1         1         1         1         1         1
         1         1         1         1         1         1         1         1
         1         1         1         1         1         1         1         1
         1         1         1         1         1         1         1         1
         1         1         1         1         1         1         1         1
         1         1         1         1         1         1         1         1
         1         1         1         1         1         1         1         1
         1         1         1         1         1         1         1         1
         1         1         1         1         1         1         1         1
         1         1         1         1         1         1         1         1
         1         1         1         1         1         1         1         1
         1         1         1         1         1         1         1         1
         1         1         1         1         1         1         1         1
         1         1         1         1         1         1         1         1
         1         1         1         1         1         1         1         1
         1         1         1         1         1         1         1         1
         1         1         1         1         1         1         1         1
         1         1         1         1         1         1         1         1
         1         1         1         1         1         1         1         1
         1         1         1         1         1         1         1         1
         1         1         1         1         1         1         1         1
         1         1         1         1         1         1         1         1
         1         1         1         1         1         1         1         1
         1         1         1         1         1         1         1         1
         1         1         1         1         1         1         1         1
         1         1         1         1         1         1         1         1
         1         1         1         1         1         1         1         1
         1         1         1         1         1         1         1         1
         1         1         1         1         1         1         1         1
         1         1         1         1         1         1         1         1
         1         1         1         1         1         1         1         1
         1         1         1         1         1         1         1         1
         1         1         1         1         1         1         1         1
         1         1         1         1         1         1         1         1
         1         1         1         1         1         1         1         1
         1         1         1         1         1         1         1         1
         1         1         1         1         1         1         1         1
         1         1         1         1         1         1         1         1
         1         1         1         1         1         1         1         1
         1         1         1         1         1         1         1         1
         1         1         1         1         1         1         1         1
         1         1         1         1         1         1         1         1
         1         1         1         1         1         1         1         1
         1         1         1         1         1         1         1         1
         1         1         1         1         1         1         1         1
         1         1         1         1         1         1         1         1
         1         1         1         1         1         1         1         1
         1         1         1         1         1         1         1         1
         1         1         1         1         1         1         1         1
         1         1         1         1         1         1         1         1
         1         1         1         1         1         1         1         1
         1         1         1         1         1         1         1         1
         1         1         1         1         1         1         1         1
         1         1         1         1         1         1         1         1
         1         1         1         1         1         1         1         1
         1         1         1         1         1         1         1         1
         1         1         1         1         1         1         1         1
         1         1         1         1         1         1         1         1
         1         1         1         1         1         1         1         1
         1         1         1         1         1         1         1         1
         1         1         1         1         1         1         1         1
         1         1         1         1         1         1         1         1
         1         1         1         1         1         1         1         1
         1         1         1         1         1         1         1         1
         1         1         1         1         1         1         1         1
         1         1         1         1         1         1         1         1
         1         1         1         1         1         1         1         1
         1         1         1         1         1         1         1         1
         1         1         1         1         1         1         1         1
         1         1         1         1         1         1         1         1
         1         1         1         1         1         1         1         1
         1         1         1         1         1         1         1         1
         1         1         1         1         1         1         1         1
         1         1         1         1         1         1         1         1
         1         1         1         1         1         1         1         1
         1         1         1         1         1         1         1         1
         1         1         1         1         1         1         1         1
         1         1         1         1         1         1         1         1
         1         1         1         1         1         1         1         1
         1         1         1         1         1         1         1         1
         1         1         1         1         1         1         1         1
         1         1         1         1         1         1         1         1
         1         1         1         1         1         1         1         1
         1         1         1         1         1         1         1         1
         1         1         1         1         1         1         1         1
         1         1         1         1         1         1         1         1
         1         1         1         1         1         1         1         1
         1         1         1         1         1         1         1         1
         1         1         1         1         1         1         1         1
         1         1         1         1         1         1         1         1
         1         1         1         1         1         1         1         1
         1         1         1         1         1         1         1         1
         1         1         1         1         1         1         1         1
         1         1         1         1         1         1         1         1
         1         1         1         1         1         1         1         1
         1         1         1         1         1         1         1         1
         1         1         1         1         1         1         1         1
         1         1         1         1         1         1         1         1
         1         1         1         1         1         1         1         1
         1         1         1         1         1         1         1         1
         1         1         1         1         1         1         1         1
         1         1         1         1         1         1         1         1
         1         1         1         1         1         1         1         1
         1         1         1         1         1         1         1         1
         1         1         1         1         1         1         1         1
         1         1         1         1         1         1         1         1
         1         1         1         1         1         1         1         1
         1         1         1         1         1         1         1         1
         1         1         1         1         1         1         1         1
         1         1         1         1         1         1         1         1
         1         1         1         1         1         1         1         1
         1         1         1         1         1         1         1         1
         1         1         1         1         1         1         1         1
         1         1         1         1         1         1         1         1
         1         1         1         1         1         1         1         1
         1         1         1         1         1         1         1         1
         1         1         1         1         1         1         1         1
         1         1         1         1         1         1         1         1
         1         1         1         1         1         1         1         1
         1         1         1         1         1         1         1         1
         1         1         1         1         1         1

      3453     13812 !NUMLP NUMLPH
         3         1   F -0.300000       179.990       179.990    
         3         5   F -0.300000       179.990       179.990    
         3         9   F -0.300000       179.990       179.990    
         3        13   F -0.300000       179.990       179.990    
         3        17   F -0.300000       179.990       179.990    
         3        21   F -0.300000       179.990       179.990    
         3        25   F -0.300000       179.990       179.990    
         3        29   F -0.300000       179.990       179.990    
         3        33   F -0.300000       179.990       179.990    
         3        37   F -0.300000       179.990       179.990    
         3        41   F -0.300000       179.990       179.990    
         3        45   F -0.300000       179.990       179.990    
         3        49   F -0.300000       179.990       179.990    
         3        53   F -0.300000       179.990       179.990    
         3        57   F -0.300000       179.990       179.990    
         3        61   F -0.300000       179.990       179.990    
         3        65   F -0.300000       179.990       179.990    
         3        69   F -0.300000       179.990       179.990    
         3        73   F -0.300000       179.990       179.990    
         3        77   F -0.300000       179.990       179.990    
         3        81   F -0.300000       179.990       179.990    
         3        85   F -0.300000       179.990       179.990    
         3        89   F -0.300000       179.990       179.990    
         3        93   F -0.300000       179.990       179.990    
         3        97   F -0.300000       179.990       179.990    
         3       101   F -0.300000       179.990       179.990    
         3       105   F -0.300000       179.990       179.990    
         3       109   F -0.300000       179.990       179.990    
         3       113   F -0.300000       179.990       179.990    
         3       117   F -0.300000       179.990       179.990    
         3       121   F -0.300000       179.990       179.990    
         3       125   F -0.300000       179.990       179.990    
         3       129   F -0.300000       179.990       179.990    
         3       133   F  0.350000       110.000       0.00000    
         3       137   F  0.350000       110.000       180.000    
         3       141   F  0.350000       110.000       0.00000    
         3       145   F  0.350000       110.000       180.000    
         3       149   F  0.350000       110.000       0.00000    
         3       153   F  0.350000       110.000       180.000    
         3       157   F  0.350000       110.000       0.00000    
         3       161   F  0.350000       110.000       180.000    
         3       165   F  0.350000       110.000       0.00000    
         3       169   F  0.350000       110.000       180.000    
         3       173   F  0.350000       110.000       0.00000    
         3       177   F  0.350000       110.000       180.000    
         3       181   F  0.350000       110.000       0.00000    
         3       185   F  0.350000       110.000       180.000    
         3       189   F  0.350000       110.000       0.00000    
         3       193   F  0.350000       110.000       180.000    
         3       197   F  0.350000       110.000       0.00000    
         3       201   F  0.350000       110.000       180.000    
         3       205   F  0.350000       110.000       0.00000    
         3       209   F  0.350000       110.000       180.000    
         3       213   F  0.350000       110.000       0.00000    
         3       217   F  0.350000       110.000       180.000    
         3       221   F  0.350000       110.000       0.00000    
         3       225   F  0.350000       110.000       180.000    
         3       229   F  0.350000       110.000       0.00000    
         3       233   F  0.350000       110.000       180.000    
         3       237   F  0.350000       110.000       0.00000    
         3       241   F  0.350000       110.000       180.000    
         3       245   F  0.350000       110.000       0.00000    
         3       249   F  0.350000       110.000       180.000    
         3       253   F  0.350000       110.000       0.00000    
         3       257   F  0.350000       110.000       180.000    
         3       261   F  0.350000       110.000       0.00000    
         3       265   F  0.350000       110.000       180.000    
         3       269   F  0.350000       110.000       0.00000    
         3       273   F  0.350000       110.000       180.000    
         3       277   F  0.350000       110.000       0.00000    
         3       281   F  0.350000       110.000       180.000    
         3       285   F  0.350000       110.000       0.00000    
         3       289   F  0.350000       110.000       180.000    
         3       293   F  0.350000       110.000       0.00000    
         3       297   F  0.350000       110.000       180.000    
         3       301   F  0.350000       110.000       0.00000    
         3       305   F  0.350000       110.000       180.000    
         3       309   F  0.350000       110.000       0.00000    
         3       313   F  0.350000       110.000       180.000    
         3       317   F  0.350000       110.000       0.00000    
         3       321   F  0.350000       110.000       180.000    
         3       325   F  0.350000       110.000       0.00000    
         3       329   F  0.350000       110.000       180.000    
         3       333   F  0.350000       110.000       0.00000    
         3       337   F  0.350000       110.000       180.000    
         3       341   F  0.350000       110.000       0.00000    
         3       345   F  0.350000       110.000       180.000    
         3       349   F  0.350000       110.000       0.00000    
         3       353   F  0.350000       110.000       180.000    
         3       357   F  0.350000       110.000       0.00000    
         3       361   F  0.350000       110.000       180.000    
         3       365   F  0.350000       110.000       0.00000    
         3       369   F  0.350000       110.000       180.000    
         3       373   F  0.350000       110.000       0.00000    
         3       377   F  0.350000       110.000       180.000    
         3       381   F  0.350000       110.000       0.00000    
         3       385   F  0.350000       110.000       180.000    
         3       389   F  0.350000       110.000       0.00000    
         3       393   F  0.350000       110.000       180.000    
         3       397   F  0.350000       110.000       0.00000    
         3       401   F  0.350000       110.000       180.000    
         3       405   F  0.350000       110.000       0.00000    
         3       409   F  0.350000       110.000       180.000    
         3       413   F  0.350000       110.000       0.00000    
         3       417   F  0.350000       110.000       180.000    
         3       421   F  0.350000       110.000       0.00000    
         3       425   F  0.350000       110.000       180.000    
         3       429   F  0.350000       110.000       0.00000    
         3       433   F  0.350000       110.000       180.000    
         3       437   F  0.350000       110.000       0.00000    
         3       441   F  0.350000       110.000       180.000    
         3       445   F  0.350000       110.000       0.00000    
         3       449   F  0.350000       110.000       180.000    
         3       453   F  0.350000       110.000       0.00000    
         3       457   F  0.350000       110.000       180.000    
         3       461   F  0.350000       110.000       0.00000    
         3       465   F  0.350000       110.000       180.000    
         3       469   F  0.350000       110.000       0.00000    
         3       473   F  0.350000       110.000       180.000    
         3       477   F  0.350000       110.000       0.00000    
         3       481   F  0.350000       110.000       180.000    
         3       485   F  0.350000       110.000       0.00000    
         3       489   F  0.350000       110.000       180.000    
         3       493   F  0.350000       110.000       0.00000    
         3       497   F  0.350000       110.000       180.000    
         3       501   F  0.350000       110.000       0.00000    
         3       505   F  0.350000       110.000       180.000    
         3       509   F  0.350000       110.000       0.00000    
         3       513   F  0.350000       110.000       180.000    
         3       517   F  0.350000       110.000       0.00000    
         3       521   F  0.350000       110.000       180.000    
         3       525   F  0.350000       110.000       0.00000    
         3       529   F  0.350000       110.000       180.000    
         3       533   F  0.350000       110.000       0.00000    
         3       537   F  0.350000       110.000       180.000    
         3       541   F  0.350000       110.000       0.00000    
         3       545   F  0.350000       110.000       180.000    
         3       549   F  0.350000       110.000       0.00000    
         3       553   F  0.350000       110.000       180.000    
         3       557   F  0.350000       110.000       0.00000    
         3       561   F  0.350000       110.000       180.000    
         3       565   F  0.350000       110.000       0.00000    
         3       569   F  0.350000       110.000       180.000    
         3       573   F  0.350000       110.000       0.00000    
         3       577   F  0.350000       110.000       180.000    
         3       581   F  0.350000       110.000       0.00000    
         3       585   F  0.350000       110.000       180.000    
         3       589   F  0.350000       110.000       0.00000    
         3       593   F  0.350000       110.000       180.000    
         3       597   F  0.350000       110.000       0.00000    
         3       601   F  0.350000       110.000       180.000    
         3       605   F  0.350000       110.000       0.00000    
         3       609   F  0.350000       110.000       180.000    
         3       613   F  0.350000       110.000       0.00000    
         3       617   F  0.350000       110.000       180.000    
         3       621   F  0.350000       110.000       0.00000    
         3       625   F  0.350000       110.000       180.000    
         3       629   F  0.350000       110.000       0.00000    
         3       633   F  0.350000       110.000       180.000    
         3       637   F  0.350000       110.000       0.00000    
         3       641   F  0.350000       110.000       180.000    
         3       645   F  0.350000       110.000       0.00000    
         3       649   F  0.350000       110.000       180.000    
         3       653   F  0.350000       110.000       0.00000    
         3       657   F  0.350000       110.000       180.000    
         3       661   F -0.300000       179.990       179.990    
         3       665   F -0.300000       179.990       179.990    
         3       669   F -0.300000       179.990       179.990    
         3       673   F -0.300000       179.990       179.990    
         3       677   F -0.300000       179.990       179.990    
         3       681   F -0.300000       179.990       179.990    
         3       685   F -0.300000       179.990       179.990    
         3       689   F -0.300000       179.990       179.990    
         3       693   F -0.300000       179.990       179.990    
         3       697   F -0.300000       179.990       179.990    
         3       701   F -0.300000       179.990       179.990    
         3       705   F -0.300000       179.990       179.990    
         3       709   F -0.300000       179.990       179.990    
         3       713   F -0.300000       179.990       179.990    
         3       717   F -0.300000       179.990       179.990    
         3       721   F -0.300000       179.990       179.990    
         3       725   F -0.300000       179.990       179.990    
         3       729   F -0.300000       179.990       179.990    
         3       733   F -0.300000       179.990       179.990    
         3       737   F -0.300000       179.990       179.990    
         3       741   F -0.300000       179.990       179.990    
         3       745   F -0.300000       179.990       179.990    
         3       749   F -0.300000       179.990       179.990    
         3       753   F -0.300000       179.990       179.990    
         3       757   F -0.300000       179.990       179.990    
         3       761   F -0.300000       179.990       179.990    
         3       765   F -0.300000       179.990       179.990    
         3       769   F -0.300000       179.990       179.990    
         3       773   F -0.300000       179.990       179.990    
         3       777   F -0.300000       179.990       179.990    
         3       781   F -0.300000       179.990       179.990    
         3       785   F -0.300000       179.990       179.990    
         3       789   F -0.300000       179.990       179.990    
         3       793   F -0.300000       179.990       179.990    
         3       797   F -0.300000       179.990       179.990    
         3       801   F -0.300000       179.990       179.990    
         3       805   F -0.300000       179.990       179.990    
         3       809   F -0.300000       179.990       179.990    
         3       813   F -0.300000       179.990       179.990    
         3       817   F -0.300000       179.990       179.990    
         3       821   F -0.300000       179.990       179.990    
         3       825   F -0.300000       179.990       179.990    
         3       829   F -0.300000       179.990       179.990    
         3       833   F -0.300000       179.990       179.990    
         3       837   F -0.300000       179.990       179.990    
         3       841   F -0.300000       179.990       179.990    
         3       845   F -0.300000       179.990       179.990    
         3       849   F -0.300000       179.990       179.990    
         3       853   F -0.300000       179.990       179.990    
         3       857   F -0.300000       179.990       179.990    
         3       861   F -0.300000       179.990       179.990    
         3       865   F -0.300000       179.990       179.990    
         3       869   F -0.300000       179.990       179.990    
         3       873   F -0.300000       179.990       179.990    
         3       877   F -0.300000       179.990       179.990    
         3       881   F -0.300000       179.990       179.990    
         3       885   F -0.300000       179.990       179.990    
         3       889   F -0.300000       179.990       179.990    
         3       893   F -0.300000       179.990       179.990    
         3       897   F -0.300000       179.990       179.990    
         3       901   F -0.300000       179.990       179.990    
         3       905   F -0.300000       179.990       179.990    
         3       909   F -0.300000       179.990       179.990    
         3       913   F -0.300000       179.990       179.990    
         3       917   F -0.300000       179.990       179.990    
         3       921   F -0.300000       179.990       179.990    
         3       925   F -0.300000       179.990       179.990    
         3       929   F -0.300000       179.990       179.990    
         3       933   F -0.300000       179.990       179.990    
         3       937   F -0.300000       179.990       179.990    
         3       941   F -0.300000       179.990       179.990    
         3       945   F -0.300000       179.990       179.990    
         3       949   F -0.300000       179.990       179.990    
         3       953   F -0.300000       179.990       179.990    
         3       957   F -0.300000       179.990       179.990    
         3       961   F -0.300000       179.990       179.990    
         3       965   F -0.300000       179.990       179.990    
         3       969   F -0.300000       179.990       179.990    
         3       973   F  0.300000       91.0000       0.00000    
         3       977   F  0.300000       91.0000       180.000    
         3       981   F  0.350000       110.900       91.0000    
         3       985   F  0.350000       110.900       269.000    
         3       989   F  0.300000       91.0000       0.00000    
         3       993   F  0.300000       91.0000       180.000    
         3       997   F  0.350000       110.900       91.0000    
         3      1001   F  0.350000       110.900       269.000    
         3      1005   F  0.300000       91.0000       0.00000    
         3      1009   F  0.300000       91.0000       180.000    
         3      1013   F  0.350000       110.900       91.0000    
         3      1017   F  0.350000       110.900       269.000    
         3      1021   F  0.300000       91.0000       0.00000    
         3      1025   F  0.300000       91.0000       180.000    
         3      1029   F  0.350000       110.900       91.0000    
         3      1033   F  0.350000       110.900       269.000    
         3      1037   F  0.300000       91.0000       0.00000    
         3      1041   F  0.300000       91.0000       180.000    
         3      1045   F  0.350000       110.900       91.0000    
         3      1049   F  0.350000       110.900       269.000    
         3      1053   F  0.300000       91.0000       0.00000    
         3      1057   F  0.300000       91.0000       180.000    
         3      1061   F  0.350000       110.900       91.0000    
         3      1065   F  0.350000       110.900       269.000    
         3      1069   F  0.300000       91.0000       0.00000    
         3      1073   F  0.300000       91.0000       180.000    
         3      1077   F  0.350000       110.900       91.0000    
         3      1081   F  0.350000       110.900       269.000    
         3      1085   F  0.300000       91.0000       0.00000    
         3      1089   F  0.300000       91.0000       180.000    
         3      1093   F  0.350000       110.900       91.0000    
         3      1097   F  0.350000       110.900       269.000    
         3      1101   F  0.300000       91.0000       0.00000    
         3      1105   F  0.300000       91.0000       180.000    
         3      1109   F  0.350000       110.900       91.0000    
         3      1113   F  0.350000       110.900       269.000    
         3      1117   F  0.300000       91.0000       0.00000    
         3      1121   F  0.300000       91.0000       180.000    
         3      1125   F  0.350000       110.900       91.0000    
         3      1129   F  0.350000       110.900       269.000    
         3      1133   F  0.300000       91.0000       0.00000    
         3      1137   F  0.300000       91.0000       180.000    
         3      1141   F  0.350000       110.900       91.0000    
         3      1145   F  0.350000       110.900       269.000    
         3      1149   F  0.300000       91.0000       0.00000    
         3      1153   F  0.300000       91.0000       180.000    
         3      1157   F  0.350000       110.900       91.0000    
         3      1161   F  0.350000       110.900       269.000    
         3      1165   F  0.300000       91.0000       0.00000    
         3      1169   F  0.300000       91.0000       180.000    
         3      1173   F  0.350000       110.900       91.0000    
         3      1177   F  0.350000       110.900       269.000    
         3      1181   F  0.300000       91.0000       0.00000    
         3      1185   F  0.300000       91.0000       180.000    
         3      1189   F  0.350000       110.900       91.0000    
         3      1193   F  0.350000       110.900       269.000    
         3      1197   F  0.300000       91.0000       0.00000    
         3      1201   F  0.300000       91.0000       180.000    
         3      1205   F  0.350000       110.900       91.0000    
         3      1209   F  0.350000       110.900       269.000    
         3      1213   F  0.300000       91.0000       0.00000    
         3      1217   F  0.300000       91.0000       180.000    
         3      1221   F  0.350000       110.900       91.0000    
         3      1225   F  0.350000       110.900       269.000    
         3      1229   F  0.300000       91.0000       0.00000    
         3      1233   F  0.300000       91.0000       180.000    
         3      1237   F  0.350000       110.900       91.0000    
         3      1241   F  0.350000       110.900       269.000    
         3      1245   F  0.300000       91.0000       0.00000    
         3      1249   F  0.300000       91.0000       180.000    
         3      1253   F  0.350000       110.900       91.0000    
         3      1257   F  0.350000       110.900       269.000    
         3      1261   F  0.300000       91.0000       0.00000    
         3      1265   F  0.300000       91.0000       180.000    
         3      1269   F  0.350000       110.900       91.0000    
         3      1273   F  0.350000       110.900       269.000    
         3      1277   F  0.300000       91.0000       0.00000    
         3      1281   F  0.300000       91.0000       180.000    
         3      1285   F  0.350000       110.900       91.0000    
         3      1289   F  0.350000       110.900       269.000    
         3      1293   F  0.300000       91.0000       0.00000    
         3      1297   F  0.300000       91.0000       180.000    
         3      1301   F  0.350000       110.900       91.0000    
         3      1305   F  0.350000       110.900       269.000    
         3      1309   F  0.300000       91.0000       0.00000    
         3      1313   F  0.300000       91.0000       180.000    
         3      1317   F  0.350000       110.900       91.0000    
         3      1321   F  0.350000       110.900       269.000    
         3      1325   F  0.300000       91.0000       0.00000    
         3      1329   F  0.300000       91.0000       180.000    
         3      1333   F  0.350000       110.900       91.0000    
         3      1337   F  0.350000       110.900       269.000    
         3      1341   F  0.300000       91.0000       0.00000    
         3      1345   F  0.300000       91.0000       180.000    
         3      1349   F  0.350000       110.900       91.0000    
         3      1353   F  0.350000       110.900       269.000    
         3      1357   F  0.300000       91.0000       0.00000    
         3      1361   F  0.300000       91.0000       180.000    
         3      1365   F  0.350000       110.900       91.0000    
         3      1369   F  0.350000       110.900       269.000    
         3      1373   F  0.300000       91.0000       0.00000    
         3      1377   F  0.300000       91.0000       180.000    
         3      1381   F  0.350000       110.900       91.0000    
         3      1385   F  0.350000       110.900       269.000    
         3      1389   F  0.300000       91.0000       0.00000    
         3      1393   F  0.300000       91.0000       180.000    
         3      1397   F  0.350000       110.900       91.0000    
         3      1401   F  0.350000       110.900       269.000    
         3      1405   F  0.300000       91.0000       0.00000    
         3      1409   F  0.300000       91.0000       180.000    
         3      1413   F  0.350000       110.900       91.0000    
         3      1417   F  0.350000       110.900       269.000    
         3      1421   F  0.300000       91.0000       0.00000    
         3      1425   F  0.300000       91.0000       180.000    
         3      1429   F  0.350000       110.900       91.0000    
         3      1433   F  0.350000       110.900       269.000    
         3      1437   F  0.300000       91.0000       0.00000    
         3      1441   F  0.300000       91.0000       180.000    
         3      1445   F  0.350000       110.900       91.0000    
         3      1449   F  0.350000       110.900       269.000    
         3      1453   F  0.300000       91.0000       0.00000    
         3      1457   F  0.300000       91.0000       180.000    
         3      1461   F  0.350000       110.900       91.0000    
         3      1465   F  0.350000       110.900       269.000    
         3      1469   F  0.300000       91.0000       0.00000    
         3      1473   F  0.300000       91.0000       180.000    
         3      1477   F  0.350000       110.900       91.0000    
         3      1481   F  0.350000       110.900       269.000    
         3      1485   F  0.300000       91.0000       0.00000    
         3      1489   F  0.300000       91.0000       180.000    
         3      1493   F  0.350000       110.900       91.0000    
         3      1497   F  0.350000       110.900       269.000    
         3      1501   F  0.300000       91.0000       0.00000    
         3      1505   F  0.300000       91.0000       180.000    
         3      1509   F  0.350000       110.900       91.0000    
         3      1513   F  0.350000       110.900       269.000    
         3      1517   F  0.300000       91.0000       0.00000    
         3      1521   F  0.300000       91.0000       180.000    
         3      1525   F  0.350000       110.900       91.0000    
         3      1529   F  0.350000       110.900       269.000    
         3      1533   F  0.300000       91.0000       0.00000    
         3      1537   F  0.300000       91.0000       180.000    
         3      1541   F  0.350000       110.900       91.0000    
         3      1545   F  0.350000       110.900       269.000    
         3      1549   F  0.300000       91.0000       0.00000    
         3      1553   F  0.300000       91.0000       180.000    
         3      1557   F  0.350000       110.900       91.0000    
         3      1561   F  0.350000       110.900       269.000    
         3      1565   F  0.300000       91.0000       0.00000    
         3      1569   F  0.300000       91.0000       180.000    
         3      1573   F  0.350000       110.900       91.0000    
         3      1577   F  0.350000       110.900       269.000    
         3      1581   F  0.300000       91.0000       0.00000    
         3      1585   F  0.300000       91.0000       180.000    
         3      1589   F  0.350000       110.900       91.0000    
         3      1593   F  0.350000       110.900       269.000    
         3      1597   F  0.300000       91.0000       0.00000    
         3      1601   F  0.300000       91.0000       180.000    
         3      1605   F  0.350000       110.900       91.0000    
         3      1609   F  0.350000       110.900       269.000    
         3      1613   F  0.300000       91.0000       0.00000    
         3      1617   F  0.300000       91.0000       180.000    
         3      1621   F  0.350000       110.900       91.0000    
         3      1625   F  0.350000       110.900       269.000    
         3      1629   F  0.300000       91.0000       0.00000    
         3      1633   F  0.300000       91.0000       180.000    
         3      1637   F  0.350000       110.900       91.0000    
         3      1641   F  0.350000       110.900       269.000    
         3      1645   F  0.300000       91.0000       0.00000    
         3      1649   F  0.300000       91.0000       180.000    
         3      1653   F  0.350000       110.900       91.0000    
         3      1657   F  0.350000       110.900       269.000    
         3      1661   F  0.300000       91.0000       0.00000    
         3      1665   F  0.300000       91.0000       180.000    
         3      1669   F  0.350000       110.900       91.0000    
         3      1673   F  0.350000       110.900       269.000    
         3      1677   F  0.300000       91.0000       0.00000    
         3      1681   F  0.300000       91.0000       180.000    
         3      1685   F  0.350000       110.900       91.0000    
         3      1689   F  0.350000       110.900       269.000    
         3      1693   F  0.300000       91.0000       0.00000    
         3      1697   F  0.300000       91.0000       180.000    
         3      1701   F  0.350000       110.900       91.0000    
         3      1705   F  0.350000       110.900       269.000    
         3      1709   F  0.300000       91.0000       0.00000    
         3      1713   F  0.300000       91.0000       180.000    
         3      1717   F  0.350000       110.900       91.0000    
         3      1721   F  0.350000       110.900       269.000    
         3      1725   F  0.300000       91.0000       0.00000    
         3      1729   F  0.300000       91.0000       180.000    
         3      1733   F  0.350000       110.900       91.0000    
         3      1737   F  0.350000       110.900       269.000    
         3      1741   F  0.300000       91.0000       0.00000    
         3      1745   F  0.300000       91.0000       180.000    
         3      1749   F  0.350000       110.900       91.0000    
         3      1753   F  0.350000       110.900       269.000    
         3      1757   F  0.300000       91.0000       0.00000    
         3      1761   F  0.300000       91.0000       180.000    
         3      1765   F  0.350000       110.900       91.0000    
         3      1769   F  0.350000       110.900       269.000    
         3      1773   F  0.300000       91.0000       0.00000    
         3      1777   F  0.300000       91.0000       180.000    
         3      1781   F  0.350000       110.900       91.0000    
         3      1785   F  0.350000       110.900       269.000    
         3      1789   F  0.300000       91.0000       0.00000    
         3      1793   F  0.300000       91.0000       180.000    
         3      1797   F  0.350000       110.900       91.0000    
         3      1801   F  0.350000       110.900       269.000    
         3      1805   F  0.300000       91.0000       0.00000    
         3      1809   F  0.300000       91.0000       180.000    
         3      1813   F  0.350000       110.900       91.0000    
         3      1817   F  0.350000       110.900       269.000    
         3      1821   F  0.300000       91.0000       0.00000    
         3      1825   F  0.300000       91.0000       180.000    
         3      1829   F  0.350000       110.900       91.0000    
         3      1833   F  0.350000       110.900       269.000    
         3      1837   F  0.300000       91.0000       0.00000    
         3      1841   F  0.300000       91.0000       180.000    
         3      1845   F  0.350000       110.900       91.0000    
         3      1849   F  0.350000       110.900       269.000    
         3      1853   F  0.300000       91.0000       0.00000    
         3      1857   F  0.300000       91.0000       180.000    
         3      1861   F  0.350000       110.900       91.0000    
         3      1865   F  0.350000       110.900       269.000    
         3      1869   F  0.300000       91.0000       0.00000    
         3      1873   F  0.300000       91.0000       180.000    
         3      1877   F  0.350000       110.900       91.0000    
         3      1881   F  0.350000       110.900       269.000    
         3      1885   F  0.300000       91.0000       0.00000    
         3      1889   F  0.300000       91.0000       180.000    
         3      1893   F  0.350000       110.900       91.0000    
         3      1897   F  0.350000       110.900       269.000    
         3      1901   F  0.300000       91.0000       0.00000    
         3      1905   F  0.300000       91.0000       180.000    
         3      1909   F  0.350000       110.900       91.0000    
         3      1913   F  0.350000       110.900       269.000    
         3      1917   F  0.300000       91.0000       0.00000    
         3      1921   F  0.300000       91.0000       180.000    
         3      1925   F  0.350000       110.900       91.0000    
         3      1929   F  0.350000       110.900       269.000    
         3      1933   F  0.300000       91.0000       0.00000    
         3      1937   F  0.300000       91.0000       180.000    
         3      1941   F  0.350000       110.900       91.0000    
         3      1945   F  0.350000       110.900       269.000    
         3      1949   F  0.300000       91.0000       0.00000    
         3      1953   F  0.300000       91.0000       180.000    
         3      1957   F  0.350000       110.900       91.0000    
         3      1961   F  0.350000       110.900       269.000    
         3      1965   F  0.300000       91.0000       0.00000    
         3      1969   F  0.300000       91.0000       180.000    
         3      1973   F  0.350000       110.900       91.0000    
         3      1977   F  0.350000       110.900       269.000    
         3      1981   F  0.300000       91.0000       0.00000    
         3      1985   F  0.300000       91.0000       180.000    
         3      1989   F  0.350000       110.900       91.0000    
         3      1993   F  0.350000       110.900       269.000    
         3      1997   F  0.300000       91.0000       0.00000    
         3      2001   F  0.300000       91.0000       180.000    
         3      2005   F  0.350000       110.900       91.0000    
         3      2009   F  0.350000       110.900       269.000    
         3      2013   F  0.300000       91.0000       0.00000    
         3      2017   F  0.300000       91.0000       180.000    
         3      2021   F  0.350000       110.900       91.0000    
         3      2025   F  0.350000       110.900       269.000    
         3      2029   F  0.300000       91.0000       0.00000    
         3      2033   F  0.300000       91.0000       180.000    
         3      2037   F  0.350000       110.900       91.0000    
         3      2041   F  0.350000       110.900       269.000    
         3      2045   F  0.300000       91.0000       0.00000    
         3      2049   F  0.300000       91.0000       180.000    
         3      2053   F  0.350000       110.900       91.0000    
         3      2057   F  0.350000       110.900       269.000    
         3      2061   F  0.300000       91.0000       0.00000    
         3      2065   F  0.300000       91.0000       180.000    
         3      2069   F  0.350000       110.900       91.0000    
         3      2073   F  0.350000       110.900       269.000    
         3      2077   F  0.300000       91.0000       0.00000    
         3      2081   F  0.300000       91.0000       180.000    
         3      2085   F  0.350000       110.900       91.0000    
         3      2089   F  0.350000       110.900       269.000    
         3      2093   F  0.300000       91.0000       0.00000    
         3      2097   F  0.300000       91.0000       180.000    
         3      2101   F  0.350000       110.900       91.0000    
         3      2105   F  0.350000       110.900       269.000    
         3      2109   F  0.300000       91.0000       0.00000    
         3      2113   F  0.300000       91.0000       180.000    
         3      2117   F  0.350000       110.900       91.0000    
         3      2121   F  0.350000       110.900       269.000    
         3      2125   F  0.300000       91.0000       0.00000    
         3      2129   F  0.300000       91.0000       180.000    
         3      2133   F  0.350000       110.900       91.0000    
         3      2137   F  0.350000       110.900       269.000    
         3      2141   F  0.300000       91.0000       0.00000    
         3      2145   F  0.300000       91.0000       180.000    
         3      2149   F  0.350000       110.900       91.0000    
         3      2153   F  0.350000       110.900       269.000    
         3      2157   F  0.300000       91.0000       0.00000    
         3      2161   F  0.300000       91.0000       180.000    
         3      2165   F  0.350000       110.900       91.0000    
         3      2169   F  0.350000       110.900       269.000    
         3      2173   F  0.300000       91.0000       0.00000    
         3      2177   F  0.300000       91.0000       180.000    
         3      2181   F  0.350000       110.900       91.0000    
         3      2185   F  0.350000       110.900       269.000    
         3      2189   F  0.300000       91.0000       0.00000    
         3      2193   F  0.300000       91.0000       180.000    
         3      2197   F  0.350000       110.900       91.0000    
         3      2201   F  0.350000       110.900       269.000    
         3      2205   F  0.300000       91.0000       0.00000    
         3      2209   F  0.300000       91.0000       180.000    
         3      2213   F  0.350000       110.900       91.0000    
         3      2217   F  0.350000       110.900       269.000    
         3      2221   F  0.300000       91.0000       0.00000    
         3      2225   F  0.300000       91.0000       180.000    
         3      2229   F  0.350000       110.900       91.0000    
         3      2233   F  0.350000       110.900       269.000    
         3      2237   F  0.300000       91.0000       0.00000    
         3      2241   F  0.300000       91.0000       180.000    
         3      2245   F  0.350000       110.900       91.0000    
         3      2249   F  0.350000       110.900       269.000    
         3      2253   F  0.300000       91.0000       0.00000    
         3      2257   F  0.300000       91.0000       180.000    
         3      2261   F  0.350000       110.900       91.0000    
         3      2265   F  0.350000       110.900       269.000    
         3      2269   F  0.300000       91.0000       0.00000    
         3      2273   F  0.300000       91.0000       180.000    
         3      2277   F  0.350000       110.900       91.0000    
         3      2281   F  0.350000       110.900       269.000    
         3      2285   F  0.300000       91.0000       0.00000    
         3      2289   F  0.300000       91.0000       180.000    
         3      2293   F  0.350000       110.900       91.0000    
         3      2297   F  0.350000       110.900       269.000    
         3      2301   F  0.300000       91.0000       0.00000    
         3      2305   F  0.300000       91.0000       180.000    
         3      2309   F  0.350000       110.900       91.0000    
         3      2313   F  0.350000       110.900       269.000    
         3      2317   F  0.350000       110.000       0.00000    
         3      2321   F  0.350000       110.000       180.000    
         3      2325   F  0.350000       110.000       0.00000    
         3      2329   F  0.350000       110.000       180.000    
         3      2333   F  0.350000       110.000       0.00000    
         3      2337   F  0.350000       110.000       180.000    
         3      2341   F  0.350000       110.000       0.00000    
         3      2345   F  0.350000       110.000       180.000    
         3      2349   F  0.350000       110.000       0.00000    
         3      2353   F  0.350000       110.000       180.000    
         3      2357   F  0.350000       110.000       0.00000    
         3      2361   F  0.350000       110.000       180.000    
         3      2365   F -0.350000       110.000       90.0000    
         3      2369   F -0.350000       110.000       270.000    
         3      2373   F  0.350000       110.000       0.00000    
         3      2377   F  0.350000       110.000       180.000    
         3      2381   F  0.350000       110.000       0.00000    
         3      2385   F  0.350000       110.000       180.000    
         3      2389   F  0.350000       110.000       0.00000    
         3      2393   F  0.350000       110.000       180.000    
         3      2397   F  0.350000       110.000       0.00000    
         3      2401   F  0.350000       110.000       180.000    
         3      2405   F  0.350000       110.000       0.00000    
         3      2409   F  0.350000       110.000       180.000    
         3      2413   F  0.350000       110.000       0.00000    
         3      2417   F  0.350000       110.000       180.000    
         3      2421   F  0.350000       110.000       0.00000    
         3      2425   F  0.350000       110.000       180.000    
         3      2429   F  0.350000       110.000       0.00000    
         3      2433   F  0.350000       110.000       180.000    
         3      2437   F  0.350000       110.000       0.00000    
         3      2441   F  0.350000       110.000       180.000    
         3      2445   F -0.350000       110.000       90.0000    
         3      2449   F -0.350000       110.000       270.000    
         3      2453   F  0.350000       110.000       0.00000    
         3      2457   F  0.350000       110.000       180.000    
         3      2461   F  0.350000       110.000       0.00000    
         3      2465   F  0.350000       110.000       180.000    
         3      2469   F  0.350000       110.000       0.00000    
         3      2473   F  0.350000       110.000       180.000    
         3      2477   F  0.350000       110.000       0.00000    
         3      2481   F  0.350000       110.000       180.000    
         3      2485   F  0.350000       110.000       0.00000    
         3      2489   F  0.350000       110.000       180.000    
         3      2493   F  0.350000       110.000       0.00000    
         3      2497   F  0.350000       110.000       180.000    
         3      2501   F  0.350000       110.000       0.00000    
         3      2505   F  0.350000       110.000       180.000    
         3      2509   F  0.350000       110.000       0.00000    
         3      2513   F  0.350000       110.000       180.000    
         3      2517   F  0.350000       110.000       0.00000    
         3      2521   F  0.350000       110.000       180.000    
         3      2525   F -0.350000       110.000       90.0000    
         3      2529   F -0.350000       110.000       270.000    
         3      2533   F  0.350000       110.000       0.00000    
         3      2537   F  0.350000       110.000       180.000    
         3      2541   F  0.350000       110.000       0.00000    
         3      2545   F  0.350000       110.000       180.000    
         3      2549   F  0.350000       110.000       0.00000    
         3      2553   F  0.350000       110.000       180.000    
         3      2557   F  0.350000       110.000       0.00000    
         3      2561   F  0.350000       110.000       180.000    
         3      2565   F  0.350000       110.000       0.00000    
         3      2569   F  0.350000       110.000       180.000    
         3      2573   F  0.350000       110.000       0.00000    
         3      2577   F  0.350000       110.000       180.000    
         3      2581   F  0.350000       110.000       0.00000    
         3      2585   F  0.350000       110.000       180.000    
         3      2589   F  0.350000       110.000       0.00000    
         3      2593   F  0.350000       110.000       180.000    
         3      2597   F  0.350000       110.000       0.00000    
         3      2601   F  0.350000       110.000       180.000    
         3      2605   F -0.350000       110.000       90.0000    
         3      2609   F -0.350000       110.000       270.000    
         3      2613   F  0.350000       110.000       0.00000    
         3      2617   F  0.350000       110.000       180.000    
         3      2621   F  0.350000       110.000       0.00000    
         3      2625   F  0.350000       110.000       180.000    
         3      2629   F  0.350000       110.000       0.00000    
         3      2633   F  0.350000       110.000       180.000    
         3      2637   F  0.350000       110.000       0.00000    
         3      2641   F  0.350000       110.000       180.000    
         3      2645   F  0.350000       110.000       0.00000    
         3      2649   F  0.350000       110.000       180.000    
         3      2653   F  0.350000       110.000       0.00000    
         3      2657   F  0.350000       110.000       180.000    
         3      2661   F  0.350000       110.000       0.00000    
         3      2665   F  0.350000       110.000       180.000    
         3      2669   F  0.350000       110.000       0.00000    
         3      2673   F  0.350000       110.000       180.000    
         3      2677   F  0.350000       110.000       0.00000    
         3      2681   F  0.350000       110.000       180.000    
         3      2685   F -0.350000       110.000       90.0000    
         3      2689   F -0.350000       110.000       270.000    
         3      2693   F  0.350000       110.000       0.00000    
         3      2697   F  0.350000       110.000       180.000    
         3      2701   F  0.350000       110.000       0.00000    
         3      2705   F  0.350000       110.000       180.000    
         3      2709   F  0.350000       110.000       0.00000    
         3      2713   F  0.350000       110.000       180.000    
         3      2717   F  0.350000       110.000       0.00000    
         3      2721   F  0.350000       110.000       180.000    
         3      2725   F  0.350000       110.000       0.00000    
         3      2729   F  0.350000       110.000       180.000    
         3      2733   F  0.350000       110.000       0.00000    
         3      2737   F  0.350000       110.000       180.000    
         3      2741   F  0.350000       110.000       0.00000    
         3      2745   F  0.350000       110.000       180.000    
         3      2749   F  0.350000       110.000       0.00000    
         3      2753   F  0.350000       110.000       180.000    
         3      2757   F  0.350000       110.000       0.00000    
         3      2761   F  0.350000       110.000       180.000    
         3      2765   F -0.350000       110.000       90.0000    
         3      2769   F -0.350000       110.000       270.000    
         3      2773   F  0.350000       110.000       0.00000    
         3      2777   F  0.350000       110.000       180.000    
         3      2781   F  0.350000       110.000       0.00000    
         3      2785   F  0.350000       110.000       180.000    
         3      2789   F  0.350000       110.000       0.00000    
         3      2793   F  0.350000       110.000       180.000    
         3      2797   F  0.350000       110.000       91.0000    
         3      2801   F  0.350000       110.000       269.000    
         3      2805   F  0.350000       110.000       91.0000    
         3      2809   F  0.350000       110.000       269.000    
         3      2813   F  0.350000       110.000       91.0000    
         3      2817   F  0.350000       110.000       269.000    
         3      2821   F  0.350000       110.000       91.0000    
         3      2825   F  0.350000       110.000       269.000    
         3      2829   F  0.350000       110.000       91.0000    
         3      2833   F  0.350000       110.000       269.000    
         3      2837   F  0.350000       110.000       91.0000    
         3      2841   F  0.350000       110.000       269.000    
         3      2845   F  0.350000       110.000       91.0000    
         3      2849   F  0.350000       110.000       269.000    
         3      2853   F  0.350000       110.000       91.0000    
         3      2857   F  0.350000       110.000       269.000    
         3      2861   F  0.350000       110.000       91.0000    
         3      2865   F  0.350000       110.000       269.000    
         3      2869   F  0.350000       110.000       91.0000    
         3      2873   F  0.350000       110.000       269.000    
         3      2877   F  0.350000       110.000       91.0000    
         3      2881   F  0.350000       110.000       269.000    
         3      2885   F  0.350000       110.000       91.0000    
         3      2889   F  0.350000       110.000       269.000    
         3      2893   F  0.350000       110.000       91.0000    
         3      2897   F  0.350000       110.000       269.000    
         3      2901   F  0.350000       110.000       91.0000    
         3      2905   F  0.350000       110.000       269.000    
         3      2909   F  0.350000       110.000       91.0000    
         3      2913   F  0.350000       110.000       269.000    
         3      2917   F  0.350000       110.000       91.0000    
         3      2921   F  0.350000       110.000       269.000    
         3      2925   F  0.350000       110.000       91.0000    
         3      2929   F  0.350000       110.000       269.000    
         3      2933   F  0.350000       110.000       91.0000    
         3      2937   F  0.350000       110.000       269.000    
         3      2941   F  0.350000       110.000       91.0000    
         3      2945   F  0.350000       110.000       269.000    
         3      2949   F  0.350000       110.000       91.0000    
         3      2953   F  0.350000       110.000       269.000    
         3      2957   F  0.350000       110.000       91.0000    
         3      2961   F  0.350000       110.000       269.000    
         3      2965   F  0.350000       110.000       91.0000    
         3      2969   F  0.350000       110.000       269.000    
         3      2973   F  0.350000       110.000       91.0000    
         3      2977   F  0.350000       110.000       269.000    
         3      2981   F  0.350000       110.000       91.0000    
         3      2985   F  0.350000       110.000       269.000    
         3      2989   F  0.350000       110.000       91.0000    
         3      2993   F  0.350000       110.000       269.000    
         3      2997   F  0.350000       110.000       91.0000    
         3      3001   F  0.350000       110.000       269.000    
         3      3005   F  0.350000       110.000       91.0000    
         3      3009   F  0.350000       110.000       269.000    
         3      3013   F  0.350000       110.000       91.0000    
         3      3017   F  0.350000       110.000       269.000    
         3      3021   F  0.350000       110.000       91.0000    
         3      3025   F  0.350000       110.000       269.000    
         3      3029   F  0.350000       110.000       91.0000    
         3      3033   F  0.350000       110.000       269.000    
         3      3037   F  0.350000       110.000       91.0000    
         3      3041   F  0.350000       110.000       269.000    
         3      3045   F  0.350000       110.000       91.0000    
         3      3049   F  0.350000       110.000       269.000    
         3      3053   F  0.350000       110.000       91.0000    
         3      3057   F  0.350000       110.000       269.000    
         3      3061   F  0.350000       110.000       91.0000    
         3      3065   F  0.350000       110.000       269.000    
         3      3069   F  0.350000       110.000       91.0000    
         3      3073   F  0.350000       110.000       269.000    
         3      3077   F  0.350000       110.000       91.0000    
         3      3081   F  0.350000       110.000       269.000    
         3      3085   F  0.350000       110.000       91.0000    
         3      3089   F  0.350000       110.000       269.000    
         3      3093   F  0.350000       110.000       91.0000    
         3      3097   F  0.350000       110.000       269.000    
         3      3101   F  0.350000       110.000       91.0000    
         3      3105   F  0.350000       110.000       269.000    
         3      3109   F  0.350000       110.000       91.0000    
         3      3113   F  0.350000       110.000       269.000    
         3      3117   F  0.350000       110.000       91.0000    
         3      3121   F  0.350000       110.000       269.000    
         3      3125   F  0.350000       110.000       91.0000    
         3      3129   F  0.350000       110.000       269.000    
         3      3133   F  0.350000       110.000       91.0000    
         3      3137   F  0.350000       110.000       269.000    
         3      3141   F  0.350000       110.000       91.0000    
         3      3145   F  0.350000       110.000       269.000    
         3      3149   F  0.350000       110.000       91.0000    
         3      3153   F  0.350000       110.000       269.000    
         3      3157   F  0.350000       110.000       91.0000    
         3      3161   F  0.350000       110.000       269.000    
         3      3165   F  0.350000       110.000       91.0000    
         3      3169   F  0.350000       110.000       269.000    
         3      3173   F  0.350000       110.000       91.0000    
         3      3177   F  0.350000       110.000       269.000    
         3      3181   F  0.350000       110.000       91.0000    
         3      3185   F  0.350000       110.000       269.000    
         3      3189   F  0.350000       110.000       91.0000    
         3      3193   F  0.350000       110.000       269.000    
         3      3197   F  0.350000       110.000       91.0000    
         3      3201   F  0.350000       110.000       269.000    
         3      3205   F  0.350000       110.000       91.0000    
         3      3209   F  0.350000       110.000       269.000    
         3      3213   F  0.350000       110.000       91.0000    
         3      3217   F  0.350000       110.000       269.000    
         3      3221   F  0.350000       110.000       91.0000    
         3      3225   F  0.350000       110.000       269.000    
         3      3229   F  0.350000       110.000       91.0000    
         3      3233   F  0.350000       110.000       269.000    
         3      3237   F  0.350000       110.000       91.0000    
         3      3241   F  0.350000       110.000       269.000    
         3      3245   F  0.350000       110.000       91.0000    
         3      3249   F  0.350000       110.000       269.000    
         3      3253   F  0.350000       110.000       91.0000    
         3      3257   F  0.350000       110.000       269.000    
         3      3261   F  0.350000       110.000       91.0000    
         3      3265   F  0.350000       110.000       269.000    
         3      3269   F  0.350000       110.000       91.0000    
         3      3273   F  0.350000       110.000       269.000    
         3      3277   F  0.350000       110.000       91.0000    
         3      3281   F  0.350000       110.000       269.000    
         3      3285   F  0.350000       110.000       91.0000    
         3      3289   F  0.350000       110.000       269.000    
         3      3293   F  0.350000       110.000       91.0000    
         3      3297   F  0.350000       110.000       269.000    
         3      3301   F  0.350000       110.000       91.0000    
         3      3305   F  0.350000       110.000       269.000    
         3      3309   F  0.350000       110.000       91.0000    
         3      3313   F  0.350000       110.000       269.000    
         3      3317   F  0.350000       110.000       91.0000    
         3      3321   F  0.350000       110.000       269.000    
         3      3325   F  0.350000       110.000       91.0000    
         3      3329   F  0.350000       110.000       269.000    
         3      3333   F  0.350000       110.000       91.0000    
         3      3337   F  0.350000       110.000       269.000    
         3      3341   F  0.350000       110.000       91.0000    
         3      3345   F  0.350000       110.000       269.000    
         3      3349   F  0.350000       110.000       91.0000    
         3      3353   F  0.350000       110.000       269.000    
         3      3357   F  0.350000       110.000       91.0000    
         3      3361   F  0.350000       110.000       269.000    
         3      3365   F  0.350000       110.000       91.0000    
         3      3369   F  0.350000       110.000       269.000    
         3      3373   F  0.350000       110.000       91.0000    
         3      3377   F  0.350000       110.000       269.000    
         3      3381   F  0.350000       110.000       91.0000    
         3      3385   F  0.350000       110.000       269.000    
         3      3389   F  0.350000       110.000       91.0000    
         3      3393   F  0.350000       110.000       269.000    
         3      3397   F  0.350000       110.000       91.0000    
         3      3401   F  0.350000       110.000       269.000    
         3      3405   F  0.350000       110.000       91.0000    
         3      3409   F  0.350000       110.000       269.000    
         3      3413   F  0.350000       110.000       91.0000    
         3      3417   F  0.350000       110.000       269.000    
         3      3421   F  0.350000       110.000       91.0000    
         3      3425   F  0.350000       110.000       269.000    
         3      3429   F  0.350000       110.000       91.0000    
         3      3433   F  0.350000       110.000       269.000    
         3      3437   F  0.350000       110.000       91.0000    
         3      3441   F  0.350000       110.000       269.000    
         3      3445   F  0.350000       110.000       91.0000    
         3      3449   F  0.350000       110.000       269.000    
         3      3453   F  0.350000       110.000       91.0000    
         3      3457   F  0.350000       110.000       269.000    
         3      3461   F  0.350000       110.000       91.0000    
         3      3465   F  0.350000       110.000       269.000    
         3      3469   F  0.350000       110.000       91.0000    
         3      3473   F  0.350000       110.000       269.000    
         3      3477   F  0.350000       110.000       91.0000    
         3      3481   F  0.350000       110.000       269.000    
         3      3485   F  0.350000       110.000       91.0000    
         3      3489   F  0.350000       110.000       269.000    
         3      3493   F  0.350000       110.000       91.0000    
         3      3497   F  0.350000       110.000       269.000    
         3      3501   F  0.350000       110.000       91.0000    
         3      3505   F  0.350000       110.000       269.000    
         3      3509   F  0.350000       110.000       91.0000    
         3      3513   F  0.350000       110.000       269.000    
         3      3517   F  0.350000       110.000       91.0000    
         3      3521   F  0.350000       110.000       269.000    
         3      3525   F  0.350000       110.000       91.0000    
         3      3529   F  0.350000       110.000       269.000    
         3      3533   F  0.350000       110.000       91.0000    
         3      3537   F  0.350000       110.000       269.000    
         3      3541   F  0.350000       110.000       91.0000    
         3      3545   F  0.350000       110.000       269.000    
         3      3549   F  0.350000       110.000       91.0000    
         3      3553   F  0.350000       110.000       269.000    
         3      3557   F  0.350000       110.000       91.0000    
         3      3561   F  0.350000       110.000       269.000    
         3      3565   F  0.350000       110.000       91.0000    
         3      3569   F  0.350000       110.000       269.000    
         3      3573   F  0.350000       110.000       91.0000    
         3      3577   F  0.350000       110.000       269.000    
         3      3581   F  0.350000       110.000       91.0000    
         3      3585   F  0.350000       110.000       269.000    
         3      3589   F  0.350000       110.000       91.0000    
         3      3593   F  0.350000       110.000       269.000    
         3      3597   F  0.350000       110.000       91.0000    
         3      3601   F  0.350000       110.000       269.000    
         3      3605   F  0.350000       110.000       91.0000    
         3      3609   F  0.350000       110.000       269.000    
         3      3613   F  0.350000       110.000       91.0000    
         3      3617   F  0.350000       110.000       269.000    
         3      3621   F  0.350000       110.000       91.0000    
         3      3625   F  0.350000       110.000       269.000    
         3      3629   F  0.350000       110.000       91.0000    
         3      3633   F  0.350000       110.000       269.000    
         3      3637   F  0.350000       110.000       91.0000    
         3      3641   F  0.350000       110.000       269.000    
         3      3645   F  0.350000       110.000       91.0000    
         3      3649   F  0.350000       110.000       269.000    
         3      3653   F  0.350000       110.000       91.0000    
         3      3657   F  0.350000       110.000       269.000    
         3      3661   F  0.350000       110.000       91.0000    
         3      3665   F  0.350000       110.000       269.000    
         3      3669   F  0.350000       110.000       91.0000    
         3      3673   F  0.350000       110.000       269.000    
         3      3677   F  0.350000       110.000       91.0000    
         3      3681   F  0.350000       110.000       269.000    
         3      3685   F  0.350000       110.000       91.0000    
         3      3689   F  0.350000       110.000       269.000    
         3      3693   F  0.350000       110.000       91.0000    
         3      3697   F  0.350000       110.000       269.000    
         3      3701   F  0.350000       110.000       91.0000    
         3      3705   F  0.350000       110.000       269.000    
         3      3709   F  0.350000       110.000       91.0000    
         3      3713   F  0.350000       110.000       269.000    
         3      3717   F  0.350000       110.000       91.0000    
         3      3721   F  0.350000       110.000       269.000    
         3      3725   F  0.350000       110.000       91.0000    
         3      3729   F  0.350000       110.000       269.000    
         3      3733   F  0.350000       110.000       91.0000    
         3      3737   F  0.350000       110.000       269.000    
         3      3741   F  0.350000       110.000       91.0000    
         3      3745   F  0.350000       110.000       269.000    
         3      3749   F  0.350000       110.000       91.0000    
         3      3753   F  0.350000       110.000       269.000    
         3      3757   F  0.350000       110.000       91.0000    
         3      3761   F  0.350000       110.000       269.000    
         3      3765   F  0.350000       110.000       91.0000    
         3      3769   F  0.350000       110.000       269.000    
         3      3773   F  0.350000       110.000       91.0000    
         3      3777   F  0.350000       110.000       269.000    
         3      3781   F  0.350000       110.000       91.0000    
         3      3785   F  0.350000       110.000       269.000    
         3      3789   F  0.350000       110.000       91.0000    
         3      3793   F  0.350000       110.000       269.000    
         3      3797   F  0.350000       110.000       91.0000    
         3      3801   F  0.350000       110.000       269.000    
         3      3805   F  0.350000       110.000       91.0000    
         3      3809   F  0.350000       110.000       269.000    
         3      3813   F  0.350000       110.000       91.0000    
         3      3817   F  0.350000       110.000       269.000    
         3      3821   F  0.350000       110.000       91.0000    
         3      3825   F  0.350000       110.000       269.000    
         3      3829   F  0.350000       110.000       91.0000    
         3      3833   F  0.350000       110.000       269.000    
         3      3837   F  0.350000       110.000       91.0000    
         3      3841   F  0.350000       110.000       269.000    
         3      3845   F  0.350000       110.000       91.0000    
         3      3849   F  0.350000       110.000       269.000    
         3      3853   F  0.350000       110.000       91.0000    
         3      3857   F  0.350000       110.000       269.000    
         3      3861   F  0.350000       110.000       91.0000    
         3      3865   F  0.350000       110.000       269.000    
         3      3869   F  0.350000       110.000       91.0000    
         3      3873   F  0.350000       110.000       269.000    
         3      3877   F  0.350000       110.000       91.0000    
         3      3881   F  0.350000       110.000       269.000    
         3      3885   F  0.350000       110.000       91.0000    
         3      3889   F  0.350000       110.000       269.000    
         3      3893   F  0.350000       110.000       91.0000    
         3      3897   F  0.350000       110.000       269.000    
         3      3901   F  0.350000       110.000       91.0000    
         3      3905   F  0.350000       110.000       269.000    
         3      3909   F  0.350000       110.000       91.0000    
         3      3913   F  0.350000       110.000       269.000    
         3      3917   F  0.350000       110.000       91.0000    
         3      3921   F  0.350000       110.000       269.000    
         3      3925   F  0.350000       110.000       91.0000    
         3      3929   F  0.350000       110.000       269.000    
         3      3933   F  0.350000       110.000       91.0000    
         3      3937   F  0.350000       110.000       269.000    
         3      3941   F  0.350000       110.000       91.0000    
         3      3945   F  0.350000       110.000       269.000    
         3      3949   F  0.350000       110.000       91.0000    
         3      3953   F  0.350000       110.000       269.000    
         3      3957   F  0.350000       110.000       91.0000    
         3      3961   F  0.350000       110.000       269.000    
         3      3965   F  0.350000       110.000       91.0000    
         3      3969   F  0.350000       110.000       269.000    
         3      3973   F  0.350000       110.000       91.0000    
         3      3977   F  0.350000       110.000       269.000    
         3      3981   F  0.350000       110.000       91.0000    
         3      3985   F  0.350000       110.000       269.000    
         3      3989   F  0.350000       110.000       91.0000    
         3      3993   F  0.350000       110.000       269.000    
         3      3997   F  0.350000       110.000       91.0000    
         3      4001   F  0.350000       110.000       269.000    
         3      4005   F  0.350000       110.000       91.0000    
         3      4009   F  0.350000       110.000       269.000    
         3      4013   F  0.350000       110.000       91.0000    
         3      4017   F  0.350000       110.000       269.000    
         3      4021   F  0.350000       110.000       91.0000    
         3      4025   F  0.350000       110.000       269.000    
         3      4029   F  0.350000       110.000       91.0000    
         3      4033   F  0.350000       110.000       269.000    
         3      4037   F  0.350000       110.000       91.0000    
         3      4041   F  0.350000       110.000       269.000    
         3      4045   F  0.350000       110.000       91.0000    
         3      4049   F  0.350000       110.000       269.000    
         3      4053   F  0.350000       110.000       91.0000    
         3      4057   F  0.350000       110.000       269.000    
         3      4061   F  0.350000       110.000       91.0000    
         3      4065   F  0.350000       110.000       269.000    
         3      4069   F  0.350000       110.000       91.0000    
         3      4073   F  0.350000       110.000       269.000    
         3      4077   F  0.350000       110.000       91.0000    
         3      4081   F  0.350000       110.000       269.000    
         3      4085   F  0.350000       110.000       91.0000    
         3      4089   F  0.350000       110.000       269.000    
         3      4093   F  0.350000       110.000       91.0000    
         3      4097   F  0.350000       110.000       269.000    
         3      4101   F  0.350000       110.000       91.0000    
         3      4105   F  0.350000       110.000       269.000    
         3      4109   F  0.350000       110.000       91.0000    
         3      4113   F  0.350000       110.000       269.000    
         3      4117   F  0.350000       110.000       91.0000    
         3      4121   F  0.350000       110.000       269.000    
         3      4125   F  0.350000       110.000       91.0000    
         3      4129   F  0.350000       110.000       269.000    
         3      4133   F  0.350000       110.000       91.0000    
         3      4137   F  0.350000       110.000       269.000    
         3      4141   F  0.350000       110.000       91.0000    
         3      4145   F  0.350000       110.000       269.000    
         3      4149   F  0.350000       110.000       91.0000    
         3      4153   F  0.350000       110.000       269.000    
         3      4157   F  0.350000       110.000       91.0000    
         3      4161   F  0.350000       110.000       269.000    
         3      4165   F  0.350000       110.000       91.0000    
         3      4169   F  0.350000       110.000       269.000    
         3      4173   F  0.350000       110.000       91.0000    
         3      4177   F  0.350000       110.000       269.000    
         3      4181   F  0.350000       110.000       91.0000    
         3      4185   F  0.350000       110.000       269.000    
         3      4189   F  0.350000       110.000       91.0000    
         3      4193   F  0.350000       110.000       269.000    
         3      4197   F  0.350000       110.000       91.0000    
         3      4201   F  0.350000       110.000       269.000    
         3      4205   F  0.350000       110.000       91.0000    
         3      4209   F  0.350000       110.000       269.000    
         3      4213   F  0.350000       110.000       91.0000    
         3      4217   F  0.350000       110.000       269.000    
         3      4221   F  0.350000       110.000       91.0000    
         3      4225   F  0.350000       110.000       269.000    
         3      4229   F  0.350000       110.000       91.0000    
         3      4233   F  0.350000       110.000       269.000    
         3      4237   F  0.350000       110.000       91.0000    
         3      4241   F  0.350000       110.000       269.000    
         3      4245   F  0.350000       110.000       91.0000    
         3      4249   F  0.350000       110.000       269.000    
         3      4253   F  0.350000       110.000       91.0000    
         3      4257   F  0.350000       110.000       269.000    
         3      4261   F  0.350000       110.000       91.0000    
         3      4265   F  0.350000       110.000       269.000    
         3      4269   F  0.350000       110.000       91.0000    
         3      4273   F  0.350000       110.000       269.000    
         3      4277   F  0.350000       110.000       91.0000    
         3      4281   F  0.350000       110.000       269.000    
         3      4285   F  0.350000       110.000       91.0000    
         3      4289   F  0.350000       110.000       269.000    
         3      4293   F  0.350000       110.000       91.0000    
         3      4297   F  0.350000       110.000       269.000    
         3      4301   F  0.350000       110.000       91.0000    
         3      4305   F  0.350000       110.000       269.000    
         3      4309   F  0.350000       110.000       91.0000    
         3      4313   F  0.350000       110.000       269.000    
         3      4317   F  0.350000       110.000       91.0000    
         3      4321   F  0.350000       110.000       269.000    
         3      4325   F  0.350000       110.000       91.0000    
         3      4329   F  0.350000       110.000       269.000    
         3      4333   F  0.350000       110.000       91.0000    
         3      4337   F  0.350000       110.000       269.000    
         3      4341   F  0.350000       110.000       91.0000    
         3      4345   F  0.350000       110.000       269.000    
         3      4349   F  0.350000       110.000       91.0000    
         3      4353   F  0.350000       110.000       269.000    
         3      4357   F  0.350000       110.000       91.0000    
         3      4361   F  0.350000       110.000       269.000    
         3      4365   F  0.350000       110.000       91.0000    
         3      4369   F  0.350000       110.000       269.000    
         3      4373   F  0.350000       110.000       91.0000    
         3      4377   F  0.350000       110.000       269.000    
         3      4381   F  0.350000       110.000       91.0000    
         3      4385   F  0.350000       110.000       269.000    
         3      4389   F  0.350000       110.000       91.0000    
         3      4393   F  0.350000       110.000       269.000    
         3      4397   F  0.350000       110.000       91.0000    
         3      4401   F  0.350000       110.000       269.000    
         3      4405   F  0.350000       110.000       91.0000    
         3      4409   F  0.350000       110.000       269.000    
         3      4413   F  0.350000       110.000       91.0000    
         3      4417   F  0.350000       110.000       269.000    
         3      4421   F  0.350000       110.000       91.0000    
         3      4425   F  0.350000       110.000       269.000    
         3      4429   F  0.350000       110.000       91.0000    
         3      4433   F  0.350000       110.000       269.000    
         3      4437   F  0.350000       110.000       91.0000    
         3      4441   F  0.350000       110.000       269.000    
         3      4445   F  0.350000       110.000       91.0000    
         3      4449   F  0.350000       110.000       269.000    
         3      4453   F  0.350000       110.000       91.0000    
         3      4457   F  0.350000       110.000       269.000    
         3      4461   F  0.350000       110.000       91.0000    
         3      4465   F  0.350000       110.000       269.000    
         3      4469   F  0.350000       110.000       91.0000    
         3      4473   F  0.350000       110.000       269.000    
         3      4477   F  0.350000       110.000       91.0000    
         3      4481   F  0.350000       110.000       269.000    
         3      4485   F  0.350000       110.000       91.0000    
         3      4489   F  0.350000       110.000       269.000    
         3      4493   F  0.350000       110.000       91.0000    
         3      4497   F  0.350000       110.000       269.000    
         3      4501   F  0.350000       110.000       91.0000    
         3      4505   F  0.350000       110.000       269.000    
         3      4509   F  0.350000       110.000       91.0000    
         3      4513   F  0.350000       110.000       269.000    
         3      4517   F  0.350000       110.000       91.0000    
         3      4521   F  0.350000       110.000       269.000    
         3      4525   F  0.350000       110.000       91.0000    
         3      4529   F  0.350000       110.000       269.000    
         3      4533   F  0.350000       110.000       91.0000    
         3      4537   F  0.350000       110.000       269.000    
         3      4541   F  0.350000       110.000       91.0000    
         3      4545   F  0.350000       110.000       269.000    
         3      4549   F  0.350000       110.000       91.0000    
         3      4553   F  0.350000       110.000       269.000    
         3      4557   F  0.350000       110.000       91.0000    
         3      4561   F  0.350000       110.000       269.000    
         3      4565   F  0.350000       110.000       91.0000    
         3      4569   F  0.350000       110.000       269.000    
         3      4573   F  0.350000       110.000       91.0000    
         3      4577   F  0.350000       110.000       269.000    
         3      4581   F  0.350000       110.000       91.0000    
         3      4585   F  0.350000       110.000       269.000    
         3      4589   F  0.350000       110.000       91.0000    
         3      4593   F  0.350000       110.000       269.000    
         3      4597   F  0.350000       110.000       91.0000    
         3      4601   F  0.350000       110.000       269.000    
         3      4605   F  0.350000       110.000       91.0000    
         3      4609   F  0.350000       110.000       269.000    
         3      4613   F  0.350000       110.000       91.0000    
         3      4617   F  0.350000       110.000       269.000    
         3      4621   F  0.350000       110.000       91.0000    
         3      4625   F  0.350000       110.000       269.000    
         3      4629   F  0.350000       110.000       91.0000    
         3      4633   F  0.350000       110.000       269.000    
         3      4637   F  0.350000       110.000       91.0000    
         3      4641   F  0.350000       110.000       269.000    
         3      4645   F  0.350000       110.000       91.0000    
         3      4649   F  0.350000       110.000       269.000    
         3      4653   F  0.350000       110.000       91.0000    
         3      4657   F  0.350000       110.000       269.000    
         3      4661   F  0.350000       110.000       91.0000    
         3      4665   F  0.350000       110.000       269.000    
         3      4669   F  0.350000       110.000       91.0000    
         3      4673   F  0.350000       110.000       269.000    
         3      4677   F  0.350000       110.000       91.0000    
         3      4681   F  0.350000       110.000       269.000    
         3      4685   F  0.350000       110.000       91.0000    
         3      4689   F  0.350000       110.000       269.000    
         3      4693   F  0.350000       110.000       91.0000    
         3      4697   F  0.350000       110.000       269.000    
         3      4701   F  0.350000       110.000       91.0000    
         3      4705   F  0.350000       110.000       269.000    
         3      4709   F  0.350000       110.000       91.0000    
         3      4713   F  0.350000       110.000       269.000    
         3      4717   F  0.350000       110.000       91.0000    
         3      4721   F  0.350000       110.000       269.000    
         3      4725   F  0.350000       110.000       91.0000    
         3      4729   F  0.350000       110.000       269.000    
         3      4733   F  0.350000       110.000       91.0000    
         3      4737   F  0.350000       110.000       269.000    
         3      4741   F  0.350000       110.000       91.0000    
         3      4745   F  0.350000       110.000       269.000    
         3      4749   F  0.350000       110.000       91.0000    
         3      4753   F  0.350000       110.000       269.000    
         3      4757   F  0.350000       110.000       91.0000    
         3      4761   F  0.350000       110.000       269.000    
         3      4765   F  0.350000       110.000       91.0000    
         3      4769   F  0.350000       110.000       269.000    
         3      4773   F  0.350000       110.000       91.0000    
         3      4777   F  0.350000       110.000       269.000    
         3      4781   F  0.350000       110.000       91.0000    
         3      4785   F  0.350000       110.000       269.000    
         3      4789   F  0.350000       110.000       91.0000    
         3      4793   F  0.350000       110.000       269.000    
         3      4797   F  0.350000       110.000       91.0000    
         3      4801   F  0.350000       110.000       269.000    
         3      4805   F  0.350000       110.000       91.0000    
         3      4809   F  0.350000       110.000       269.000    
         3      4813   F  0.350000       110.000       91.0000    
         3      4817   F  0.350000       110.000       269.000    
         3      4821   F  0.350000       110.000       91.0000    
         3      4825   F  0.350000       110.000       269.000    
         3      4829   F  0.350000       110.000       91.0000    
         3      4833   F  0.350000       110.000       269.000    
         3      4837   F  0.350000       110.000       91.0000    
         3      4841   F  0.350000       110.000       269.000    
         3      4845   F  0.350000       110.000       91.0000    
         3      4849   F  0.350000       110.000       269.000    
         3      4853   F  0.350000       110.000       91.0000    
         3      4857   F  0.350000       110.000       269.000    
         3      4861   F  0.350000       110.000       91.0000    
         3      4865   F  0.350000       110.000       269.000    
         3      4869   F  0.350000       110.000       91.0000    
         3      4873   F  0.350000       110.000       269.000    
         3      4877   F  0.350000       110.000       91.0000    
         3      4881   F  0.350000       110.000       269.000    
         3      4885   F  0.350000       110.000       91.0000    
         3      4889   F  0.350000       110.000       269.000    
         3      4893   F  0.350000       110.000       91.0000    
         3      4897   F  0.350000       110.000       269.000    
         3      4901   F  0.350000       110.000       91.0000    
         3      4905   F  0.350000       110.000       269.000    
         3      4909   F  0.350000       110.000       91.0000    
         3      4913   F  0.350000       110.000       269.000    
         3      4917   F  0.350000       110.000       91.0000    
         3      4921   F  0.350000       110.000       269.000    
         3      4925   F  0.350000       110.000       91.0000    
         3      4929   F  0.350000       110.000       269.000    
         3      4933   F  0.350000       110.000       91.0000    
         3      4937   F  0.350000       110.000       269.000    
         3      4941   F  0.350000       110.000       91.0000    
         3      4945   F  0.350000       110.000       269.000    
         3      4949   F  0.350000       110.000       91.0000    
         3      4953   F  0.350000       110.000       269.000    
         3      4957   F  0.350000       110.000       91.0000    
         3      4961   F  0.350000       110.000       269.000    
         3      4965   F  0.350000       110.000       91.0000    
         3      4969   F  0.350000       110.000       269.000    
         3      4973   F  0.350000       110.000       91.0000    
         3      4977   F  0.350000       110.000       269.000    
         3      4981   F  0.350000       110.000       91.0000    
         3      4985   F  0.350000       110.000       269.000    
         3      4989   F  0.350000       110.000       91.0000    
         3      4993   F  0.350000       110.000       269.000    
         3      4997   F  0.350000       110.000       91.0000    
         3      5001   F  0.350000       110.000       269.000    
         3      5005   F  0.350000       110.000       91.0000    
         3      5009   F  0.350000       110.000       269.000    
         3      5013   F  0.350000       110.000       91.0000    
         3      5017   F  0.350000       110.000       269.000    
         3      5021   F  0.350000       110.000       91.0000    
         3      5025   F  0.350000       110.000       269.000    
         3      5029   F  0.350000       110.000       91.0000    
         3      5033   F  0.350000       110.000       269.000    
         3      5037   F  0.350000       110.000       91.0000    
         3      5041   F  0.350000       110.000       269.000    
         3      5045   F  0.350000       110.000       91.0000    
         3      5049   F  0.350000       110.000       269.000    
         3      5053   F  0.350000       110.000       91.0000    
         3      5057   F  0.350000       110.000       269.000    
         3      5061   F  0.350000       110.000       91.0000    
         3      5065   F  0.350000       110.000       269.000    
         3      5069   F  0.350000       110.000       91.0000    
         3      5073   F  0.350000       110.000       269.000    
         3      5077   F  0.350000       110.000       91.0000    
         3      5081   F  0.350000       110.000       269.000    
         3      5085   F  0.350000       110.000       91.0000    
         3      5089   F  0.350000       110.000       269.000    
         3      5093   F  0.350000       110.000       91.0000    
         3      5097   F  0.350000       110.000       269.000    
         3      5101   F  0.350000       110.000       91.0000    
         3      5105   F  0.350000       110.000       269.000    
         3      5109   F  0.350000       110.000       91.0000    
         3      5113   F  0.350000       110.000       269.000    
         3      5117   F  0.350000       110.000       91.0000    
         3      5121   F  0.350000       110.000       269.000    
         3      5125   F  0.350000       110.000       91.0000    
         3      5129   F  0.350000       110.000       269.000    
         3      5133   F  0.350000       110.000       91.0000    
         3      5137   F  0.350000       110.000       269.000    
         3      5141   F  0.350000       110.000       91.0000    
         3      5145   F  0.350000       110.000       269.000    
         3      5149   F  0.350000       110.000       91.0000    
         3      5153   F  0.350000       110.000       269.000    
         3      5157   F  0.350000       110.000       91.0000    
         3      5161   F  0.350000       110.000       269.000    
         3      5165   F  0.350000       110.000       91.0000    
         3      5169   F  0.350000       110.000       269.000    
         3      5173   F  0.350000       110.000       91.0000    
         3      5177   F  0.350000       110.000       269.000    
         3      5181   F  0.350000       110.000       91.0000    
         3      5185   F  0.350000       110.000       269.000    
         3      5189   F  0.350000       110.000       91.0000    
         3      5193   F  0.350000       110.000       269.000    
         3      5197   F  0.350000       110.000       91.0000    
         3      5201   F  0.350000       110.000       269.000    
         3      5205   F  0.350000       110.000       91.0000    
         3      5209   F  0.350000       110.000       269.000    
         3      5213   F  0.350000       110.000       91.0000    
         3      5217   F  0.350000       110.000       269.000    
         3      5221   F  0.350000       110.000       91.0000    
         3      5225   F  0.350000       110.000       269.000    
         3      5229   F  0.350000       110.000       91.0000    
         3      5233   F  0.350000       110.000       269.000    
         3      5237   F  0.350000       110.000       91.0000    
         3      5241   F  0.350000       110.000       269.000    
         3      5245   F  0.350000       110.000       91.0000    
         3      5249   F  0.350000       110.000       269.000    
         3      5253   F  0.350000       110.000       91.0000    
         3      5257   F  0.350000       110.000       269.000    
         3      5261   F  0.350000       110.000       91.0000    
         3      5265   F  0.350000       110.000       269.000    
         3      5269   F  0.350000       110.000       91.0000    
         3      5273   F  0.350000       110.000       269.000    
         3      5277   F  0.350000       110.000       91.0000    
         3      5281   F  0.350000       110.000       269.000    
         3      5285   F  0.350000       110.000       91.0000    
         3      5289   F  0.350000       110.000       269.000    
         3      5293   F  0.350000       110.000       91.0000    
         3      5297   F  0.350000       110.000       269.000    
         3      5301   F  0.350000       110.000       91.0000    
         3      5305   F  0.350000       110.000       269.000    
         3      5309   F  0.350000       110.000       91.0000    
         3      5313   F  0.350000       110.000       269.000    
         3      5317   F  0.350000       110.000       91.0000    
         3      5321   F  0.350000       110.000       269.000    
         3      5325   F  0.350000       110.000       91.0000    
         3      5329   F  0.350000       110.000       269.000    
         3      5333   F  0.350000       110.000       91.0000    
         3      5337   F  0.350000       110.000       269.000    
         3      5341   F  0.350000       110.000       91.0000    
         3      5345   F  0.350000       110.000       269.000    
         3      5349   F  0.350000       110.000       91.0000    
         3      5353   F  0.350000       110.000       269.000    
         3      5357   F  0.350000       110.000       91.0000    
         3      5361   F  0.350000       110.000       269.000    
         3      5365   F  0.350000       110.000       91.0000    
         3      5369   F  0.350000       110.000       269.000    
         3      5373   F  0.350000       110.000       91.0000    
         3      5377   F  0.350000       110.000       269.000    
         3      5381   F  0.350000       110.000       91.0000    
         3      5385   F  0.350000       110.000       269.000    
         3      5389   F  0.350000       110.000       91.0000    
         3      5393   F  0.350000       110.000       269.000    
         3      5397   F  0.350000       110.000       91.0000    
         3      5401   F  0.350000       110.000       269.000    
         3      5405   F  0.350000       110.000       91.0000    
         3      5409   F  0.350000       110.000       269.000    
         3      5413   F  0.350000       110.000       91.0000    
         3      5417   F  0.350000       110.000       269.000    
         3      5421   F  0.350000       110.000       91.0000    
         3      5425   F  0.350000       110.000       269.000    
         3      5429   F  0.350000       110.000       91.0000    
         3      5433   F  0.350000       110.000       269.000    
         3      5437   F  0.350000       110.000       91.0000    
         3      5441   F  0.350000       110.000       269.000    
         3      5445   F  0.350000       110.000       91.0000    
         3      5449   F  0.350000       110.000       269.000    
         3      5453   F  0.350000       110.000       91.0000    
         3      5457   F  0.350000       110.000       269.000    
         3      5461   F  0.350000       110.000       91.0000    
         3      5465   F  0.350000       110.000       269.000    
         3      5469   F  0.350000       110.000       91.0000    
         3      5473   F  0.350000       110.000       269.000    
         3      5477   F  0.350000       110.000       91.0000    
         3      5481   F  0.350000       110.000       269.000    
         3      5485   F  0.350000       110.000       91.0000    
         3      5489   F  0.350000       110.000       269.000    
         3      5493   F  0.350000       110.000       91.0000    
         3      5497   F  0.350000       110.000       269.000    
         3      5501   F  0.350000       110.000       91.0000    
         3      5505   F  0.350000       110.000       269.000    
         3      5509   F  0.350000       110.000       91.0000    
         3      5513   F  0.350000       110.000       269.000    
         3      5517   F  0.350000       110.000       91.0000    
         3      5521   F  0.350000       110.000       269.000    
         3      5525   F  0.350000       110.000       91.0000    
         3      5529   F  0.350000       110.000       269.000    
         3      5533   F  0.350000       110.000       91.0000    
         3      5537   F  0.350000       110.000       269.000    
         3      5541   F  0.350000       110.000       91.0000    
         3      5545   F  0.350000       110.000       269.000    
         3      5549   F  0.350000       110.000       91.0000    
         3      5553   F  0.350000       110.000       269.000    
         3      5557   F  0.350000       110.000       91.0000    
         3      5561   F  0.350000       110.000       269.000    
         3      5565   F  0.350000       110.000       91.0000    
         3      5569   F  0.350000       110.000       269.000    
         3      5573   F  0.350000       110.000       91.0000    
         3      5577   F  0.350000       110.000       269.000    
         3      5581   F  0.350000       110.000       91.0000    
         3      5585   F  0.350000       110.000       269.000    
         3      5589   F  0.350000       110.000       91.0000    
         3      5593   F  0.350000       110.000       269.000    
         3      5597   F  0.350000       110.000       91.0000    
         3      5601   F  0.350000       110.000       269.000    
         3      5605   F  0.350000       110.000       91.0000    
         3      5609   F  0.350000       110.000       269.000    
         3      5613   F  0.350000       110.000       91.0000    
         3      5617   F  0.350000       110.000       269.000    
         3      5621   F  0.350000       110.000       91.0000    
         3      5625   F  0.350000       110.000       269.000    
         3      5629   F  0.350000       110.000       91.0000    
         3      5633   F  0.350000       110.000       269.000    
         3      5637   F  0.350000       110.000       91.0000    
         3      5641   F  0.350000       110.000       269.000    
         3      5645   F  0.350000       110.000       91.0000    
         3      5649   F  0.350000       110.000       269.000    
         3      5653   F  0.350000       110.000       91.0000    
         3      5657   F  0.350000       110.000       269.000    
         3      5661   F  0.350000       110.000       91.0000    
         3      5665   F  0.350000       110.000       269.000    
         3      5669   F  0.350000       110.000       91.0000    
         3      5673   F  0.350000       110.000       269.000    
         3      5677   F  0.350000       110.000       91.0000    
         3      5681   F  0.350000       110.000       269.000    
         3      5685   F  0.350000       110.000       91.0000    
         3      5689   F  0.350000       110.000       269.000    
         3      5693   F  0.350000       110.000       91.0000    
         3      5697   F  0.350000       110.000       269.000    
         3      5701   F  0.350000       110.000       91.0000    
         3      5705   F  0.350000       110.000       269.000    
         3      5709   F  0.350000       110.000       91.0000    
         3      5713   F  0.350000       110.000       269.000    
         3      5717   F  0.350000       110.000       91.0000    
         3      5721   F  0.350000       110.000       269.000    
         3      5725   F  0.350000       110.000       91.0000    
         3      5729   F  0.350000       110.000       269.000    
         3      5733   F  0.350000       110.000       91.0000    
         3      5737   F  0.350000       110.000       269.000    
         3      5741   F  0.350000       110.000       91.0000    
         3      5745   F  0.350000       110.000       269.000    
         3      5749   F  0.350000       110.000       91.0000    
         3      5753   F  0.350000       110.000       269.000    
         3      5757   F  0.350000       110.000       91.0000    
         3      5761   F  0.350000       110.000       269.000    
         3      5765   F  0.350000       110.000       91.0000    
         3      5769   F  0.350000       110.000       269.000    
         3      5773   F  0.350000       110.000       91.0000    
         3      5777   F  0.350000       110.000       269.000    
         3      5781   F  0.350000       110.000       91.0000    
         3      5785   F  0.350000       110.000       269.000    
         3      5789   F  0.350000       110.000       91.0000    
         3      5793   F  0.350000       110.000       269.000    
         3      5797   F  0.350000       110.000       91.0000    
         3      5801   F  0.350000       110.000       269.000    
         3      5805   F  0.350000       110.000       91.0000    
         3      5809   F  0.350000       110.000       269.000    
         3      5813   F  0.350000       110.000       91.0000    
         3      5817   F  0.350000       110.000       269.000    
         3      5821   F  0.350000       110.000       91.0000    
         3      5825   F  0.350000       110.000       269.000    
         3      5829   F  0.350000       110.000       91.0000    
         3      5833   F  0.350000       110.000       269.000    
         3      5837   F  0.350000       110.000       91.0000    
         3      5841   F  0.350000       110.000       269.000    
         3      5845   F  0.350000       110.000       91.0000    
         3      5849   F  0.350000       110.000       269.000    
         3      5853   F  0.350000       110.000       91.0000    
         3      5857   F  0.350000       110.000       269.000    
         3      5861   F  0.350000       110.000       91.0000    
         3      5865   F  0.350000       110.000       269.000    
         3      5869   F  0.350000       110.000       91.0000    
         3      5873   F  0.350000       110.000       269.000    
         3      5877   F  0.350000       110.000       91.0000    
         3      5881   F  0.350000       110.000       269.000    
         3      5885   F  0.350000       110.000       91.0000    
         3      5889   F  0.350000       110.000       269.000    
         3      5893   F  0.350000       110.000       91.0000    
         3      5897   F  0.350000       110.000       269.000    
         3      5901   F  0.350000       110.000       91.0000    
         3      5905   F  0.350000       110.000       269.000    
         3      5909   F  0.350000       110.000       91.0000    
         3      5913   F  0.350000       110.000       269.000    
         3      5917   F  0.350000       110.000       91.0000    
         3      5921   F  0.350000       110.000       269.000    
         3      5925   F  0.350000       110.000       91.0000    
         3      5929   F  0.350000       110.000       269.000    
         3      5933   F  0.350000       110.000       91.0000    
         3      5937   F  0.350000       110.000       269.000    
         3      5941   F  0.350000       110.000       91.0000    
         3      5945   F  0.350000       110.000       269.000    
         3      5949   F  0.350000       110.000       91.0000    
         3      5953   F  0.350000       110.000       269.000    
         3      5957   F  0.350000       110.000       91.0000    
         3      5961   F  0.350000       110.000       269.000    
         3      5965   F  0.350000       110.000       91.0000    
         3      5969   F  0.350000       110.000       269.000    
         3      5973   F  0.350000       110.000       91.0000    
         3      5977   F  0.350000       110.000       269.000    
         3      5981   F  0.350000       110.000       91.0000    
         3      5985   F  0.350000       110.000       269.000    
         3      5989   F  0.350000       110.000       91.0000    
         3      5993   F  0.350000       110.000       269.000    
         3      5997   F  0.350000       110.000       91.0000    
         3      6001   F  0.350000       110.000       269.000    
         3      6005   F  0.350000       110.000       91.0000    
         3      6009   F  0.350000       110.000       269.000    
         3      6013   F  0.350000       110.000       91.0000    
         3      6017   F  0.350000       110.000       269.000    
         3      6021   F  0.350000       110.000       91.0000    
         3      6025   F  0.350000       110.000       269.000    
         3      6029   F  0.350000       110.000       91.0000    
         3      6033   F  0.350000       110.000       269.000    
         3      6037   F  0.350000       110.000       91.0000    
         3      6041   F  0.350000       110.000       269.000    
         3      6045   F  0.350000       110.000       91.0000    
         3      6049   F  0.350000       110.000       269.000    
         3      6053   F  0.350000       110.000       91.0000    
         3      6057   F  0.350000       110.000       269.000    
         3      6061   F  0.350000       110.000       91.0000    
         3      6065   F  0.350000       110.000       269.000    
         3      6069   F  0.350000       110.000       91.0000    
         3      6073   F  0.350000       110.000       269.000    
         3      6077   F  0.350000       110.000       91.0000    
         3      6081   F  0.350000       110.000       269.000    
         3      6085   F  0.350000       110.000       91.0000    
         3      6089   F  0.350000       110.000       269.000    
         3      6093   F  0.350000       110.000       91.0000    
         3      6097   F  0.350000       110.000       269.000    
         3      6101   F  0.350000       110.000       91.0000    
         3      6105   F  0.350000       110.000       269.000    
         3      6109   F  0.350000       110.000       91.0000    
         3      6113   F  0.350000       110.000       269.000    
         3      6117   F  0.350000       110.000       91.0000    
         3      6121   F  0.350000       110.000       269.000    
         3      6125   F  0.350000       110.000       91.0000    
         3      6129   F  0.350000       110.000       269.000    
         3      6133   F  0.350000       110.000       91.0000    
         3      6137   F  0.350000       110.000       269.000    
         3      6141   F  0.350000       110.000       91.0000    
         3      6145   F  0.350000       110.000       269.000    
         3      6149   F  0.350000       110.000       91.0000    
         3      6153   F  0.350000       110.000       269.000    
         3      6157   F  0.350000       110.000       91.0000    
         3      6161   F  0.350000       110.000       269.000    
         3      6165   F  0.350000       110.000       91.0000    
         3      6169   F  0.350000       110.000       269.000    
         3      6173   F  0.350000       110.000       91.0000    
         3      6177   F  0.350000       110.000       269.000    
         3      6181   F  0.350000       110.000       91.0000    
         3      6185   F  0.350000       110.000       269.000    
         3      6189   F  0.350000       110.000       91.0000    
         3      6193   F  0.350000       110.000       269.000    
         3      6197   F  0.350000       110.000       91.0000    
         3      6201   F  0.350000       110.000       269.000    
         3      6205   F  0.350000       110.000       91.0000    
         3      6209   F  0.350000       110.000       269.000    
         3      6213   F  0.350000       110.000       91.0000    
         3      6217   F  0.350000       110.000       269.000    
         3      6221   F  0.350000       110.000       91.0000    
         3      6225   F  0.350000       110.000       269.000    
         3      6229   F  0.350000       110.000       91.0000    
         3      6233   F  0.350000       110.000       269.000    
         3      6237   F  0.350000       110.000       91.0000    
         3      6241   F  0.350000       110.000       269.000    
         3      6245   F  0.350000       110.000       91.0000    
         3      6249   F  0.350000       110.000       269.000    
         3      6253   F  0.350000       110.000       91.0000    
         3      6257   F  0.350000       110.000       269.000    
         3      6261   F  0.350000       110.000       91.0000    
         3      6265   F  0.350000       110.000       269.000    
         3      6269   F  0.350000       110.000       91.0000    
         3      6273   F  0.350000       110.000       269.000    
         3      6277   F  0.350000       110.000       91.0000    
         3      6281   F  0.350000       110.000       269.000    
         3      6285   F  0.350000       110.000       91.0000    
         3      6289   F  0.350000       110.000       269.000    
         3      6293   F  0.350000       110.000       91.0000    
         3      6297   F  0.350000       110.000       269.000    
         3      6301   F  0.350000       110.000       91.0000    
         3      6305   F  0.350000       110.000       269.000    
         3      6309   F  0.350000       110.000       91.0000    
         3      6313   F  0.350000       110.000       269.000    
         3      6317   F  0.350000       110.000       91.0000    
         3      6321   F  0.350000       110.000       269.000    
         3      6325   F  0.350000       110.000       91.0000    
         3      6329   F  0.350000       110.000       269.000    
         3      6333   F  0.350000       110.000       91.0000    
         3      6337   F  0.350000       110.000       269.000    
         3      6341   F  0.350000       110.000       91.0000    
         3      6345   F  0.350000       110.000       269.000    
         3      6349   F  0.350000       110.000       91.0000    
         3      6353   F  0.350000       110.000       269.000    
         3      6357   F  0.350000       110.000       91.0000    
         3      6361   F  0.350000       110.000       269.000    
         3      6365   F  0.350000       110.000       91.0000    
         3      6369   F  0.350000       110.000       269.000    
         3      6373   F  0.350000       110.000       91.0000    
         3      6377   F  0.350000       110.000       269.000    
         3      6381   F  0.350000       110.000       91.0000    
         3      6385   F  0.350000       110.000       269.000    
         3      6389   F  0.350000       110.000       91.0000    
         3      6393   F  0.350000       110.000       269.000    
         3      6397   F  0.350000       110.000       91.0000    
         3      6401   F  0.350000       110.000       269.000    
         3      6405   F  0.350000       110.000       91.0000    
         3      6409   F  0.350000       110.000       269.000    
         3      6413   F  0.350000       110.000       91.0000    
         3      6417   F  0.350000       110.000       269.000    
         3      6421   F  0.350000       110.000       91.0000    
         3      6425   F  0.350000       110.000       269.000    
         3      6429   F  0.350000       110.000       91.0000    
         3      6433   F  0.350000       110.000       269.000    
         3      6437   F  0.350000       110.000       91.0000    
         3      6441   F  0.350000       110.000       269.000    
         3      6445   F  0.350000       110.000       91.0000    
         3      6449   F  0.350000       110.000       269.000    
         3      6453   F  0.350000       110.000       91.0000    
         3      6457   F  0.350000       110.000       269.000    
         3      6461   F  0.350000       110.000       91.0000    
         3      6465   F  0.350000       110.000       269.000    
         3      6469   F  0.350000       110.000       91.0000    
         3      6473   F  0.350000       110.000       269.000    
         3      6477   F  0.350000       110.000       91.0000    
         3      6481   F  0.350000       110.000       269.000    
         3      6485   F  0.350000       110.000       91.0000    
         3      6489   F  0.350000       110.000       269.000    
         3      6493   F  0.350000       110.000       91.0000    
         3      6497   F  0.350000       110.000       269.000    
         3      6501   F  0.350000       110.000       91.0000    
         3      6505   F  0.350000       110.000       269.000    
         3      6509   F  0.350000       110.000       91.0000    
         3      6513   F  0.350000       110.000       269.000    
         3      6517   F  0.350000       110.000       91.0000    
         3      6521   F  0.350000       110.000       269.000    
         3      6525   F  0.350000       110.000       91.0000    
         3      6529   F  0.350000       110.000       269.000    
         3      6533   F  0.350000       110.000       91.0000    
         3      6537   F  0.350000       110.000       269.000    
         3      6541   F  0.350000       110.000       91.0000    
         3      6545   F  0.350000       110.000       269.000    
         3      6549   F  0.350000       110.000       91.0000    
         3      6553   F  0.350000       110.000       269.000    
         3      6557   F  0.350000       110.000       91.0000    
         3      6561   F  0.350000       110.000       269.000    
         3      6565   F  0.350000       110.000       91.0000    
         3      6569   F  0.350000       110.000       269.000    
         3      6573   F  0.350000       110.000       91.0000    
         3      6577   F  0.350000       110.000       269.000    
         3      6581   F  0.350000       110.000       91.0000    
         3      6585   F  0.350000       110.000       269.000    
         3      6589   F  0.350000       110.000       91.0000    
         3      6593   F  0.350000       110.000       269.000    
         3      6597   F  0.350000       110.000       91.0000    
         3      6601   F  0.350000       110.000       269.000    
         3      6605   F  0.350000       110.000       91.0000    
         3      6609   F  0.350000       110.000       269.000    
         3      6613   F  0.350000       110.000       91.0000    
         3      6617   F  0.350000       110.000       269.000    
         3      6621   F  0.350000       110.000       91.0000    
         3      6625   F  0.350000       110.000       269.000    
         3      6629   F  0.350000       110.000       91.0000    
         3      6633   F  0.350000       110.000       269.000    
         3      6637   F  0.350000       110.000       91.0000    
         3      6641   F  0.350000       110.000       269.000    
         3      6645   F  0.350000       110.000       91.0000    
         3      6649   F  0.350000       110.000       269.000    
         3      6653   F  0.350000       110.000       91.0000    
         3      6657   F  0.350000       110.000       269.000    
         3      6661   F  0.350000       110.000       91.0000    
         3      6665   F  0.350000       110.000       269.000    
         3      6669   F  0.350000       110.000       91.0000    
         3      6673   F  0.350000       110.000       269.000    
         3      6677   F  0.350000       110.000       91.0000    
         3      6681   F  0.350000       110.000       269.000    
         3      6685   F  0.350000       110.000       91.0000    
         3      6689   F  0.350000       110.000       269.000    
         3      6693   F  0.350000       110.000       91.0000    
         3      6697   F  0.350000       110.000       269.000    
         3      6701   F  0.350000       110.000       91.0000    
         3      6705   F  0.350000       110.000       269.000    
         3      6709   F  0.350000       110.000       91.0000    
         3      6713   F  0.350000       110.000       269.000    
         3      6717   F  0.350000       110.000       91.0000    
         3      6721   F  0.350000       110.000       269.000    
         3      6725   F  0.350000       110.000       91.0000    
         3      6729   F  0.350000       110.000       269.000    
         3      6733   F  0.350000       110.000       91.0000    
         3      6737   F  0.350000       110.000       269.000    
         3      6741   F  0.350000       110.000       91.0000    
         3      6745   F  0.350000       110.000       269.000    
         3      6749   F  0.350000       110.000       91.0000    
         3      6753   F  0.350000       110.000       269.000    
         3      6757   F  0.350000       110.000       91.0000    
         3      6761   F  0.350000       110.000       269.000    
         3      6765   F  0.350000       110.000       91.0000    
         3      6769   F  0.350000       110.000       269.000    
         3      6773   F  0.350000       110.000       91.0000    
         3      6777   F  0.350000       110.000       269.000    
         3      6781   F  0.350000       110.000       91.0000    
         3      6785   F  0.350000       110.000       269.000    
         3      6789   F  0.350000       110.000       91.0000    
         3      6793   F  0.350000       110.000       269.000    
         3      6797   F  0.350000       110.000       91.0000    
         3      6801   F  0.350000       110.000       269.000    
         3      6805   F  0.350000       110.000       91.0000    
         3      6809   F  0.350000       110.000       269.000    
         3      6813   F  0.350000       110.000       91.0000    
         3      6817   F  0.350000       110.000       269.000    
         3      6821   F  0.350000       110.000       91.0000    
         3      6825   F  0.350000       110.000       269.000    
         3      6829   F  0.350000       110.000       91.0000    
         3      6833   F  0.350000       110.000       269.000    
         3      6837   F  0.350000       110.000       91.0000    
         3      6841   F  0.350000       110.000       269.000    
         3      6845   F  0.350000       110.000       91.0000    
         3      6849   F  0.350000       110.000       269.000    
         3      6853   F  0.350000       110.000       91.0000    
         3      6857   F  0.350000       110.000       269.000    
         3      6861   F  0.350000       110.000       91.0000    
         3      6865   F  0.350000       110.000       269.000    
         3      6869   F  0.350000       110.000       91.0000    
         3      6873   F  0.350000       110.000       269.000    
         3      6877   F  0.350000       110.000       91.0000    
         3      6881   F  0.350000       110.000       269.000    
         3      6885   F  0.350000       110.000       91.0000    
         3      6889   F  0.350000       110.000       269.000    
         3      6893   F  0.350000       110.000       91.0000    
         3      6897   F  0.350000       110.000       269.000    
         3      6901   F  0.350000       110.000       91.0000    
         3      6905   F  0.350000       110.000       269.000    
         3      6909   F  0.350000       110.000       91.0000    
         3      6913   F  0.350000       110.000       269.000    
         3      6917   F  0.350000       110.000       91.0000    
         3      6921   F  0.350000       110.000       269.000    
         3      6925   F  0.350000       110.000       91.0000    
         3      6929   F  0.350000       110.000       269.000    
         3      6933   F  0.350000       110.000       91.0000    
         3      6937   F  0.350000       110.000       269.000    
         3      6941   F  0.350000       110.000       91.0000    
         3      6945   F  0.350000       110.000       269.000    
         3      6949   F  0.350000       110.000       91.0000    
         3      6953   F  0.350000       110.000       269.000    
         3      6957   F  0.350000       110.000       91.0000    
         3      6961   F  0.350000       110.000       269.000    
         3      6965   F  0.350000       110.000       91.0000    
         3      6969   F  0.350000       110.000       269.000    
         3      6973   F  0.350000       110.000       91.0000    
         3      6977   F  0.350000       110.000       269.000    
         3      6981   F  0.350000       110.000       91.0000    
         3      6985   F  0.350000       110.000       269.000    
         3      6989   F  0.350000       110.000       91.0000    
         3      6993   F  0.350000       110.000       269.000    
         3      6997   F  0.350000       110.000       91.0000    
         3      7001   F  0.350000       110.000       269.000    
         3      7005   F  0.350000       110.000       91.0000    
         3      7009   F  0.350000       110.000       269.000    
         3      7013   F  0.350000       110.000       91.0000    
         3      7017   F  0.350000       110.000       269.000    
         3      7021   F  0.350000       110.000       91.0000    
         3      7025   F  0.350000       110.000       269.000    
         3      7029   F  0.350000       110.000       91.0000    
         3      7033   F  0.350000       110.000       269.000    
         3      7037   F  0.350000       110.000       91.0000    
         3      7041   F  0.350000       110.000       269.000    
         3      7045   F  0.350000       110.000       91.0000    
         3      7049   F  0.350000       110.000       269.000    
         3      7053   F  0.350000       110.000       91.0000    
         3      7057   F  0.350000       110.000       269.000    
         3      7061   F  0.350000       110.000       91.0000    
         3      7065   F  0.350000       110.000       269.000    
         3      7069   F  0.350000       110.000       91.0000    
         3      7073   F  0.350000       110.000       269.000    
         3      7077   F  0.350000       110.000       91.0000    
         3      7081   F  0.350000       110.000       269.000    
         3      7085   F  0.350000       110.000       91.0000    
         3      7089   F  0.350000       110.000       269.000    
         3      7093   F  0.350000       110.000       91.0000    
         3      7097   F  0.350000       110.000       269.000    
         3      7101   F  0.350000       110.000       91.0000    
         3      7105   F  0.350000       110.000       269.000    
         3      7109   F  0.350000       110.000       91.0000    
         3      7113   F  0.350000       110.000       269.000    
         3      7117   F  0.350000       110.000       91.0000    
         3      7121   F  0.350000       110.000       269.000    
         3      7125   F  0.350000       110.000       91.0000    
         3      7129   F  0.350000       110.000       269.000    
         3      7133   F  0.350000       110.000       91.0000    
         3      7137   F  0.350000       110.000       269.000    
         3      7141   F  0.350000       110.000       91.0000    
         3      7145   F  0.350000       110.000       269.000    
         3      7149   F  0.350000       110.000       91.0000    
         3      7153   F  0.350000       110.000       269.000    
         3      7157   F  0.350000       110.000       91.0000    
         3      7161   F  0.350000       110.000       269.000    
         3      7165   F  0.350000       110.000       91.0000    
         3      7169   F  0.350000       110.000       269.000    
         3      7173   F  0.350000       110.000       91.0000    
         3      7177   F  0.350000       110.000       269.000    
         3      7181   F  0.350000       110.000       91.0000    
         3      7185   F  0.350000       110.000       269.000    
         3      7189   F  0.350000       110.000       91.0000    
         3      7193   F  0.350000       110.000       269.000    
         3      7197   F  0.350000       110.000       91.0000    
         3      7201   F  0.350000       110.000       269.000    
         3      7205   F  0.350000       110.000       91.0000    
         3      7209   F  0.350000       110.000       269.000    
         3      7213   F  0.350000       110.000       91.0000    
         3      7217   F  0.350000       110.000       269.000    
         3      7221   F  0.350000       110.000       91.0000    
         3      7225   F  0.350000       110.000       269.000    
         3      7229   F  0.350000       110.000       91.0000    
         3      7233   F  0.350000       110.000       269.000    
         3      7237   F  0.350000       110.000       91.0000    
         3      7241   F  0.350000       110.000       269.000    
         3      7245   F  0.350000       110.000       91.0000    
         3      7249   F  0.350000       110.000       269.000    
         3      7253   F  0.350000       110.000       91.0000    
         3      7257   F  0.350000       110.000       269.000    
         3      7261   F  0.350000       110.000       91.0000    
         3      7265   F  0.350000       110.000       269.000    
         3      7269   F  0.350000       110.000       91.0000    
         3      7273   F  0.350000       110.000       269.000    
         3      7277   F  0.350000       110.000       91.0000    
         3      7281   F  0.350000       110.000       269.000    
         3      7285   F  0.350000       110.000       91.0000    
         3      7289   F  0.350000       110.000       269.000    
         3      7293   F  0.350000       110.000       91.0000    
         3      7297   F  0.350000       110.000       269.000    
         3      7301   F  0.350000       110.000       91.0000    
         3      7305   F  0.350000       110.000       269.000    
         3      7309   F  0.350000       110.000       91.0000    
         3      7313   F  0.350000       110.000       269.000    
         3      7317   F  0.350000       110.000       91.0000    
         3      7321   F  0.350000       110.000       269.000    
         3      7325   F  0.350000       110.000       91.0000    
         3      7329   F  0.350000       110.000       269.000    
         3      7333   F  0.350000       110.000       91.0000    
         3      7337   F  0.350000       110.000       269.000    
         3      7341   F  0.350000       110.000       91.0000    
         3      7345   F  0.350000       110.000       269.000    
         3      7349   F  0.350000       110.000       91.0000    
         3      7353   F  0.350000       110.000       269.000    
         3      7357   F  0.350000       110.000       91.0000    
         3      7361   F  0.350000       110.000       269.000    
         3      7365   F  0.350000       110.000       91.0000    
         3      7369   F  0.350000       110.000       269.000    
         3      7373   F  0.350000       110.000       91.0000    
         3      7377   F  0.350000       110.000       269.000    
         3      7381   F  0.350000       110.000       91.0000    
         3      7385   F  0.350000       110.000       269.000    
         3      7389   F  0.350000       110.000       91.0000    
         3      7393   F  0.350000       110.000       269.000    
         3      7397   F  0.350000       110.000       91.0000    
         3      7401   F  0.350000       110.000       269.000    
         3      7405   F  0.350000       110.000       91.0000    
         3      7409   F  0.350000       110.000       269.000    
         3      7413   F  0.350000       110.000       91.0000    
         3      7417   F  0.350000       110.000       269.000    
         3      7421   F  0.350000       110.000       91.0000    
         3      7425   F  0.350000       110.000       269.000    
         3      7429   F  0.350000       110.000       91.0000    
         3      7433   F  0.350000       110.000       269.000    
         3      7437   F  0.350000       110.000       91.0000    
         3      7441   F  0.350000       110.000       269.000    
         3      7445   F  0.350000       110.000       91.0000    
         3      7449   F  0.350000       110.000       269.000    
         3      7453   F  0.350000       110.000       91.0000    
         3      7457   F  0.350000       110.000       269.000    
         3      7461   F  0.350000       110.000       91.0000    
         3      7465   F  0.350000       110.000       269.000    
         3      7469   F  0.350000       110.000       91.0000    
         3      7473   F  0.350000       110.000       269.000    
         3      7477   F  0.350000       110.000       91.0000    
         3      7481   F  0.350000       110.000       269.000    
         3      7485   F  0.350000       110.000       91.0000    
         3      7489   F  0.350000       110.000       269.000    
         3      7493   F  0.350000       110.000       91.0000    
         3      7497   F  0.350000       110.000       269.000    
         3      7501   F  0.350000       110.000       91.0000    
         3      7505   F  0.350000       110.000       269.000    
         3      7509   F  0.350000       110.000       91.0000    
         3      7513   F  0.350000       110.000       269.000    
         3      7517   F  0.350000       110.000       91.0000    
         3      7521   F  0.350000       110.000       269.000    
         3      7525   F  0.350000       110.000       91.0000    
         3      7529   F  0.350000       110.000       269.000    
         3      7533   F  0.350000       110.000       91.0000    
         3      7537   F  0.350000       110.000       269.000    
         3      7541   F  0.350000       110.000       91.0000    
         3      7545   F  0.350000       110.000       269.000    
         3      7549   F  0.350000       110.000       91.0000    
         3      7553   F  0.350000       110.000       269.000    
         3      7557   F  0.350000       110.000       91.0000    
         3      7561   F  0.350000       110.000       269.000    
         3      7565   F  0.350000       110.000       91.0000    
         3      7569   F  0.350000       110.000       269.000    
         3      7573   F  0.350000       110.000       91.0000    
         3      7577   F  0.350000       110.000       269.000    
         3      7581   F  0.350000       110.000       91.0000    
         3      7585   F  0.350000       110.000       269.000    
         3      7589   F  0.350000       110.000       91.0000    
         3      7593   F  0.350000       110.000       269.000    
         3      7597   F  0.350000       110.000       91.0000    
         3      7601   F  0.350000       110.000       269.000    
         3      7605   F  0.350000       110.000       91.0000    
         3      7609   F  0.350000       110.000       269.000    
         3      7613   F  0.350000       110.000       91.0000    
         3      7617   F  0.350000       110.000       269.000    
         3      7621   F  0.350000       110.000       91.0000    
         3      7625   F  0.350000       110.000       269.000    
         3      7629   F  0.350000       110.000       91.0000    
         3      7633   F  0.350000       110.000       269.000    
         3      7637   F  0.350000       110.000       91.0000    
         3      7641   F  0.350000       110.000       269.000    
         3      7645   F  0.350000       110.000       91.0000    
         3      7649   F  0.350000       110.000       269.000    
         3      7653   F  0.350000       110.000       91.0000    
         3      7657   F  0.350000       110.000       269.000    
         3      7661   F  0.350000       110.000       91.0000    
         3      7665   F  0.350000       110.000       269.000    
         3      7669   F  0.350000       110.000       91.0000    
         3      7673   F  0.350000       110.000       269.000    
         3      7677   F  0.350000       110.000       91.0000    
         3      7681   F  0.350000       110.000       269.000    
         3      7685   F  0.350000       110.000       91.0000    
         3      7689   F  0.350000       110.000       269.000    
         3      7693   F  0.350000       110.000       91.0000    
         3      7697   F  0.350000       110.000       269.000    
         3      7701   F  0.350000       110.000       91.0000    
         3      7705   F  0.350000       110.000       269.000    
         3      7709   F  0.350000       110.000       91.0000    
         3      7713   F  0.350000       110.000       269.000    
         3      7717   F  0.350000       110.000       91.0000    
         3      7721   F  0.350000       110.000       269.000    
         3      7725   F  0.350000       110.000       91.0000    
         3      7729   F  0.350000       110.000       269.000    
         3      7733   F  0.350000       110.000       91.0000    
         3      7737   F  0.350000       110.000       269.000    
         3      7741   F  0.350000       110.000       91.0000    
         3      7745   F  0.350000       110.000       269.000    
         3      7749   F  0.350000       110.000       91.0000    
         3      7753   F  0.350000       110.000       269.000    
         3      7757   F  0.350000       110.000       91.0000    
         3      7761   F  0.350000       110.000       269.000    
         3      7765   F  0.350000       110.000       91.0000    
         3      7769   F  0.350000       110.000       269.000    
         3      7773   F  0.350000       110.000       91.0000    
         3      7777   F  0.350000       110.000       269.000    
         3      7781   F  0.350000       110.000       91.0000    
         3      7785   F  0.350000       110.000       269.000    
         3      7789   F  0.350000       110.000       91.0000    
         3      7793   F  0.350000       110.000       269.000    
         3      7797   F  0.350000       110.000       91.0000    
         3      7801   F  0.350000       110.000       269.000    
         3      7805   F  0.350000       110.000       91.0000    
         3      7809   F  0.350000       110.000       269.000    
         3      7813   F  0.350000       110.000       91.0000    
         3      7817   F  0.350000       110.000       269.000    
         3      7821   F  0.350000       110.000       91.0000    
         3      7825   F  0.350000       110.000       269.000    
         3      7829   F  0.350000       110.000       91.0000    
         3      7833   F  0.350000       110.000       269.000    
         3      7837   F  0.350000       110.000       91.0000    
         3      7841   F  0.350000       110.000       269.000    
         3      7845   F  0.350000       110.000       91.0000    
         3      7849   F  0.350000       110.000       269.000    
         3      7853   F  0.350000       110.000       91.0000    
         3      7857   F  0.350000       110.000       269.000    
         3      7861   F  0.350000       110.000       91.0000    
         3      7865   F  0.350000       110.000       269.000    
         3      7869   F  0.350000       110.000       91.0000    
         3      7873   F  0.350000       110.000       269.000    
         3      7877   F  0.350000       110.000       91.0000    
         3      7881   F  0.350000       110.000       269.000    
         3      7885   F  0.350000       110.000       91.0000    
         3      7889   F  0.350000       110.000       269.000    
         3      7893   F  0.350000       110.000       91.0000    
         3      7897   F  0.350000       110.000       269.000    
         3      7901   F  0.350000       110.000       91.0000    
         3      7905   F  0.350000       110.000       269.000    
         3      7909   F  0.350000       110.000       91.0000    
         3      7913   F  0.350000       110.000       269.000    
         3      7917   F  0.350000       110.000       91.0000    
         3      7921   F  0.350000       110.000       269.000    
         3      7925   F  0.350000       110.000       91.0000    
         3      7929   F  0.350000       110.000       269.000    
         3      7933   F  0.350000       110.000       91.0000    
         3      7937   F  0.350000       110.000       269.000    
         3      7941   F  0.350000       110.000       91.0000    
         3      7945   F  0.350000       110.000       269.000    
         3      7949   F  0.350000       110.000       91.0000    
         3      7953   F  0.350000       110.000       269.000    
         3      7957   F  0.350000       110.000       91.0000    
         3      7961   F  0.350000       110.000       269.000    
         3      7965   F  0.350000       110.000       91.0000    
         3      7969   F  0.350000       110.000       269.000    
         3      7973   F  0.350000       110.000       91.0000    
         3      7977   F  0.350000       110.000       269.000    
         3      7981   F  0.350000       110.000       91.0000    
         3      7985   F  0.350000       110.000       269.000    
         3      7989   F  0.350000       110.000       91.0000    
         3      7993   F  0.350000       110.000       269.000    
         3      7997   F  0.350000       110.000       91.0000    
         3      8001   F  0.350000       110.000       269.000    
         3      8005   F  0.350000       110.000       91.0000    
         3      8009   F  0.350000       110.000       269.000    
         3      8013   F  0.350000       110.000       91.0000    
         3      8017   F  0.350000       110.000       269.000    
         3      8021   F  0.350000       110.000       91.0000    
         3      8025   F  0.350000       110.000       269.000    
         3      8029   F  0.350000       110.000       91.0000    
         3      8033   F  0.350000       110.000       269.000    
         3      8037   F  0.350000       110.000       91.0000    
         3      8041   F  0.350000       110.000       269.000    
         3      8045   F  0.350000       110.000       91.0000    
         3      8049   F  0.350000       110.000       269.000    
         3      8053   F  0.350000       110.000       91.0000    
         3      8057   F  0.350000       110.000       269.000    
         3      8061   F  0.350000       110.000       91.0000    
         3      8065   F  0.350000       110.000       269.000    
         3      8069   F  0.350000       110.000       91.0000    
         3      8073   F  0.350000       110.000       269.000    
         3      8077   F  0.350000       110.000       91.0000    
         3      8081   F  0.350000       110.000       269.000    
         3      8085   F  0.350000       110.000       91.0000    
         3      8089   F  0.350000       110.000       269.000    
         3      8093   F  0.350000       110.000       91.0000    
         3      8097   F  0.350000       110.000       269.000    
         3      8101   F  0.350000       110.000       91.0000    
         3      8105   F  0.350000       110.000       269.000    
         3      8109   F  0.350000       110.000       91.0000    
         3      8113   F  0.350000       110.000       269.000    
         3      8117   F  0.350000       110.000       91.0000    
         3      8121   F  0.350000       110.000       269.000    
         3      8125   F  0.350000       110.000       91.0000    
         3      8129   F  0.350000       110.000       269.000    
         3      8133   F  0.350000       110.000       91.0000    
         3      8137   F  0.350000       110.000       269.000    
         3      8141   F  0.350000       110.000       91.0000    
         3      8145   F  0.350000       110.000       269.000    
         3      8149   F  0.350000       110.000       91.0000    
         3      8153   F  0.350000       110.000       269.000    
         3      8157   F  0.350000       110.000       91.0000    
         3      8161   F  0.350000       110.000       269.000    
         3      8165   F  0.350000       110.000       91.0000    
         3      8169   F  0.350000       110.000       269.000    
         3      8173   F  0.350000       110.000       91.0000    
         3      8177   F  0.350000       110.000       269.000    
         3      8181   F  0.350000       110.000       91.0000    
         3      8185   F  0.350000       110.000       269.000    
         3      8189   F  0.350000       110.000       91.0000    
         3      8193   F  0.350000       110.000       269.000    
         3      8197   F  0.350000       110.000       91.0000    
         3      8201   F  0.350000       110.000       269.000    
         3      8205   F  0.350000       110.000       91.0000    
         3      8209   F  0.350000       110.000       269.000    
         3      8213   F  0.350000       110.000       91.0000    
         3      8217   F  0.350000       110.000       269.000    
         3      8221   F  0.350000       110.000       91.0000    
         3      8225   F  0.350000       110.000       269.000    
         3      8229   F  0.350000       110.000       91.0000    
         3      8233   F  0.350000       110.000       269.000    
         3      8237   F  0.350000       110.000       91.0000    
         3      8241   F  0.350000       110.000       269.000    
         3      8245   F  0.350000       110.000       91.0000    
         3      8249   F  0.350000       110.000       269.000    
         3      8253   F  0.350000       110.000       91.0000    
         3      8257   F  0.350000       110.000       269.000    
         3      8261   F  0.350000       110.000       91.0000    
         3      8265   F  0.350000       110.000       269.000    
         3      8269   F  0.350000       110.000       91.0000    
         3      8273   F  0.350000       110.000       269.000    
         3      8277   F  0.350000       110.000       91.0000    
         3      8281   F  0.350000       110.000       269.000    
         3      8285   F  0.350000       110.000       91.0000    
         3      8289   F  0.350000       110.000       269.000    
         3      8293   F  0.350000       110.000       91.0000    
         3      8297   F  0.350000       110.000       269.000    
         3      8301   F  0.350000       110.000       91.0000    
         3      8305   F  0.350000       110.000       269.000    
         3      8309   F  0.350000       110.000       91.0000    
         3      8313   F  0.350000       110.000       269.000    
         3      8317   F  0.350000       110.000       91.0000    
         3      8321   F  0.350000       110.000       269.000    
         3      8325   F  0.350000       110.000       91.0000    
         3      8329   F  0.350000       110.000       269.000    
         3      8333   F  0.350000       110.000       91.0000    
         3      8337   F  0.350000       110.000       269.000    
         3      8341   F  0.350000       110.000       91.0000    
         3      8345   F  0.350000       110.000       269.000    
         3      8349   F  0.350000       110.000       91.0000    
         3      8353   F  0.350000       110.000       269.000    
         3      8357   F  0.350000       110.000       91.0000    
         3      8361   F  0.350000       110.000       269.000    
         3      8365   F  0.350000       110.000       91.0000    
         3      8369   F  0.350000       110.000       269.000    
         3      8373   F  0.350000       110.000       91.0000    
         3      8377   F  0.350000       110.000       269.000    
         3      8381   F  0.350000       110.000       91.0000    
         3      8385   F  0.350000       110.000       269.000    
         3      8389   F  0.350000       110.000       91.0000    
         3      8393   F  0.350000       110.000       269.000    
         3      8397   F  0.350000       110.000       91.0000    
         3      8401   F  0.350000       110.000       269.000    
         3      8405   F  0.350000       110.000       91.0000    
         3      8409   F  0.350000       110.000       269.000    
         3      8413   F  0.350000       110.000       91.0000    
         3      8417   F  0.350000       110.000       269.000    
         3      8421   F  0.350000       110.000       91.0000    
         3      8425   F  0.350000       110.000       269.000    
         3      8429   F  0.350000       110.000       91.0000    
         3      8433   F  0.350000       110.000       269.000    
         3      8437   F  0.350000       110.000       91.0000    
         3      8441   F  0.350000       110.000       269.000    
         3      8445   F  0.350000       110.000       91.0000    
         3      8449   F  0.350000       110.000       269.000    
         3      8453   F  0.350000       110.000       91.0000    
         3      8457   F  0.350000       110.000       269.000    
         3      8461   F  0.350000       110.000       91.0000    
         3      8465   F  0.350000       110.000       269.000    
         3      8469   F  0.350000       110.000       91.0000    
         3      8473   F  0.350000       110.000       269.000    
         3      8477   F  0.350000       110.000       91.0000    
         3      8481   F  0.350000       110.000       269.000    
         3      8485   F  0.350000       110.000       91.0000    
         3      8489   F  0.350000       110.000       269.000    
         3      8493   F  0.350000       110.000       91.0000    
         3      8497   F  0.350000       110.000       269.000    
         3      8501   F  0.350000       110.000       91.0000    
         3      8505   F  0.350000       110.000       269.000    
         3      8509   F  0.350000       110.000       91.0000    
         3      8513   F  0.350000       110.000       269.000    
         3      8517   F  0.350000       110.000       91.0000    
         3      8521   F  0.350000       110.000       269.000    
         3      8525   F  0.350000       110.000       91.0000    
         3      8529   F  0.350000       110.000       269.000    
         3      8533   F  0.350000       110.000       91.0000    
         3      8537   F  0.350000       110.000       269.000    
         3      8541   F  0.350000       110.000       91.0000    
         3      8545   F  0.350000       110.000       269.000    
         3      8549   F  0.350000       110.000       91.0000    
         3      8553   F  0.350000       110.000       269.000    
         3      8557   F  0.350000       110.000       91.0000    
         3      8561   F  0.350000       110.000       269.000    
         3      8565   F  0.350000       110.000       91.0000    
         3      8569   F  0.350000       110.000       269.000    
         3      8573   F  0.350000       110.000       91.0000    
         3      8577   F  0.350000       110.000       269.000    
         3      8581   F  0.350000       110.000       91.0000    
         3      8585   F  0.350000       110.000       269.000    
         3      8589   F  0.350000       110.000       91.0000    
         3      8593   F  0.350000       110.000       269.000    
         3      8597   F  0.350000       110.000       91.0000    
         3      8601   F  0.350000       110.000       269.000    
         3      8605   F  0.350000       110.000       91.0000    
         3      8609   F  0.350000       110.000       269.000    
         3      8613   F  0.350000       110.000       91.0000    
         3      8617   F  0.350000       110.000       269.000    
         3      8621   F  0.350000       110.000       91.0000    
         3      8625   F  0.350000       110.000       269.000    
         3      8629   F  0.350000       110.000       91.0000    
         3      8633   F  0.350000       110.000       269.000    
         3      8637   F  0.350000       110.000       91.0000    
         3      8641   F  0.350000       110.000       269.000    
         3      8645   F  0.350000       110.000       91.0000    
         3      8649   F  0.350000       110.000       269.000    
         3      8653   F  0.350000       110.000       91.0000    
         3      8657   F  0.350000       110.000       269.000    
         3      8661   F  0.350000       110.000       91.0000    
         3      8665   F  0.350000       110.000       269.000    
         3      8669   F  0.350000       110.000       91.0000    
         3      8673   F  0.350000       110.000       269.000    
         3      8677   F  0.350000       110.000       91.0000    
         3      8681   F  0.350000       110.000       269.000    
         3      8685   F  0.350000       110.000       91.0000    
         3      8689   F  0.350000       110.000       269.000    
         3      8693   F  0.350000       110.000       91.0000    
         3      8697   F  0.350000       110.000       269.000    
         3      8701   F  0.350000       110.000       91.0000    
         3      8705   F  0.350000       110.000       269.000    
         3      8709   F  0.350000       110.000       91.0000    
         3      8713   F  0.350000       110.000       269.000    
         3      8717   F  0.350000       110.000       91.0000    
         3      8721   F  0.350000       110.000       269.000    
         3      8725   F  0.350000       110.000       91.0000    
         3      8729   F  0.350000       110.000       269.000    
         3      8733   F  0.350000       110.000       91.0000    
         3      8737   F  0.350000       110.000       269.000    
         3      8741   F  0.350000       110.000       91.0000    
         3      8745   F  0.350000       110.000       269.000    
         3      8749   F  0.350000       110.000       91.0000    
         3      8753   F  0.350000       110.000       269.000    
         3      8757   F  0.350000       110.000       91.0000    
         3      8761   F  0.350000       110.000       269.000    
         3      8765   F  0.350000       110.000       91.0000    
         3      8769   F  0.350000       110.000       269.000    
         3      8773   F  0.350000       110.000       91.0000    
         3      8777   F  0.350000       110.000       269.000    
         3      8781   F  0.350000       110.000       91.0000    
         3      8785   F  0.350000       110.000       269.000    
         3      8789   F  0.350000       110.000       91.0000    
         3      8793   F  0.350000       110.000       269.000    
         3      8797   F  0.350000       110.000       91.0000    
         3      8801   F  0.350000       110.000       269.000    
         3      8805   F  0.350000       110.000       91.0000    
         3      8809   F  0.350000       110.000       269.000    
         3      8813   F  0.350000       110.000       91.0000    
         3      8817   F  0.350000       110.000       269.000    
         3      8821   F  0.350000       110.000       91.0000    
         3      8825   F  0.350000       110.000       269.000    
         3      8829   F  0.350000       110.000       91.0000    
         3      8833   F  0.350000       110.000       269.000    
         3      8837   F  0.350000       110.000       91.0000    
         3      8841   F  0.350000       110.000       269.000    
         3      8845   F  0.350000       110.000       91.0000    
         3      8849   F  0.350000       110.000       269.000    
         3      8853   F  0.350000       110.000       91.0000    
         3      8857   F  0.350000       110.000       269.000    
         3      8861   F  0.350000       110.000       91.0000    
         3      8865   F  0.350000       110.000       269.000    
         3      8869   F  0.350000       110.000       91.0000    
         3      8873   F  0.350000       110.000       269.000    
         3      8877   F  0.350000       110.000       91.0000    
         3      8881   F  0.350000       110.000       269.000    
         3      8885   F  0.350000       110.000       91.0000    
         3      8889   F  0.350000       110.000       269.000    
         3      8893   F  0.350000       110.000       91.0000    
         3      8897   F  0.350000       110.000       269.000    
         3      8901   F  0.350000       110.000       91.0000    
         3      8905   F  0.350000       110.000       269.000    
         3      8909   F  0.350000       110.000       91.0000    
         3      8913   F  0.350000       110.000       269.000    
         3      8917   F  0.350000       110.000       91.0000    
         3      8921   F  0.350000       110.000       269.000    
         3      8925   F  0.350000       110.000       91.0000    
         3      8929   F  0.350000       110.000       269.000    
         3      8933   F  0.350000       110.000       91.0000    
         3      8937   F  0.350000       110.000       269.000    
         3      8941   F  0.350000       110.000       91.0000    
         3      8945   F  0.350000       110.000       269.000    
         3      8949   F  0.350000       110.000       91.0000    
         3      8953   F  0.350000       110.000       269.000    
         3      8957   F  0.350000       110.000       91.0000    
         3      8961   F  0.350000       110.000       269.000    
         3      8965   F  0.350000       110.000       91.0000    
         3      8969   F  0.350000       110.000       269.000    
         3      8973   F  0.350000       110.000       91.0000    
         3      8977   F  0.350000       110.000       269.000    
         3      8981   F  0.350000       110.000       91.0000    
         3      8985   F  0.350000       110.000       269.000    
         3      8989   F  0.350000       110.000       91.0000    
         3      8993   F  0.350000       110.000       269.000    
         3      8997   F  0.350000       110.000       91.0000    
         3      9001   F  0.350000       110.000       269.000    
         3      9005   F  0.350000       110.000       91.0000    
         3      9009   F  0.350000       110.000       269.000    
         3      9013   F  0.350000       110.000       91.0000    
         3      9017   F  0.350000       110.000       269.000    
         3      9021   F  0.350000       110.000       91.0000    
         3      9025   F  0.350000       110.000       269.000    
         3      9029   F  0.350000       110.000       91.0000    
         3      9033   F  0.350000       110.000       269.000    
         3      9037   F  0.350000       110.000       91.0000    
         3      9041   F  0.350000       110.000       269.000    
         3      9045   F  0.350000       110.000       91.0000    
         3      9049   F  0.350000       110.000       269.000    
         3      9053   F  0.350000       110.000       91.0000    
         3      9057   F  0.350000       110.000       269.000    
         3      9061   F  0.350000       110.000       91.0000    
         3      9065   F  0.350000       110.000       269.000    
         3      9069   F  0.350000       110.000       91.0000    
         3      9073   F  0.350000       110.000       269.000    
         3      9077   F  0.350000       110.000       91.0000    
         3      9081   F  0.350000       110.000       269.000    
         3      9085   F  0.350000       110.000       91.0000    
         3      9089   F  0.350000       110.000       269.000    
         3      9093   F  0.350000       110.000       91.0000    
         3      9097   F  0.350000       110.000       269.000    
         3      9101   F  0.350000       110.000       91.0000    
         3      9105   F  0.350000       110.000       269.000    
         3      9109   F  0.350000       110.000       91.0000    
         3      9113   F  0.350000       110.000       269.000    
         3      9117   F  0.350000       110.000       91.0000    
         3      9121   F  0.350000       110.000       269.000    
         3      9125   F  0.350000       110.000       91.0000    
         3      9129   F  0.350000       110.000       269.000    
         3      9133   F  0.350000       110.000       91.0000    
         3      9137   F  0.350000       110.000       269.000    
         3      9141   F  0.350000       110.000       91.0000    
         3      9145   F  0.350000       110.000       269.000    
         3      9149   F  0.350000       110.000       91.0000    
         3      9153   F  0.350000       110.000       269.000    
         3      9157   F  0.350000       110.000       91.0000    
         3      9161   F  0.350000       110.000       269.000    
         3      9165   F  0.350000       110.000       91.0000    
         3      9169   F  0.350000       110.000       269.000    
         3      9173   F  0.350000       110.000       91.0000    
         3      9177   F  0.350000       110.000       269.000    
         3      9181   F  0.350000       110.000       91.0000    
         3      9185   F  0.350000       110.000       269.000    
         3      9189   F  0.350000       110.000       91.0000    
         3      9193   F  0.350000       110.000       269.000    
         3      9197   F  0.350000       110.000       91.0000    
         3      9201   F  0.350000       110.000       269.000    
         3      9205   F  0.350000       110.000       91.0000    
         3      9209   F  0.350000       110.000       269.000    
         3      9213   F  0.350000       110.000       91.0000    
         3      9217   F  0.350000       110.000       269.000    
         3      9221   F  0.350000       110.000       91.0000    
         3      9225   F  0.350000       110.000       269.000    
         3      9229   F  0.350000       110.000       91.0000    
         3      9233   F  0.350000       110.000       269.000    
         3      9237   F  0.350000       110.000       91.0000    
         3      9241   F  0.350000       110.000       269.000    
         3      9245   F  0.350000       110.000       91.0000    
         3      9249   F  0.350000       110.000       269.000    
         3      9253   F  0.350000       110.000       91.0000    
         3      9257   F  0.350000       110.000       269.000    
         3      9261   F  0.350000       110.000       91.0000    
         3      9265   F  0.350000       110.000       269.000    
         3      9269   F  0.350000       110.000       91.0000    
         3      9273   F  0.350000       110.000       269.000    
         3      9277   F  0.350000       110.000       91.0000    
         3      9281   F  0.350000       110.000       269.000    
         3      9285   F  0.350000       110.000       91.0000    
         3      9289   F  0.350000       110.000       269.000    
         3      9293   F  0.350000       110.000       91.0000    
         3      9297   F  0.350000       110.000       269.000    
         3      9301   F  0.350000       110.000       91.0000    
         3      9305   F  0.350000       110.000       269.000    
         3      9309   F  0.350000       110.000       91.0000    
         3      9313   F  0.350000       110.000       269.000    
         3      9317   F  0.350000       110.000       91.0000    
         3      9321   F  0.350000       110.000       269.000    
         3      9325   F  0.350000       110.000       91.0000    
         3      9329   F  0.350000       110.000       269.000    
         3      9333   F  0.350000       110.000       91.0000    
         3      9337   F  0.350000       110.000       269.000    
         3      9341   F  0.350000       110.000       91.0000    
         3      9345   F  0.350000       110.000       269.000    
         3      9349   F  0.350000       110.000       91.0000    
         3      9353   F  0.350000       110.000       269.000    
         3      9357   F  0.350000       110.000       91.0000    
         3      9361   F  0.350000       110.000       269.000    
         3      9365   F  0.350000       110.000       91.0000    
         3      9369   F  0.350000       110.000       269.000    
         3      9373   F  0.350000       110.000       91.0000    
         3      9377   F  0.350000       110.000       269.000    
         3      9381   F  0.350000       110.000       91.0000    
         3      9385   F  0.350000       110.000       269.000    
         3      9389   F  0.350000       110.000       91.0000    
         3      9393   F  0.350000       110.000       269.000    
         3      9397   F  0.350000       110.000       91.0000    
         3      9401   F  0.350000       110.000       269.000    
         3      9405   F  0.350000       110.000       91.0000    
         3      9409   F  0.350000       110.000       269.000    
         3      9413   F  0.350000       110.000       91.0000    
         3      9417   F  0.350000       110.000       269.000    
         3      9421   F  0.350000       110.000       91.0000    
         3      9425   F  0.350000       110.000       269.000    
         3      9429   F  0.350000       110.000       91.0000    
         3      9433   F  0.350000       110.000       269.000    
         3      9437   F  0.350000       110.000       91.0000    
         3      9441   F  0.350000       110.000       269.000    
         3      9445   F  0.350000       110.000       91.0000    
         3      9449   F  0.350000       110.000       269.000    
         3      9453   F  0.350000       110.000       91.0000    
         3      9457   F  0.350000       110.000       269.000    
         3      9461   F  0.350000       110.000       91.0000    
         3      9465   F  0.350000       110.000       269.000    
         3      9469   F  0.350000       110.000       91.0000    
         3      9473   F  0.350000       110.000       269.000    
         3      9477   F  0.350000       110.000       91.0000    
         3      9481   F  0.350000       110.000       269.000    
         3      9485   F  0.350000       110.000       91.0000    
         3      9489   F  0.350000       110.000       269.000    
         3      9493   F  0.350000       110.000       91.0000    
         3      9497   F  0.350000       110.000       269.000    
         3      9501   F  0.350000       110.000       91.0000    
         3      9505   F  0.350000       110.000       269.000    
         3      9509   F  0.350000       110.000       91.0000    
         3      9513   F  0.350000       110.000       269.000    
         3      9517   F  0.350000       110.000       91.0000    
         3      9521   F  0.350000       110.000       269.000    
         3      9525   F  0.350000       110.000       91.0000    
         3      9529   F  0.350000       110.000       269.000    
         3      9533   F  0.350000       110.000       91.0000    
         3      9537   F  0.350000       110.000       269.000    
         3      9541   F  0.350000       110.000       91.0000    
         3      9545   F  0.350000       110.000       269.000    
         3      9549   F  0.350000       110.000       91.0000    
         3      9553   F  0.350000       110.000       269.000    
         3      9557   F  0.350000       110.000       91.0000    
         3      9561   F  0.350000       110.000       269.000    
         3      9565   F  0.350000       110.000       91.0000    
         3      9569   F  0.350000       110.000       269.000    
         3      9573   F  0.350000       110.000       91.0000    
         3      9577   F  0.350000       110.000       269.000    
         3      9581   F  0.350000       110.000       91.0000    
         3      9585   F  0.350000       110.000       269.000    
         3      9589   F  0.350000       110.000       91.0000    
         3      9593   F  0.350000       110.000       269.000    
         3      9597   F  0.350000       110.000       91.0000    
         3      9601   F  0.350000       110.000       269.000    
         3      9605   F  0.350000       110.000       91.0000    
         3      9609   F  0.350000       110.000       269.000    
         3      9613   F  0.350000       110.000       91.0000    
         3      9617   F  0.350000       110.000       269.000    
         3      9621   F  0.350000       110.000       91.0000    
         3      9625   F  0.350000       110.000       269.000    
         3      9629   F  0.350000       110.000       91.0000    
         3      9633   F  0.350000       110.000       269.000    
         3      9637   F  0.350000       110.000       91.0000    
         3      9641   F  0.350000       110.000       269.000    
         3      9645   F  0.350000       110.000       91.0000    
         3      9649   F  0.350000       110.000       269.000    
         3      9653   F  0.350000       110.000       91.0000    
         3      9657   F  0.350000       110.000       269.000    
         3      9661   F  0.350000       110.000       91.0000    
         3      9665   F  0.350000       110.000       269.000    
         3      9669   F  0.350000       110.000       91.0000    
         3      9673   F  0.350000       110.000       269.000    
         3      9677   F  0.350000       110.000       91.0000    
         3      9681   F  0.350000       110.000       269.000    
         3      9685   F  0.350000       110.000       91.0000    
         3      9689   F  0.350000       110.000       269.000    
         3      9693   F  0.350000       110.000       91.0000    
         3      9697   F  0.350000       110.000       269.000    
         3      9701   F  0.350000       110.000       91.0000    
         3      9705   F  0.350000       110.000       269.000    
         3      9709   F  0.350000       110.000       91.0000    
         3      9713   F  0.350000       110.000       269.000    
         3      9717   F  0.350000       110.000       91.0000    
         3      9721   F  0.350000       110.000       269.000    
         3      9725   F  0.350000       110.000       91.0000    
         3      9729   F  0.350000       110.000       269.000    
         3      9733   F  0.350000       110.000       91.0000    
         3      9737   F  0.350000       110.000       269.000    
         3      9741   F  0.350000       110.000       91.0000    
         3      9745   F  0.350000       110.000       269.000    
         3      9749   F  0.350000       110.000       91.0000    
         3      9753   F  0.350000       110.000       269.000    
         3      9757   F  0.350000       110.000       91.0000    
         3      9761   F  0.350000       110.000       269.000    
         3      9765   F  0.350000       110.000       91.0000    
         3      9769   F  0.350000       110.000       269.000    
         3      9773   F  0.350000       110.000       91.0000    
         3      9777   F  0.350000       110.000       269.000    
         3      9781   F  0.350000       110.000       91.0000    
         3      9785   F  0.350000       110.000       269.000    
         3      9789   F  0.350000       110.000       91.0000    
         3      9793   F  0.350000       110.000       269.000    
         3      9797   F  0.350000       110.000       91.0000    
         3      9801   F  0.350000       110.000       269.000    
         3      9805   F  0.350000       110.000       91.0000    
         3      9809   F  0.350000       110.000       269.000    
         3      9813   F  0.350000       110.000       91.0000    
         3      9817   F  0.350000       110.000       269.000    
         3      9821   F  0.350000       110.000       91.0000    
         3      9825   F  0.350000       110.000       269.000    
         3      9829   F  0.350000       110.000       91.0000    
         3      9833   F  0.350000       110.000       269.000    
         3      9837   F  0.350000       110.000       91.0000    
         3      9841   F  0.350000       110.000       269.000    
         3      9845   F  0.350000       110.000       91.0000    
         3      9849   F  0.350000       110.000       269.000    
         3      9853   F  0.350000       110.000       91.0000    
         3      9857   F  0.350000       110.000       269.000    
         3      9861   F  0.350000       110.000       91.0000    
         3      9865   F  0.350000       110.000       269.000    
         3      9869   F  0.350000       110.000       91.0000    
         3      9873   F  0.350000       110.000       269.000    
         3      9877   F  0.350000       110.000       91.0000    
         3      9881   F  0.350000       110.000       269.000    
         3      9885   F  0.350000       110.000       91.0000    
         3      9889   F  0.350000       110.000       269.000    
         3      9893   F  0.350000       110.000       91.0000    
         3      9897   F  0.350000       110.000       269.000    
         3      9901   F  0.350000       110.000       91.0000    
         3      9905   F  0.350000       110.000       269.000    
         3      9909   F  0.350000       110.000       91.0000    
         3      9913   F  0.350000       110.000       269.000    
         3      9917   F  0.350000       110.000       91.0000    
         3      9921   F  0.350000       110.000       269.000    
         3      9925   F  0.350000       110.000       91.0000    
         3      9929   F  0.350000       110.000       269.000    
         3      9933   F  0.350000       110.000       91.0000    
         3      9937   F  0.350000       110.000       269.000    
         3      9941   F  0.350000       110.000       91.0000    
         3      9945   F  0.350000       110.000       269.000    
         3      9949   F  0.350000       110.000       91.0000    
         3      9953   F  0.350000       110.000       269.000    
         3      9957   F  0.350000       110.000       91.0000    
         3      9961   F  0.350000       110.000       269.000    
         3      9965   F  0.350000       110.000       91.0000    
         3      9969   F  0.350000       110.000       269.000    
         3      9973   F  0.350000       110.000       91.0000    
         3      9977   F  0.350000       110.000       269.000    
         3      9981   F  0.350000       110.000       91.0000    
         3      9985   F  0.350000       110.000       269.000    
         3      9989   F  0.350000       110.000       91.0000    
         3      9993   F  0.350000       110.000       269.000    
         3      9997   F  0.350000       110.000       91.0000    
         3     10001   F  0.350000       110.000       269.000    
         3     10005   F  0.350000       110.000       91.0000    
         3     10009   F  0.350000       110.000       269.000    
         3     10013   F  0.350000       110.000       91.0000    
         3     10017   F  0.350000       110.000       269.000    
         3     10021   F  0.350000       110.000       91.0000    
         3     10025   F  0.350000       110.000       269.000    
         3     10029   F  0.350000       110.000       91.0000    
         3     10033   F  0.350000       110.000       269.000    
         3     10037   F  0.350000       110.000       91.0000    
         3     10041   F  0.350000       110.000       269.000    
         3     10045   F  0.350000       110.000       91.0000    
         3     10049   F  0.350000       110.000       269.000    
         3     10053   F  0.350000       110.000       91.0000    
         3     10057   F  0.350000       110.000       269.000    
         3     10061   F  0.350000       110.000       91.0000    
         3     10065   F  0.350000       110.000       269.000    
         3     10069   F  0.350000       110.000       91.0000    
         3     10073   F  0.350000       110.000       269.000    
         3     10077   F  0.350000       110.000       91.0000    
         3     10081   F  0.350000       110.000       269.000    
         3     10085   F  0.350000       110.000       91.0000    
         3     10089   F  0.350000       110.000       269.000    
         3     10093   F  0.350000       110.000       91.0000    
         3     10097   F  0.350000       110.000       269.000    
         3     10101   F  0.350000       110.000       91.0000    
         3     10105   F  0.350000       110.000       269.000    
         3     10109   F  0.350000       110.000       91.0000    
         3     10113   F  0.350000       110.000       269.000    
         3     10117   F  0.350000       110.000       91.0000    
         3     10121   F  0.350000       110.000       269.000    
         3     10125   F  0.350000       110.000       91.0000    
         3     10129   F  0.350000       110.000       269.000    
         3     10133   F  0.350000       110.000       91.0000    
         3     10137   F  0.350000       110.000       269.000    
         3     10141   F  0.350000       110.000       91.0000    
         3     10145   F  0.350000       110.000       269.000    
         3     10149   F  0.350000       110.000       91.0000    
         3     10153   F  0.350000       110.000       269.000    
         3     10157   F  0.350000       110.000       91.0000    
         3     10161   F  0.350000       110.000       269.000    
         3     10165   F  0.350000       110.000       91.0000    
         3     10169   F  0.350000       110.000       269.000    
         3     10173   F  0.350000       110.000       91.0000    
         3     10177   F  0.350000       110.000       269.000    
         3     10181   F  0.350000       110.000       91.0000    
         3     10185   F  0.350000       110.000       269.000    
         3     10189   F  0.350000       110.000       91.0000    
         3     10193   F  0.350000       110.000       269.000    
         3     10197   F  0.350000       110.000       91.0000    
         3     10201   F  0.350000       110.000       269.000    
         3     10205   F  0.350000       110.000       91.0000    
         3     10209   F  0.350000       110.000       269.000    
         3     10213   F  0.350000       110.000       91.0000    
         3     10217   F  0.350000       110.000       269.000    
         3     10221   F  0.350000       110.000       91.0000    
         3     10225   F  0.350000       110.000       269.000    
         3     10229   F  0.350000       110.000       91.0000    
         3     10233   F  0.350000       110.000       269.000    
         3     10237   F  0.350000       110.000       91.0000    
         3     10241   F  0.350000       110.000       269.000    
         3     10245   F  0.350000       110.000       91.0000    
         3     10249   F  0.350000       110.000       269.000    
         3     10253   F  0.350000       110.000       91.0000    
         3     10257   F  0.350000       110.000       269.000    
         3     10261   F  0.350000       110.000       91.0000    
         3     10265   F  0.350000       110.000       269.000    
         3     10269   F  0.350000       110.000       91.0000    
         3     10273   F  0.350000       110.000       269.000    
         3     10277   F  0.350000       110.000       91.0000    
         3     10281   F  0.350000       110.000       269.000    
         3     10285   F  0.350000       110.000       91.0000    
         3     10289   F  0.350000       110.000       269.000    
         3     10293   F  0.350000       110.000       91.0000    
         3     10297   F  0.350000       110.000       269.000    
         3     10301   F  0.350000       110.000       91.0000    
         3     10305   F  0.350000       110.000       269.000    
         3     10309   F  0.350000       110.000       91.0000    
         3     10313   F  0.350000       110.000       269.000    
         3     10317   F  0.350000       110.000       91.0000    
         3     10321   F  0.350000       110.000       269.000    
         3     10325   F  0.350000       110.000       91.0000    
         3     10329   F  0.350000       110.000       269.000    
         3     10333   F  0.350000       110.000       91.0000    
         3     10337   F  0.350000       110.000       269.000    
         3     10341   F  0.350000       110.000       91.0000    
         3     10345   F  0.350000       110.000       269.000    
         3     10349   F  0.350000       110.000       91.0000    
         3     10353   F  0.350000       110.000       269.000    
         3     10357   F  0.350000       110.000       91.0000    
         3     10361   F  0.350000       110.000       269.000    
         3     10365   F  0.350000       110.000       91.0000    
         3     10369   F  0.350000       110.000       269.000    
         3     10373   F  0.350000       110.000       91.0000    
         3     10377   F  0.350000       110.000       269.000    
         3     10381   F  0.350000       110.000       91.0000    
         3     10385   F  0.350000       110.000       269.000    
         3     10389   F  0.350000       110.000       91.0000    
         3     10393   F  0.350000       110.000       269.000    
         3     10397   F  0.350000       110.000       91.0000    
         3     10401   F  0.350000       110.000       269.000    
         3     10405   F  0.350000       110.000       91.0000    
         3     10409   F  0.350000       110.000       269.000    
         3     10413   F  0.350000       110.000       91.0000    
         3     10417   F  0.350000       110.000       269.000    
         3     10421   F  0.350000       110.000       91.0000    
         3     10425   F  0.350000       110.000       269.000    
         3     10429   F  0.350000       110.000       91.0000    
         3     10433   F  0.350000       110.000       269.000    
         3     10437   F  0.350000       110.000       91.0000    
         3     10441   F  0.350000       110.000       269.000    
         3     10445   F  0.350000       110.000       91.0000    
         3     10449   F  0.350000       110.000       269.000    
         3     10453   F  0.350000       110.000       91.0000    
         3     10457   F  0.350000       110.000       269.000    
         3     10461   F  0.350000       110.000       91.0000    
         3     10465   F  0.350000       110.000       269.000    
         3     10469   F  0.350000       110.000       91.0000    
         3     10473   F  0.350000       110.000       269.000    
         3     10477   F  0.350000       110.000       91.0000    
         3     10481   F  0.350000       110.000       269.000    
         3     10485   F  0.350000       110.000       91.0000    
         3     10489   F  0.350000       110.000       269.000    
         3     10493   F  0.350000       110.000       91.0000    
         3     10497   F  0.350000       110.000       269.000    
         3     10501   F  0.350000       110.000       91.0000    
         3     10505   F  0.350000       110.000       269.000    
         3     10509   F  0.350000       110.000       91.0000    
         3     10513   F  0.350000       110.000       269.000    
         3     10517   F  0.350000       110.000       91.0000    
         3     10521   F  0.350000       110.000       269.000    
         3     10525   F  0.350000       110.000       91.0000    
         3     10529   F  0.350000       110.000       269.000    
         3     10533   F  0.350000       110.000       91.0000    
         3     10537   F  0.350000       110.000       269.000    
         3     10541   F  0.350000       110.000       91.0000    
         3     10545   F  0.350000       110.000       269.000    
         3     10549   F  0.350000       110.000       91.0000    
         3     10553   F  0.350000       110.000       269.000    
         3     10557   F  0.350000       110.000       91.0000    
         3     10561   F  0.350000       110.000       269.000    
         3     10565   F  0.350000       110.000       91.0000    
         3     10569   F  0.350000       110.000       269.000    
         3     10573   F  0.350000       110.000       91.0000    
         3     10577   F  0.350000       110.000       269.000    
         3     10581   F  0.350000       110.000       91.0000    
         3     10585   F  0.350000       110.000       269.000    
         3     10589   F  0.350000       110.000       91.0000    
         3     10593   F  0.350000       110.000       269.000    
         3     10597   F  0.350000       110.000       91.0000    
         3     10601   F  0.350000       110.000       269.000    
         3     10605   F  0.350000       110.000       91.0000    
         3     10609   F  0.350000       110.000       269.000    
         3     10613   F  0.350000       110.000       91.0000    
         3     10617   F  0.350000       110.000       269.000    
         3     10621   F  0.350000       110.000       91.0000    
         3     10625   F  0.350000       110.000       269.000    
         3     10629   F  0.350000       110.000       91.0000    
         3     10633   F  0.350000       110.000       269.000    
         3     10637   F  0.350000       110.000       91.0000    
         3     10641   F  0.350000       110.000       269.000    
         3     10645   F  0.350000       110.000       91.0000    
         3     10649   F  0.350000       110.000       269.000    
         3     10653   F  0.350000       110.000       91.0000    
         3     10657   F  0.350000       110.000       269.000    
         3     10661   F  0.350000       110.000       91.0000    
         3     10665   F  0.350000       110.000       269.000    
         3     10669   F  0.350000       110.000       91.0000    
         3     10673   F  0.350000       110.000       269.000    
         3     10677   F  0.350000       110.000       91.0000    
         3     10681   F  0.350000       110.000       269.000    
         3     10685   F  0.350000       110.000       91.0000    
         3     10689   F  0.350000       110.000       269.000    
         3     10693   F  0.350000       110.000       91.0000    
         3     10697   F  0.350000       110.000       269.000    
         3     10701   F  0.350000       110.000       91.0000    
         3     10705   F  0.350000       110.000       269.000    
         3     10709   F  0.350000       110.000       91.0000    
         3     10713   F  0.350000       110.000       269.000    
         3     10717   F  0.350000       110.000       91.0000    
         3     10721   F  0.350000       110.000       269.000    
         3     10725   F  0.350000       110.000       91.0000    
         3     10729   F  0.350000       110.000       269.000    
         3     10733   F  0.350000       110.000       91.0000    
         3     10737   F  0.350000       110.000       269.000    
         3     10741   F  0.350000       110.000       91.0000    
         3     10745   F  0.350000       110.000       269.000    
         3     10749   F  0.350000       110.000       91.0000    
         3     10753   F  0.350000       110.000       269.000    
         3     10757   F  0.350000       110.000       91.0000    
         3     10761   F  0.350000       110.000       269.000    
         3     10765   F  0.350000       110.000       91.0000    
         3     10769   F  0.350000       110.000       269.000    
         3     10773   F  0.350000       110.000       91.0000    
         3     10777   F  0.350000       110.000       269.000    
         3     10781   F  0.350000       110.000       91.0000    
         3     10785   F  0.350000       110.000       269.000    
         3     10789   F  0.350000       110.000       91.0000    
         3     10793   F  0.350000       110.000       269.000    
         3     10797   F  0.350000       110.000       91.0000    
         3     10801   F  0.350000       110.000       269.000    
         3     10805   F  0.350000       110.000       91.0000    
         3     10809   F  0.350000       110.000       269.000    
         3     10813   F  0.350000       110.000       91.0000    
         3     10817   F  0.350000       110.000       269.000    
         3     10821   F  0.350000       110.000       91.0000    
         3     10825   F  0.350000       110.000       269.000    
         3     10829   F  0.350000       110.000       91.0000    
         3     10833   F  0.350000       110.000       269.000    
         3     10837   F  0.350000       110.000       91.0000    
         3     10841   F  0.350000       110.000       269.000    
         3     10845   F  0.350000       110.000       91.0000    
         3     10849   F  0.350000       110.000       269.000    
         3     10853   F  0.350000       110.000       91.0000    
         3     10857   F  0.350000       110.000       269.000    
         3     10861   F  0.350000       110.000       91.0000    
         3     10865   F  0.350000       110.000       269.000    
         3     10869   F  0.350000       110.000       91.0000    
         3     10873   F  0.350000       110.000       269.000    
         3     10877   F  0.350000       110.000       91.0000    
         3     10881   F  0.350000       110.000       269.000    
         3     10885   F  0.350000       110.000       91.0000    
         3     10889   F  0.350000       110.000       269.000    
         3     10893   F  0.350000       110.000       91.0000    
         3     10897   F  0.350000       110.000       269.000    
         3     10901   F  0.350000       110.000       91.0000    
         3     10905   F  0.350000       110.000       269.000    
         3     10909   F  0.350000       110.000       91.0000    
         3     10913   F  0.350000       110.000       269.000    
         3     10917   F  0.350000       110.000       91.0000    
         3     10921   F  0.350000       110.000       269.000    
         3     10925   F  0.350000       110.000       91.0000    
         3     10929   F  0.350000       110.000       269.000    
         3     10933   F  0.350000       110.000       91.0000    
         3     10937   F  0.350000       110.000       269.000    
         3     10941   F  0.350000       110.000       91.0000    
         3     10945   F  0.350000       110.000       269.000    
         3     10949   F  0.350000       110.000       91.0000    
         3     10953   F  0.350000       110.000       269.000    
         3     10957   F  0.350000       110.000       91.0000    
         3     10961   F  0.350000       110.000       269.000    
         3     10965   F  0.350000       110.000       91.0000    
         3     10969   F  0.350000       110.000       269.000    
         3     10973   F  0.350000       110.000       91.0000    
         3     10977   F  0.350000       110.000       269.000    
         3     10981   F  0.350000       110.000       91.0000    
         3     10985   F  0.350000       110.000       269.000    
         3     10989   F  0.350000       110.000       91.0000    
         3     10993   F  0.350000       110.000       269.000    
         3     10997   F  0.350000       110.000       91.0000    
         3     11001   F  0.350000       110.000       269.000    
         3     11005   F  0.350000       110.000       91.0000    
         3     11009   F  0.350000       110.000       269.000    
         3     11013   F  0.350000       110.000       91.0000    
         3     11017   F  0.350000       110.000       269.000    
         3     11021   F  0.350000       110.000       91.0000    
         3     11025   F  0.350000       110.000       269.000    
         3     11029   F  0.350000       110.000       91.0000    
         3     11033   F  0.350000       110.000       269.000    
         3     11037   F  0.350000       110.000       91.0000    
         3     11041   F  0.350000       110.000       269.000    
         3     11045   F  0.350000       110.000       91.0000    
         3     11049   F  0.350000       110.000       269.000    
         3     11053   F  0.350000       110.000       91.0000    
         3     11057   F  0.350000       110.000       269.000    
         3     11061   F  0.350000       110.000       91.0000    
         3     11065   F  0.350000       110.000       269.000    
         3     11069   F  0.350000       110.000       91.0000    
         3     11073   F  0.350000       110.000       269.000    
         3     11077   F  0.350000       110.000       91.0000    
         3     11081   F  0.350000       110.000       269.000    
         3     11085   F  0.350000       110.000       91.0000    
         3     11089   F  0.350000       110.000       269.000    
         3     11093   F  0.350000       110.000       91.0000    
         3     11097   F  0.350000       110.000       269.000    
         3     11101   F  0.350000       110.000       91.0000    
         3     11105   F  0.350000       110.000       269.000    
         3     11109   F  0.350000       110.000       91.0000    
         3     11113   F  0.350000       110.000       269.000    
         3     11117   F  0.350000       110.000       91.0000    
         3     11121   F  0.350000       110.000       269.000    
         3     11125   F  0.350000       110.000       91.0000    
         3     11129   F  0.350000       110.000       269.000    
         3     11133   F  0.350000       110.000       91.0000    
         3     11137   F  0.350000       110.000       269.000    
         3     11141   F  0.350000       110.000       91.0000    
         3     11145   F  0.350000       110.000       269.000    
         3     11149   F  0.350000       110.000       91.0000    
         3     11153   F  0.350000       110.000       269.000    
         3     11157   F  0.350000       110.000       91.0000    
         3     11161   F  0.350000       110.000       269.000    
         3     11165   F  0.350000       110.000       91.0000    
         3     11169   F  0.350000       110.000       269.000    
         3     11173   F  0.350000       110.000       91.0000    
         3     11177   F  0.350000       110.000       269.000    
         3     11181   F  0.350000       110.000       91.0000    
         3     11185   F  0.350000       110.000       269.000    
         3     11189   F  0.350000       110.000       91.0000    
         3     11193   F  0.350000       110.000       269.000    
         3     11197   F  0.350000       110.000       91.0000    
         3     11201   F  0.350000       110.000       269.000    
         3     11205   F  0.350000       110.000       91.0000    
         3     11209   F  0.350000       110.000       269.000    
         3     11213   F  0.350000       110.000       91.0000    
         3     11217   F  0.350000       110.000       269.000    
         3     11221   F  0.350000       110.000       91.0000    
         3     11225   F  0.350000       110.000       269.000    
         3     11229   F  0.350000       110.000       91.0000    
         3     11233   F  0.350000       110.000       269.000    
         3     11237   F  0.350000       110.000       91.0000    
         3     11241   F  0.350000       110.000       269.000    
         3     11245   F  0.350000       110.000       91.0000    
         3     11249   F  0.350000       110.000       269.000    
         3     11253   F  0.350000       110.000       91.0000    
         3     11257   F  0.350000       110.000       269.000    
         3     11261   F  0.350000       110.000       91.0000    
         3     11265   F  0.350000       110.000       269.000    
         3     11269   F  0.350000       110.000       91.0000    
         3     11273   F  0.350000       110.000       269.000    
         3     11277   F  0.350000       110.000       91.0000    
         3     11281   F  0.350000       110.000       269.000    
         3     11285   F  0.350000       110.000       91.0000    
         3     11289   F  0.350000       110.000       269.000    
         3     11293   F  0.350000       110.000       91.0000    
         3     11297   F  0.350000       110.000       269.000    
         3     11301   F  0.350000       110.000       91.0000    
         3     11305   F  0.350000       110.000       269.000    
         3     11309   F  0.350000       110.000       91.0000    
         3     11313   F  0.350000       110.000       269.000    
         3     11317   F  0.350000       110.000       91.0000    
         3     11321   F  0.350000       110.000       269.000    
         3     11325   F  0.350000       110.000       91.0000    
         3     11329   F  0.350000       110.000       269.000    
         3     11333   F  0.350000       110.000       91.0000    
         3     11337   F  0.350000       110.000       269.000    
         3     11341   F  0.350000       110.000       91.0000    
         3     11345   F  0.350000       110.000       269.000    
         3     11349   F  0.350000       110.000       91.0000    
         3     11353   F  0.350000       110.000       269.000    
         3     11357   F  0.350000       110.000       91.0000    
         3     11361   F  0.350000       110.000       269.000    
         3     11365   F  0.350000       110.000       91.0000    
         3     11369   F  0.350000       110.000       269.000    
         3     11373   F  0.350000       110.000       91.0000    
         3     11377   F  0.350000       110.000       269.000    
         3     11381   F  0.350000       110.000       91.0000    
         3     11385   F  0.350000       110.000       269.000    
         3     11389   F  0.350000       110.000       91.0000    
         3     11393   F  0.350000       110.000       269.000    
         3     11397   F  0.350000       110.000       91.0000    
         3     11401   F  0.350000       110.000       269.000    
         3     11405   F  0.350000       110.000       91.0000    
         3     11409   F  0.350000       110.000       269.000    
         3     11413   F  0.350000       110.000       91.0000    
         3     11417   F  0.350000       110.000       269.000    
         3     11421   F  0.350000       110.000       91.0000    
         3     11425   F  0.350000       110.000       269.000    
         3     11429   F  0.350000       110.000       91.0000    
         3     11433   F  0.350000       110.000       269.000    
         3     11437   F  0.350000       110.000       91.0000    
         3     11441   F  0.350000       110.000       269.000    
         3     11445   F  0.350000       110.000       91.0000    
         3     11449   F  0.350000       110.000       269.000    
         3     11453   F  0.350000       110.000       91.0000    
         3     11457   F  0.350000       110.000       269.000    
         3     11461   F  0.350000       110.000       91.0000    
         3     11465   F  0.350000       110.000       269.000    
         3     11469   F  0.350000       110.000       91.0000    
         3     11473   F  0.350000       110.000       269.000    
         3     11477   F  0.350000       110.000       91.0000    
         3     11481   F  0.350000       110.000       269.000    
         3     11485   F  0.350000       110.000       91.0000    
         3     11489   F  0.350000       110.000       269.000    
         3     11493   F  0.350000       110.000       91.0000    
         3     11497   F  0.350000       110.000       269.000    
         3     11501   F  0.350000       110.000       91.0000    
         3     11505   F  0.350000       110.000       269.000    
         3     11509   F  0.350000       110.000       91.0000    
         3     11513   F  0.350000       110.000       269.000    
         3     11517   F  0.350000       110.000       91.0000    
         3     11521   F  0.350000       110.000       269.000    
         3     11525   F  0.350000       110.000       91.0000    
         3     11529   F  0.350000       110.000       269.000    
         3     11533   F  0.350000       110.000       91.0000    
         3     11537   F  0.350000       110.000       269.000    
         3     11541   F  0.350000       110.000       91.0000    
         3     11545   F  0.350000       110.000       269.000    
         3     11549   F  0.350000       110.000       91.0000    
         3     11553   F  0.350000       110.000       269.000    
         3     11557   F  0.350000       110.000       91.0000    
         3     11561   F  0.350000       110.000       269.000    
         3     11565   F  0.350000       110.000       91.0000    
         3     11569   F  0.350000       110.000       269.000    
         3     11573   F  0.350000       110.000       91.0000    
         3     11577   F  0.350000       110.000       269.000    
         3     11581   F  0.350000       110.000       91.0000    
         3     11585   F  0.350000       110.000       269.000    
         3     11589   F  0.350000       110.000       91.0000    
         3     11593   F  0.350000       110.000       269.000    
         3     11597   F  0.350000       110.000       91.0000    
         3     11601   F  0.350000       110.000       269.000    
         3     11605   F  0.350000       110.000       91.0000    
         3     11609   F  0.350000       110.000       269.000    
         3     11613   F  0.350000       110.000       91.0000    
         3     11617   F  0.350000       110.000       269.000    
         3     11621   F  0.350000       110.000       91.0000    
         3     11625   F  0.350000       110.000       269.000    
         3     11629   F  0.350000       110.000       91.0000    
         3     11633   F  0.350000       110.000       269.000    
         3     11637   F  0.350000       110.000       91.0000    
         3     11641   F  0.350000       110.000       269.000    
         3     11645   F  0.350000       110.000       91.0000    
         3     11649   F  0.350000       110.000       269.000    
         3     11653   F  0.350000       110.000       91.0000    
         3     11657   F  0.350000       110.000       269.000    
         3     11661   F  0.350000       110.000       91.0000    
         3     11665   F  0.350000       110.000       269.000    
         3     11669   F  0.350000       110.000       91.0000    
         3     11673   F  0.350000       110.000       269.000    
         3     11677   F  0.350000       110.000       91.0000    
         3     11681   F  0.350000       110.000       269.000    
         3     11685   F  0.350000       110.000       91.0000    
         3     11689   F  0.350000       110.000       269.000    
         3     11693   F  0.350000       110.000       91.0000    
         3     11697   F  0.350000       110.000       269.000    
         3     11701   F  0.350000       110.000       91.0000    
         3     11705   F  0.350000       110.000       269.000    
         3     11709   F  0.350000       110.000       91.0000    
         3     11713   F  0.350000       110.000       269.000    
         3     11717   F  0.350000       110.000       91.0000    
         3     11721   F  0.350000       110.000       269.000    
         3     11725   F  0.350000       110.000       91.0000    
         3     11729   F  0.350000       110.000       269.000    
         3     11733   F  0.350000       110.000       91.0000    
         3     11737   F  0.350000       110.000       269.000    
         3     11741   F  0.350000       110.000       91.0000    
         3     11745   F  0.350000       110.000       269.000    
         3     11749   F  0.350000       110.000       91.0000    
         3     11753   F  0.350000       110.000       269.000    
         3     11757   F  0.350000       110.000       91.0000    
         3     11761   F  0.350000       110.000       269.000    
         3     11765   F  0.350000       110.000       91.0000    
         3     11769   F  0.350000       110.000       269.000    
         3     11773   F  0.350000       110.000       91.0000    
         3     11777   F  0.350000       110.000       269.000    
         3     11781   F  0.350000       110.000       91.0000    
         3     11785   F  0.350000       110.000       269.000    
         3     11789   F  0.350000       110.000       91.0000    
         3     11793   F  0.350000       110.000       269.000    
         3     11797   F  0.350000       110.000       91.0000    
         3     11801   F  0.350000       110.000       269.000    
         3     11805   F  0.350000       110.000       91.0000    
         3     11809   F  0.350000       110.000       269.000    
         3     11813   F  0.350000       110.000       91.0000    
         3     11817   F  0.350000       110.000       269.000    
         3     11821   F  0.350000       110.000       91.0000    
         3     11825   F  0.350000       110.000       269.000    
         3     11829   F  0.350000       110.000       91.0000    
         3     11833   F  0.350000       110.000       269.000    
         3     11837   F  0.350000       110.000       91.0000    
         3     11841   F  0.350000       110.000       269.000    
         3     11845   F  0.350000       110.000       91.0000    
         3     11849   F  0.350000       110.000       269.000    
         3     11853   F  0.350000       110.000       91.0000    
         3     11857   F  0.350000       110.000       269.000    
         3     11861   F  0.350000       110.000       91.0000    
         3     11865   F  0.350000       110.000       269.000    
         3     11869   F  0.350000       110.000       91.0000    
         3     11873   F  0.350000       110.000       269.000    
         3     11877   F  0.350000       110.000       91.0000    
         3     11881   F  0.350000       110.000       269.000    
         3     11885   F  0.350000       110.000       91.0000    
         3     11889   F  0.350000       110.000       269.000    
         3     11893   F  0.350000       110.000       91.0000    
         3     11897   F  0.350000       110.000       269.000    
         3     11901   F  0.350000       110.000       91.0000    
         3     11905   F  0.350000       110.000       269.000    
         3     11909   F  0.350000       110.000       91.0000    
         3     11913   F  0.350000       110.000       269.000    
         3     11917   F  0.350000       110.000       91.0000    
         3     11921   F  0.350000       110.000       269.000    
         3     11925   F  0.350000       110.000       91.0000    
         3     11929   F  0.350000       110.000       269.000    
         3     11933   F  0.350000       110.000       91.0000    
         3     11937   F  0.350000       110.000       269.000    
         3     11941   F  0.350000       110.000       91.0000    
         3     11945   F  0.350000       110.000       269.000    
         3     11949   F  0.350000       110.000       91.0000    
         3     11953   F  0.350000       110.000       269.000    
         3     11957   F  0.350000       110.000       91.0000    
         3     11961   F  0.350000       110.000       269.000    
         3     11965   F  0.350000       110.000       91.0000    
         3     11969   F  0.350000       110.000       269.000    
         3     11973   F  0.350000       110.000       91.0000    
         3     11977   F  0.350000       110.000       269.000    
         3     11981   F  0.350000       110.000       91.0000    
         3     11985   F  0.350000       110.000       269.000    
         3     11989   F  0.350000       110.000       91.0000    
         3     11993   F  0.350000       110.000       269.000    
         3     11997   F  0.350000       110.000       91.0000    
         3     12001   F  0.350000       110.000       269.000    
         3     12005   F  0.350000       110.000       91.0000    
         3     12009   F  0.350000       110.000       269.000    
         3     12013   F  0.350000       110.000       91.0000    
         3     12017   F  0.350000       110.000       269.000    
         3     12021   F  0.350000       110.000       91.0000    
         3     12025   F  0.350000       110.000       269.000    
         3     12029   F  0.350000       110.000       91.0000    
         3     12033   F  0.350000       110.000       269.000    
         3     12037   F  0.350000       110.000       91.0000    
         3     12041   F  0.350000       110.000       269.000    
         3     12045   F  0.350000       110.000       91.0000    
         3     12049   F  0.350000       110.000       269.000    
         3     12053   F  0.350000       110.000       91.0000    
         3     12057   F  0.350000       110.000       269.000    
         3     12061   F  0.350000       110.000       91.0000    
         3     12065   F  0.350000       110.000       269.000    
         3     12069   F  0.350000       110.000       91.0000    
         3     12073   F  0.350000       110.000       269.000    
         3     12077   F  0.350000       110.000       91.0000    
         3     12081   F  0.350000       110.000       269.000    
         3     12085   F  0.350000       110.000       91.0000    
         3     12089   F  0.350000       110.000       269.000    
         3     12093   F  0.350000       110.000       91.0000    
         3     12097   F  0.350000       110.000       269.000    
         3     12101   F  0.350000       110.000       91.0000    
         3     12105   F  0.350000       110.000       269.000    
         3     12109   F  0.350000       110.000       91.0000    
         3     12113   F  0.350000       110.000       269.000    
         3     12117   F  0.350000       110.000       91.0000    
         3     12121   F  0.350000       110.000       269.000    
         3     12125   F  0.350000       110.000       91.0000    
         3     12129   F  0.350000       110.000       269.000    
         3     12133   F  0.350000       110.000       91.0000    
         3     12137   F  0.350000       110.000       269.000    
         3     12141   F  0.350000       110.000       91.0000    
         3     12145   F  0.350000       110.000       269.000    
         3     12149   F  0.350000       110.000       91.0000    
         3     12153   F  0.350000       110.000       269.000    
         3     12157   F  0.350000       110.000       91.0000    
         3     12161   F  0.350000       110.000       269.000    
         3     12165   F  0.350000       110.000       91.0000    
         3     12169   F  0.350000       110.000       269.000    
         3     12173   F  0.350000       110.000       91.0000    
         3     12177   F  0.350000       110.000       269.000    
         3     12181   F  0.350000       110.000       91.0000    
         3     12185   F  0.350000       110.000       269.000    
         3     12189   F  0.350000       110.000       91.0000    
         3     12193   F  0.350000       110.000       269.000    
         3     12197   F  0.350000       110.000       91.0000    
         3     12201   F  0.350000       110.000       269.000    
         3     12205   F  0.350000       110.000       91.0000    
         3     12209   F  0.350000       110.000       269.000    
         3     12213   F  0.350000       110.000       91.0000    
         3     12217   F  0.350000       110.000       269.000    
         3     12221   F  0.350000       110.000       91.0000    
         3     12225   F  0.350000       110.000       269.000    
         3     12229   F  0.350000       110.000       91.0000    
         3     12233   F  0.350000       110.000       269.000    
         3     12237   F  0.350000       110.000       91.0000    
         3     12241   F  0.350000       110.000       269.000    
         3     12245   F  0.350000       110.000       91.0000    
         3     12249   F  0.350000       110.000       269.000    
         3     12253   F  0.350000       110.000       91.0000    
         3     12257   F  0.350000       110.000       269.000    
         3     12261   F  0.350000       110.000       91.0000    
         3     12265   F  0.350000       110.000       269.000    
         3     12269   F  0.350000       110.000       91.0000    
         3     12273   F  0.350000       110.000       269.000    
         3     12277   F  0.350000       110.000       91.0000    
         3     12281   F  0.350000       110.000       269.000    
         3     12285   F  0.350000       110.000       91.0000    
         3     12289   F  0.350000       110.000       269.000    
         3     12293   F  0.350000       110.000       91.0000    
         3     12297   F  0.350000       110.000       269.000    
         3     12301   F  0.350000       110.000       91.0000    
         3     12305   F  0.350000       110.000       269.000    
         3     12309   F  0.350000       110.000       91.0000    
         3     12313   F  0.350000       110.000       269.000    
         3     12317   F  0.350000       110.000       91.0000    
         3     12321   F  0.350000       110.000       269.000    
         3     12325   F  0.350000       110.000       91.0000    
         3     12329   F  0.350000       110.000       269.000    
         3     12333   F  0.350000       110.000       91.0000    
         3     12337   F  0.350000       110.000       269.000    
         3     12341   F  0.350000       110.000       91.0000    
         3     12345   F  0.350000       110.000       269.000    
         3     12349   F  0.350000       110.000       91.0000    
         3     12353   F  0.350000       110.000       269.000    
         3     12357   F  0.350000       110.000       91.0000    
         3     12361   F  0.350000       110.000       269.000    
         3     12365   F  0.350000       110.000       91.0000    
         3     12369   F  0.350000       110.000       269.000    
         3     12373   F  0.350000       110.000       91.0000    
         3     12377   F  0.350000       110.000       269.000    
         3     12381   F  0.350000       110.000       91.0000    
         3     12385   F  0.350000       110.000       269.000    
         3     12389   F  0.350000       110.000       91.0000    
         3     12393   F  0.350000       110.000       269.000    
         3     12397   F  0.350000       110.000       91.0000    
         3     12401   F  0.350000       110.000       269.000    
         3     12405   F  0.350000       110.000       91.0000    
         3     12409   F  0.350000       110.000       269.000    
         3     12413   F  0.350000       110.000       91.0000    
         3     12417   F  0.350000       110.000       269.000    
         3     12421   F  0.350000       110.000       91.0000    
         3     12425   F  0.350000       110.000       269.000    
         3     12429   F  0.350000       110.000       91.0000    
         3     12433   F  0.350000       110.000       269.000    
         3     12437   F  0.350000       110.000       91.0000    
         3     12441   F  0.350000       110.000       269.000    
         3     12445   F  0.350000       110.000       91.0000    
         3     12449   F  0.350000       110.000       269.000    
         3     12453   F  0.350000       110.000       91.0000    
         3     12457   F  0.350000       110.000       269.000    
         3     12461   F  0.350000       110.000       91.0000    
         3     12465   F  0.350000       110.000       269.000    
         3     12469   F  0.350000       110.000       91.0000    
         3     12473   F  0.350000       110.000       269.000    
         3     12477   F  0.350000       110.000       91.0000    
         3     12481   F  0.350000       110.000       269.000    
         3     12485   F  0.350000       110.000       91.0000    
         3     12489   F  0.350000       110.000       269.000    
         3     12493   F  0.350000       110.000       91.0000    
         3     12497   F  0.350000       110.000       269.000    
         3     12501   F  0.350000       110.000       91.0000    
         3     12505   F  0.350000       110.000       269.000    
         3     12509   F  0.350000       110.000       91.0000    
         3     12513   F  0.350000       110.000       269.000    
         3     12517   F  0.350000       110.000       91.0000    
         3     12521   F  0.350000       110.000       269.000    
         3     12525   F  0.350000       110.000       91.0000    
         3     12529   F  0.350000       110.000       269.000    
         3     12533   F  0.350000       110.000       91.0000    
         3     12537   F  0.350000       110.000       269.000    
         3     12541   F  0.350000       110.000       91.0000    
         3     12545   F  0.350000       110.000       269.000    
         3     12549   F  0.350000       110.000       91.0000    
         3     12553   F  0.350000       110.000       269.000    
         3     12557   F  0.350000       110.000       91.0000    
         3     12561   F  0.350000       110.000       269.000    
         3     12565   F  0.350000       110.000       91.0000    
         3     12569   F  0.350000       110.000       269.000    
         3     12573   F  0.350000       110.000       91.0000    
         3     12577   F  0.350000       110.000       269.000    
         3     12581   F  0.350000       110.000       91.0000    
         3     12585   F  0.350000       110.000       269.000    
         3     12589   F  0.350000       110.000       91.0000    
         3     12593   F  0.350000       110.000       269.000    
         3     12597   F  0.350000       110.000       91.0000    
         3     12601   F  0.350000       110.000       269.000    
         3     12605   F  0.350000       110.000       91.0000    
         3     12609   F  0.350000       110.000       269.000    
         3     12613   F  0.350000       110.000       91.0000    
         3     12617   F  0.350000       110.000       269.000    
         3     12621   F  0.350000       110.000       91.0000    
         3     12625   F  0.350000       110.000       269.000    
         3     12629   F  0.350000       110.000       91.0000    
         3     12633   F  0.350000       110.000       269.000    
         3     12637   F  0.350000       110.000       91.0000    
         3     12641   F  0.350000       110.000       269.000    
         3     12645   F  0.350000       110.000       91.0000    
         3     12649   F  0.350000       110.000       269.000    
         3     12653   F  0.350000       110.000       91.0000    
         3     12657   F  0.350000       110.000       269.000    
         3     12661   F  0.350000       110.000       91.0000    
         3     12665   F  0.350000       110.000       269.000    
         3     12669   F  0.350000       110.000       91.0000    
         3     12673   F  0.350000       110.000       269.000    
         3     12677   F  0.350000       110.000       91.0000    
         3     12681   F  0.350000       110.000       269.000    
         3     12685   F  0.350000       110.000       91.0000    
         3     12689   F  0.350000       110.000       269.000    
         3     12693   F  0.350000       110.000       91.0000    
         3     12697   F  0.350000       110.000       269.000    
         3     12701   F  0.350000       110.000       91.0000    
         3     12705   F  0.350000       110.000       269.000    
         3     12709   F  0.350000       110.000       91.0000    
         3     12713   F  0.350000       110.000       269.000    
         3     12717   F  0.350000       110.000       91.0000    
         3     12721   F  0.350000       110.000       269.000    
         3     12725   F  0.350000       110.000       91.0000    
         3     12729   F  0.350000       110.000       269.000    
         3     12733   F  0.350000       110.000       91.0000    
         3     12737   F  0.350000       110.000       269.000    
         3     12741   F  0.350000       110.000       91.0000    
         3     12745   F  0.350000       110.000       269.000    
         3     12749   F  0.350000       110.000       91.0000    
         3     12753   F  0.350000       110.000       269.000    
         3     12757   F  0.350000       110.000       91.0000    
         3     12761   F  0.350000       110.000       269.000    
         3     12765   F  0.350000       110.000       91.0000    
         3     12769   F  0.350000       110.000       269.000    
         3     12773   F  0.350000       110.000       91.0000    
         3     12777   F  0.350000       110.000       269.000    
         3     12781   F  0.350000       110.000       91.0000    
         3     12785   F  0.350000       110.000       269.000    
         3     12789   F  0.350000       110.000       91.0000    
         3     12793   F  0.350000       110.000       269.000    
         3     12797   F  0.350000       110.000       91.0000    
         3     12801   F  0.350000       110.000       269.000    
         3     12805   F  0.350000       110.000       91.0000    
         3     12809   F  0.350000       110.000       269.000    
         3     12813   F  0.350000       110.000       91.0000    
         3     12817   F  0.350000       110.000       269.000    
         3     12821   F  0.350000       110.000       91.0000    
         3     12825   F  0.350000       110.000       269.000    
         3     12829   F  0.350000       110.000       91.0000    
         3     12833   F  0.350000       110.000       269.000    
         3     12837   F  0.350000       110.000       91.0000    
         3     12841   F  0.350000       110.000       269.000    
         3     12845   F  0.350000       110.000       91.0000    
         3     12849   F  0.350000       110.000       269.000    
         3     12853   F  0.350000       110.000       91.0000    
         3     12857   F  0.350000       110.000       269.000    
         3     12861   F  0.350000       110.000       91.0000    
         3     12865   F  0.350000       110.000       269.000    
         3     12869   F  0.350000       110.000       91.0000    
         3     12873   F  0.350000       110.000       269.000    
         3     12877   F  0.350000       110.000       91.0000    
         3     12881   F  0.350000       110.000       269.000    
         3     12885   F  0.350000       110.000       91.0000    
         3     12889   F  0.350000       110.000       269.000    
         3     12893   F  0.350000       110.000       91.0000    
         3     12897   F  0.350000       110.000       269.000    
         3     12901   F  0.350000       110.000       91.0000    
         3     12905   F  0.350000       110.000       269.000    
         3     12909   F  0.350000       110.000       91.0000    
         3     12913   F  0.350000       110.000       269.000    
         3     12917   F  0.350000       110.000       91.0000    
         3     12921   F  0.350000       110.000       269.000    
         3     12925   F  0.350000       110.000       91.0000    
         3     12929   F  0.350000       110.000       269.000    
         3     12933   F  0.350000       110.000       91.0000    
         3     12937   F  0.350000       110.000       269.000    
         3     12941   F  0.350000       110.000       91.0000    
         3     12945   F  0.350000       110.000       269.000    
         3     12949   F  0.350000       110.000       91.0000    
         3     12953   F  0.350000       110.000       269.000    
         3     12957   F  0.350000       110.000       91.0000    
         3     12961   F  0.350000       110.000       269.000    
         3     12965   F  0.350000       110.000       91.0000    
         3     12969   F  0.350000       110.000       269.000    
         3     12973   F  0.350000       110.000       91.0000    
         3     12977   F  0.350000       110.000       269.000    
         3     12981   F  0.350000       110.000       91.0000    
         3     12985   F  0.350000       110.000       269.000    
         3     12989   F  0.350000       110.000       91.0000    
         3     12993   F  0.350000       110.000       269.000    
         3     12997   F  0.350000       110.000       91.0000    
         3     13001   F  0.350000       110.000       269.000    
         3     13005   F  0.350000       110.000       91.0000    
         3     13009   F  0.350000       110.000       269.000    
         3     13013   F  0.350000       110.000       91.0000    
         3     13017   F  0.350000       110.000       269.000    
         3     13021   F  0.350000       110.000       91.0000    
         3     13025   F  0.350000       110.000       269.000    
         3     13029   F  0.350000       110.000       91.0000    
         3     13033   F  0.350000       110.000       269.000    
         3     13037   F  0.350000       110.000       91.0000    
         3     13041   F  0.350000       110.000       269.000    
         3     13045   F  0.350000       110.000       91.0000    
         3     13049   F  0.350000       110.000       269.000    
         3     13053   F  0.350000       110.000       91.0000    
         3     13057   F  0.350000       110.000       269.000    
         3     13061   F  0.350000       110.000       91.0000    
         3     13065   F  0.350000       110.000       269.000    
         3     13069   F  0.350000       110.000       91.0000    
         3     13073   F  0.350000       110.000       269.000    
         3     13077   F  0.350000       110.000       91.0000    
         3     13081   F  0.350000       110.000       269.000    
         3     13085   F  0.350000       110.000       91.0000    
         3     13089   F  0.350000       110.000       269.000    
         3     13093   F  0.350000       110.000       91.0000    
         3     13097   F  0.350000       110.000       269.000    
         3     13101   F  0.350000       110.000       91.0000    
         3     13105   F  0.350000       110.000       269.000    
         3     13109   F  0.350000       110.000       91.0000    
         3     13113   F  0.350000       110.000       269.000    
         3     13117   F  0.350000       110.000       91.0000    
         3     13121   F  0.350000       110.000       269.000    
         3     13125   F  0.350000       110.000       91.0000    
         3     13129   F  0.350000       110.000       269.000    
         3     13133   F  0.350000       110.000       91.0000    
         3     13137   F  0.350000       110.000       269.000    
         3     13141   F  0.350000       110.000       91.0000    
         3     13145   F  0.350000       110.000       269.000    
         3     13149   F  0.350000       110.000       91.0000    
         3     13153   F  0.350000       110.000       269.000    
         3     13157   F  0.350000       110.000       91.0000    
         3     13161   F  0.350000       110.000       269.000    
         3     13165   F  0.350000       110.000       91.0000    
         3     13169   F  0.350000       110.000       269.000    
         3     13173   F  0.350000       110.000       91.0000    
         3     13177   F  0.350000       110.000       269.000    
         3     13181   F  0.350000       110.000       91.0000    
         3     13185   F  0.350000       110.000       269.000    
         3     13189   F  0.350000       110.000       91.0000    
         3     13193   F  0.350000       110.000       269.000    
         3     13197   F  0.350000       110.000       91.0000    
         3     13201   F  0.350000       110.000       269.000    
         3     13205   F  0.350000       110.000       91.0000    
         3     13209   F  0.350000       110.000       269.000    
         3     13213   F  0.350000       110.000       91.0000    
         3     13217   F  0.350000       110.000       269.000    
         3     13221   F  0.350000       110.000       91.0000    
         3     13225   F  0.350000       110.000       269.000    
         3     13229   F  0.350000       110.000       91.0000    
         3     13233   F  0.350000       110.000       269.000    
         3     13237   F  0.350000       110.000       91.0000    
         3     13241   F  0.350000       110.000       269.000    
         3     13245   F  0.350000       110.000       91.0000    
         3     13249   F  0.350000       110.000       269.000    
         3     13253   F  0.350000       110.000       91.0000    
         3     13257   F  0.350000       110.000       269.000    
         3     13261   F  0.350000       110.000       91.0000    
         3     13265   F  0.350000       110.000       269.000    
         3     13269   F  0.350000       110.000       91.0000    
         3     13273   F  0.350000       110.000       269.000    
         3     13277   F  0.350000       110.000       91.0000    
         3     13281   F  0.350000       110.000       269.000    
         3     13285   F  0.350000       110.000       91.0000    
         3     13289   F  0.350000       110.000       269.000    
         3     13293   F  0.350000       110.000       91.0000    
         3     13297   F  0.350000       110.000       269.000    
         3     13301   F  0.350000       110.000       91.0000    
         3     13305   F  0.350000       110.000       269.000    
         3     13309   F  0.350000       110.000       91.0000    
         3     13313   F  0.350000       110.000       269.000    
         3     13317   F  0.350000       110.000       91.0000    
         3     13321   F  0.350000       110.000       269.000    
         3     13325   F  0.350000       110.000       91.0000    
         3     13329   F  0.350000       110.000       269.000    
         3     13333   F  0.350000       110.000       91.0000    
         3     13337   F  0.350000       110.000       269.000    
         3     13341   F  0.350000       110.000       91.0000    
         3     13345   F  0.350000       110.000       269.000    
         3     13349   F  0.350000       110.000       91.0000    
         3     13353   F  0.350000       110.000       269.000    
         3     13357   F  0.350000       110.000       91.0000    
         3     13361   F  0.350000       110.000       269.000    
         3     13365   F  0.350000       110.000       91.0000    
         3     13369   F  0.350000       110.000       269.000    
         3     13373   F  0.350000       110.000       91.0000    
         3     13377   F  0.350000       110.000       269.000    
         3     13381   F  0.350000       110.000       91.0000    
         3     13385   F  0.350000       110.000       269.000    
         3     13389   F  0.350000       110.000       91.0000    
         3     13393   F  0.350000       110.000       269.000    
         3     13397   F  0.350000       110.000       91.0000    
         3     13401   F  0.350000       110.000       269.000    
         3     13405   F  0.350000       110.000       91.0000    
         3     13409   F  0.350000       110.000       269.000    
         3     13413   F  0.350000       110.000       91.0000    
         3     13417   F  0.350000       110.000       269.000    
         3     13421   F  0.350000       110.000       91.0000    
         3     13425   F  0.350000       110.000       269.000    
         3     13429   F  0.350000       110.000       91.0000    
         3     13433   F  0.350000       110.000       269.000    
         3     13437   F  0.350000       110.000       91.0000    
         3     13441   F  0.350000       110.000       269.000    
         3     13445   F  0.350000       110.000       91.0000    
         3     13449   F  0.350000       110.000       269.000    
         3     13453   F  0.350000       110.000       91.0000    
         3     13457   F  0.350000       110.000       269.000    
         3     13461   F  0.350000       110.000       91.0000    
         3     13465   F  0.350000       110.000       269.000    
         3     13469   F  0.350000       110.000       91.0000    
         3     13473   F  0.350000       110.000       269.000    
         3     13477   F  0.350000       110.000       91.0000    
         3     13481   F  0.350000       110.000       269.000    
         3     13485   F  0.350000       110.000       91.0000    
         3     13489   F  0.350000       110.000       269.000    
         3     13493   F  0.350000       110.000       91.0000    
         3     13497   F  0.350000       110.000       269.000    
         3     13501   F  0.350000       110.000       91.0000    
         3     13505   F  0.350000       110.000       269.000    
         3     13509   F  0.350000       110.000       91.0000    
         3     13513   F  0.350000       110.000       269.000    
         3     13517   F  0.350000       110.000       91.0000    
         3     13521   F  0.350000       110.000       269.000    
         3     13525   F  0.350000       110.000       91.0000    
         3     13529   F  0.350000       110.000       269.000    
         3     13533   F  0.350000       110.000       91.0000    
         3     13537   F  0.350000       110.000       269.000    
         3     13541   F  0.350000       110.000       91.0000    
         3     13545   F  0.350000       110.000       269.000    
         3     13549   F  0.350000       110.000       91.0000    
         3     13553   F  0.350000       110.000       269.000    
         3     13557   F  0.350000       110.000       91.0000    
         3     13561   F  0.350000       110.000       269.000    
         3     13565   F  0.350000       110.000       91.0000    
         3     13569   F  0.350000       110.000       269.000    
         3     13573   F  0.350000       110.000       91.0000    
         3     13577   F  0.350000       110.000       269.000    
         3     13581   F  0.350000       110.000       91.0000    
         3     13585   F  0.350000       110.000       269.000    
         3     13589   F  0.350000       110.000       91.0000    
         3     13593   F  0.350000       110.000       269.000    
         3     13597   F  0.350000       110.000       91.0000    
         3     13601   F  0.350000       110.000       269.000    
         3     13605   F  0.350000       110.000       91.0000    
         3     13609   F  0.350000       110.000       269.000    
         3     13613   F  0.350000       110.000       91.0000    
         3     13617   F  0.350000       110.000       269.000    
         3     13621   F  0.350000       110.000       91.0000    
         3     13625   F  0.350000       110.000       269.000    
         3     13629   F  0.350000       110.000       91.0000    
         3     13633   F  0.350000       110.000       269.000    
         3     13637   F  0.350000       110.000       91.0000    
         3     13641   F  0.350000       110.000       269.000    
         3     13645   F  0.350000       110.000       91.0000    
         3     13649   F  0.350000       110.000       269.000    
         3     13653   F  0.350000       110.000       91.0000    
         3     13657   F  0.350000       110.000       269.000    
         3     13661   F  0.350000       110.000       91.0000    
         3     13665   F  0.350000       110.000       269.000    
         3     13669   F  0.350000       110.000       91.0000    
         3     13673   F  0.350000       110.000       269.000    
         3     13677   F  0.350000       110.000       91.0000    
         3     13681   F  0.350000       110.000       269.000    
         3     13685   F  0.350000       110.000       91.0000    
         3     13689   F  0.350000       110.000       269.000    
         3     13693   F  0.350000       110.000       91.0000    
         3     13697   F  0.350000       110.000       269.000    
         3     13701   F  0.350000       110.000       91.0000    
         3     13705   F  0.350000       110.000       269.000    
         3     13709   F  0.350000       110.000       91.0000    
         3     13713   F  0.350000       110.000       269.000    
         3     13717   F  0.350000       110.000       91.0000    
         3     13721   F  0.350000       110.000       269.000    
         3     13725   F  0.350000       110.000       91.0000    
         3     13729   F  0.350000       110.000       269.000    
         3     13733   F  0.350000       110.000       91.0000    
         3     13737   F  0.350000       110.000       269.000    
         3     13741   F  0.350000       110.000       91.0000    
         3     13745   F  0.350000       110.000       269.000    
         3     13749   F  0.350000       110.000       91.0000    
         3     13753   F  0.350000       110.000       269.000    
         3     13757   F  0.350000       110.000       91.0000    
         3     13761   F  0.350000       110.000       269.000    
         3     13765   F  0.350000       110.000       91.0000    
         3     13769   F  0.350000       110.000       269.000    
         3     13773   F  0.350000       110.000       91.0000    
         3     13777   F  0.350000       110.000       269.000    
         3     13781   F  0.350000       110.000       91.0000    
         3     13785   F  0.350000       110.000       269.000    
         3     13789   F  0.350000       110.000       91.0000    
         3     13793   F  0.350000       110.000       269.000    
         3     13797   F  0.350000       110.000       91.0000    
         3     13801   F  0.350000       110.000       269.000    
         3     13805   F  0.350000       110.000       91.0000    
         3     13809   F  0.350000       110.000       269.000    
        20        17        14        11        40        37        34        31
        60        57        54        51        80        77        74        71
       100        97        94        91       120       117       114       111
       140       137       134       131       160       157       154       151
       180       177       174       171       200       197       194       191
       220       217       214       211       240       237       234       231
       260       257       254       251       280       277       274       271
       300       297       294       291       320       317       314       311
       340       337       334       331       360       357       354       351
       380       377       374       371       400       397       394       391
       420       417       414       411       440       437       434       431
       460       457       454       451       480       477       474       471
       500       497       494       491       520       517       514       511
       540       537       534       531       560       557       554       551
       580       577       574       571       600       597       594       591
       620       617       614       611       640       637       634       631
       660       657       654       651       674       668       661       663
       675       668       661       663       676       670       661       663
       677       670       661       663       691       685       678       680
       692       685       678       680       693       687       678       680
       694       687       678       680       708       702       695       697
       709       702       695       697       710       704       695       697
       711       704       695       697       725       719       712       714
       726       719       712       714       727       721       712       714
       728       721       712       714       742       736       729       731
       743       736       729       731       744       738       729       731
       745       738       729       731       759       753       746       748
       760       753       746       748       761       755       746       748
       762       755       746       748       776       770       763       765
       777       770       763       765       778       772       763       765
       779       772       763       765       793       787       780       782
       794       787       780       782       795       789       780       782
       796       789       780       782       810       804       797       799
       811       804       797       799       812       806       797       799
       813       806       797       799       827       821       814       816
       828       821       814       816       829       823       814       816
       830       823       814       816       844       838       831       833
       845       838       831       833       846       840       831       833
       847       840       831       833       861       855       848       850
       862       855       848       850       863       857       848       850
       864       857       848       850       878       872       865       867
       879       872       865       867       880       874       865       867
       881       874       865       867       895       889       882       884
       896       889       882       884       897       891       882       884
       898       891       882       884       912       906       899       901
       913       906       899       901       914       908       899       901
       915       908       899       901       929       923       916       918
       930       923       916       918       931       925       916       918
       932       925       916       918       946       940       933       935
       947       940       933       935       948       942       933       935
       949       942       933       935       963       957       950       952
       964       957       950       952       965       959       950       952
       966       959       950       952       980       974       967       969
       981       974       967       969       982       976       967       969
       983       976       967       969       997       991       984       986
       998       991       984       986       999       993       984       986
      1000       993       984       986      1014      1008      1001      1003
      1015      1008      1001      1003      1016      1010      1001      1003
      1017      1010      1001      1003      1031      1025      1018      1020
      1032      1025      1018      1020      1033      1027      1018      1020
      1034      1027      1018      1020      1048      1042      1035      1037
      1049      1042      1035      1037      1050      1044      1035      1037
      1051      1044      1035      1037      1065      1059      1052      1054
      1066      1059      1052      1054      1067      1061      1052      1054
      1068      1061      1052      1054      1082      1076      1069      1071
      1083      1076      1069      1071      1084      1078      1069      1071
      1085      1078      1069      1071      1099      1093      1086      1088
      1100      1093      1086      1088      1101      1095      1086      1088
      1102      1095      1086      1088      1116      1110      1103      1105
      1117      1110      1103      1105      1118      1112      1103      1105
      1119      1112      1103      1105      1133      1127      1120      1122
      1134      1127      1120      1122      1135      1129      1120      1122
      1136      1129      1120      1122      1150      1144      1137      1139
      1151      1144      1137      1139      1152      1146      1137      1139
      1153      1146      1137      1139      1167      1161      1154      1156
      1168      1161      1154      1156      1169      1163      1154      1156
      1170      1163      1154      1156      1184      1178      1171      1173
      1185      1178      1171      1173      1186      1180      1171      1173
      1187      1180      1171      1173      1201      1195      1188      1190
      1202      1195      1188      1190      1203      1197      1188      1190
      1204      1197      1188      1190      1218      1212      1205      1207
      1219      1212      1205      1207      1220      1214      1205      1207
      1221      1214      1205      1207      1241      1238      1235      1232
      1261      1258      1255      1252      1281      1278      1275      1272
      1301      1298      1295      1292      1321      1318      1315      1312
      1341      1338      1335      1332      1361      1358      1355      1352
      1381      1378      1375      1372      1401      1398      1395      1392
      1421      1418      1415      1412      1441      1438      1435      1432
      1461      1458      1455      1452      1481      1478      1475      1472
      1501      1498      1495      1492      1521      1518      1515      1512
      1541      1538      1535      1532      1561      1558      1555      1552
      1581      1578      1575      1572      1601      1598      1595      1592
      1621      1618      1615      1612      1641      1638      1635      1632
      1661      1658      1655      1652      1681      1678      1675      1672
      1701      1698      1695      1692      1721      1718      1715      1712
      1741      1738      1735      1732      1761      1758      1755      1752
      1781      1778      1775      1772      1801      1798      1795      1792
      1821      1818      1815      1812      1841      1838      1835      1832
      1861      1858      1855      1852      1881      1878      1875      1872
      1901      1898      1895      1892      1921      1918      1915      1912
      1941      1938      1935      1932      1961      1958      1955      1952
      1981      1978      1975      1972      2001      1998      1995      1992
      2021      2018      2015      2012      2041      2038      2035      2032
      2061      2058      2055      2052      2081      2078      2075      2072
      2101      2098      2095      2092      2121      2118      2115      2112
      2141      2138      2135      2132      2161      2158      2155      2152
      2181      2178      2175      2172      2201      2198      2195      2192
      2221      2218      2215      2212      2241      2238      2235      2232
      2261      2258      2255      2252      2281      2278      2275      2272
      2301      2298      2295      2292      2321      2318      2315      2312
      2341      2338      2335      2332      2361      2358      2355      2352
      2381      2378      2375      2372      2401      2398      2395      2392
      2421      2418      2415      2412      2441      2438      2435      2432
      2461      2458      2455      2452      2481      2478      2475      2472
      2501      2498      2495      2492      2521      2518      2515      2512
      2541      2538      2535      2532      2561      2558      2555      2552
      2581      2578      2575      2572      2601      2598      2595      2592
      2621      2618      2615      2612      2641      2638      2635      2632
      2661      2658      2655      2652      2681      2678      2675      2672
      2701      2698      2695      2692      2721      2718      2715      2712
      2741      2738      2735      2732      2761      2758      2755      2752
      2781      2778      2775      2772      2795      2789      2782      2791
      2796      2789      2782      2791      2797      2791      2782      2793
      2798      2791      2782      2793      2812      2806      2799      2808
      2813      2806      2799      2808      2814      2808      2799      2810
      2815      2808      2799      2810      2829      2823      2816      2825
      2830      2823      2816      2825      2831      2825      2816      2827
      2832      2825      2816      2827      2846      2840      2833      2842
      2847      2840      2833      2842      2848      2842      2833      2844
      2849      2842      2833      2844      2863      2857      2850      2859
      2864      2857      2850      2859      2865      2859      2850      2861
      2866      2859      2850      2861      2880      2874      2867      2876
      2881      2874      2867      2876      2882      2876      2867      2878
      2883      2876      2867      2878      2897      2891      2884      2893
      2898      2891      2884      2893      2899      2893      2884      2895
      2900      2893      2884      2895      2914      2908      2901      2910
      2915      2908      2901      2910      2916      2910      2901      2912
      2917      2910      2901      2912      2931      2925      2918      2927
      2932      2925      2918      2927      2933      2927      2918      2929
      2934      2927      2918      2929      2948      2942      2935      2944
      2949      2942      2935      2944      2950      2944      2935      2946
      2951      2944      2935      2946      2965      2959      2952      2961
      2966      2959      2952      2961      2967      2961      2952      2963
      2968      2961      2952      2963      2982      2976      2969      2978
      2983      2976      2969      2978      2984      2978      2969      2980
      2985      2978      2969      2980      2999      2993      2986      2995
      3000      2993      2986      2995      3001      2995      2986      2997
      3002      2995      2986      2997      3016      3010      3003      3012
      3017      3010      3003      3012      3018      3012      3003      3014
      3019      3012      3003      3014      3033      3027      3020      3029
      3034      3027      3020      3029      3035      3029      3020      3031
      3036      3029      3020      3031      3050      3044      3037      3046
      3051      3044      3037      3046      3052      3046      3037      3048
      3053      3046      3037      3048      3067      3061      3054      3063
      3068      3061      3054      3063      3069      3063      3054      3065
      3070      3063      3054      3065      3084      3078      3071      3080
      3085      3078      3071      3080      3086      3080      3071      3082
      3087      3080      3071      3082      3101      3095      3088      3097
      3102      3095      3088      3097      3103      3097      3088      3099
      3104      3097      3088      3099      3118      3112      3105      3114
      3119      3112      3105      3114      3120      3114      3105      3116
      3121      3114      3105      3116      3135      3129      3122      3131
      3136      3129      3122      3131      3137      3131      3122      3133
      3138      3131      3122      3133      3152      3146      3139      3148
      3153      3146      3139      3148      3154      3148      3139      3150
      3155      3148      3139      3150      3169      3163      3156      3165
      3170      3163      3156      3165      3171      3165      3156      3167
      3172      3165      3156      3167      3186      3180      3173      3182
      3187      3180      3173      3182      3188      3182      3173      3184
      3189      3182      3173      3184      3203      3197      3190      3199
      3204      3197      3190      3199      3205      3199      3190      3201
      3206      3199      3190      3201      3220      3214      3207      3216
      3221      3214      3207      3216      3222      3216      3207      3218
      3223      3216      3207      3218      3237      3231      3224      3233
      3238      3231      3224      3233      3239      3233      3224      3235
      3240      3233      3224      3235      3254      3248      3241      3250
      3255      3248      3241      3250      3256      3250      3241      3252
      3257      3250      3241      3252      3271      3265      3258      3267
      3272      3265      3258      3267      3273      3267      3258      3269
      3274      3267      3258      3269      3288      3282      3275      3284
      3289      3282      3275      3284      3290      3284      3275      3286
      3291      3284      3275      3286      3305      3299      3292      3301
      3306      3299      3292      3301      3307      3301      3292      3303
      3308      3301      3292      3303      3322      3316      3309      3318
      3323      3316      3309      3318      3324      3318      3309      3320
      3325      3318      3309      3320      3339      3333      3326      3335
      3340      3333      3326      3335      3341      3335      3326      3337
      3342      3335      3326      3337      3356      3350      3343      3352
      3357      3350      3343      3352      3358      3352      3343      3354
      3359      3352      3343      3354      3373      3367      3360      3369
      3374      3367      3360      3369      3375      3369      3360      3371
      3376      3369      3360      3371      3390      3384      3377      3386
      3391      3384      3377      3386      3392      3386      3377      3388
      3393      3386      3377      3388      3407      3401      3394      3403
      3408      3401      3394      3403      3409      3403      3394      3405
      3410      3403      3394      3405      3424      3418      3411      3420
      3425      3418      3411      3420      3426      3420      3411      3422
      3427      3420      3411      3422      3441      3435      3428      3437
      3442      3435      3428      3437      3443      3437      3428      3439
      3444      3437      3428      3439      3458      3452      3445      3454
      3459      3452      3445      3454      3460      3454      3445      3456
      3461      3454      3445      3456      3475      3469      3462      3471
      3476      3469      3462      3471      3477      3471      3462      3473
      3478      3471      3462      3473      3492      3486      3479      3488
      3493      3486      3479      3488      3494      3488      3479      3490
      3495      3488      3479      3490      3509      3503      3496      3505
      3510      3503      3496      3505      3511      3505      3496      3507
      3512      3505      3496      3507      3526      3520      3513      3522
      3527      3520      3513      3522      3528      3522      3513      3524
      3529      3522      3513      3524      3543      3537      3530      3539
      3544      3537      3530      3539      3545      3539      3530      3541
      3546      3539      3530      3541      3560      3554      3547      3556
      3561      3554      3547      3556      3562      3556      3547      3558
      3563      3556      3547      3558      3577      3571      3564      3573
      3578      3571      3564      3573      3579      3573      3564      3575
      3580      3573      3564      3575      3594      3588      3581      3590
      3595      3588      3581      3590      3596      3590      3581      3592
      3597      3590      3581      3592      3611      3605      3598      3607
      3612      3605      3598      3607      3613      3607      3598      3609
      3614      3607      3598      3609      3628      3622      3615      3624
      3629      3622      3615      3624      3630      3624      3615      3626
      3631      3624      3615      3626      3645      3639      3632      3641
      3646      3639      3632      3641      3647      3641      3632      3643
      3648      3641      3632      3643      3662      3656      3649      3658
      3663      3656      3649      3658      3664      3658      3649      3660
      3665      3658      3649      3660      3679      3673      3666      3675
      3680      3673      3666      3675      3681      3675      3666      3677
      3682      3675      3666      3677      3696      3690      3683      3692
      3697      3690      3683      3692      3698      3692      3683      3694
      3699      3692      3683      3694      3713      3707      3700      3709
      3714      3707      3700      3709      3715      3709      3700      3711
      3716      3709      3700      3711      3730      3724      3717      3726
      3731      3724      3717      3726      3732      3726      3717      3728
      3733      3726      3717      3728      3747      3741      3734      3743
      3748      3741      3734      3743      3749      3743      3734      3745
      3750      3743      3734      3745      3764      3758      3751      3760
      3765      3758      3751      3760      3766      3760      3751      3762
      3767      3760      3751      3762      3781      3775      3768      3777
      3782      3775      3768      3777      3783      3777      3768      3779
      3784      3777      3768      3779      3798      3792      3785      3794
      3799      3792      3785      3794      3800      3794      3785      3796
      3801      3794      3785      3796      3815      3809      3802      3811
      3816      3809      3802      3811      3817      3811      3802      3813
      3818      3811      3802      3813      3832      3826      3819      3828
      3833      3826      3819      3828      3834      3828      3819      3830
      3835      3828      3819      3830      3849      3843      3836      3845
      3850      3843      3836      3845      3851      3845      3836      3847
      3852      3845      3836      3847      3866      3860      3853      3862
      3867      3860      3853      3862      3868      3862      3853      3864
      3869      3862      3853      3864      3883      3877      3870      3879
      3884      3877      3870      3879      3885      3879      3870      3881
      3886      3879      3870      3881      3900      3894      3887      3896
      3901      3894      3887      3896      3902      3896      3887      3898
      3903      3896      3887      3898      3917      3911      3904      3913
      3918      3911      3904      3913      3919      3913      3904      3915
      3920      3913      3904      3915      3934      3928      3921      3930
      3935      3928      3921      3930      3936      3930      3921      3932
      3937      3930      3921      3932      3951      3945      3938      3947
      3952      3945      3938      3947      3953      3947      3938      3949
      3954      3947      3938      3949      3968      3962      3955      3964
      3969      3962      3955      3964      3970      3964      3955      3966
      3971      3964      3955      3966      3985      3979      3972      3981
      3986      3979      3972      3981      3987      3981      3972      3983
      3988      3981      3972      3983      4002      3996      3989      3998
      4003      3996      3989      3998      4004      3998      3989      4000
      4005      3998      3989      4000      4019      4013      4006      4015
      4020      4013      4006      4015      4021      4015      4006      4017
      4022      4015      4006      4017      4036      4030      4023      4032
      4037      4030      4023      4032      4038      4032      4023      4034
      4039      4032      4023      4034      4053      4047      4040      4049
      4054      4047      4040      4049      4055      4049      4040      4051
      4056      4049      4040      4051      4070      4064      4057      4066
      4071      4064      4057      4066      4072      4066      4057      4068
      4073      4066      4057      4068      4087      4081      4074      4083
      4088      4081      4074      4083      4089      4083      4074      4085
      4090      4083      4074      4085      4104      4098      4091      4100
      4105      4098      4091      4100      4106      4100      4091      4102
      4107      4100      4091      4102      4121      4115      4108      4117
      4122      4115      4108      4117      4123      4117      4108      4119
      4124      4117      4108      4119      4138      4132      4125      4134
      4139      4132      4125      4134      4140      4134      4125      4136
      4141      4134      4125      4136      4155      4149      4142      4151
      4156      4149      4142      4151      4157      4151      4142      4153
      4158      4151      4142      4153      4172      4166      4159      4168
      4173      4166      4159      4168      4174      4168      4159      4170
      4175      4168      4159      4170      4189      4183      4176      4185
      4190      4183      4176      4185      4191      4185      4176      4187
      4192      4185      4176      4187      4206      4200      4193      4202
      4207      4200      4193      4202      4208      4202      4193      4204
      4209      4202      4193      4204      4275      4228      4226      4224
      4276      4228      4226      4224      4277      4230      4226      4224
      4278      4230      4226      4224      4279      4232      4226      4224
      4280      4232      4226      4224      4281      4236      4234      4220
      4282      4236      4234      4220      4283      4238      4234      4220
      4284      4238      4234      4220      4285      4240      4234      4220
      4286      4240      4234      4220      4287      4258      4252      4274
      4288      4258      4252      4274      4289      4262      4260      4248
      4290      4262      4260      4248      4291      4264      4260      4248
      4292      4264      4260      4248      4293      4266      4260      4248
      4294      4266      4260      4248      4360      4313      4311      4309
      4361      4313      4311      4309      4362      4315      4311      4309
      4363      4315      4311      4309      4364      4317      4311      4309
      4365      4317      4311      4309      4366      4321      4319      4305
      4367      4321      4319      4305      4368      4323      4319      4305
      4369      4323      4319      4305      4370      4325      4319      4305
      4371      4325      4319      4305      4372      4343      4337      4359
      4373      4343      4337      4359      4374      4347      4345      4333
      4375      4347      4345      4333      4376      4349      4345      4333
      4377      4349      4345      4333      4378      4351      4345      4333
      4379      4351      4345      4333      4445      4398      4396      4394
      4446      4398      4396      4394      4447      4400      4396      4394
      4448      4400      4396      4394      4449      4402      4396      4394
      4450      4402      4396      4394      4451      4406      4404      4390
      4452      4406      4404      4390      4453      4408      4404      4390
      4454      4408      4404      4390      4455      4410      4404      4390
      4456      4410      4404      4390      4457      4428      4422      4444
      4458      4428      4422      4444      4459      4432      4430      4418
      4460      4432      4430      4418      4461      4434      4430      4418
      4462      4434      4430      4418      4463      4436      4430      4418
      4464      4436      4430      4418      4530      4483      4481      4479
      4531      4483      4481      4479      4532      4485      4481      4479
      4533      4485      4481      4479      4534      4487      4481      4479
      4535      4487      4481      4479      4536      4491      4489      4475
      4537      4491      4489      4475      4538      4493      4489      4475
      4539      4493      4489      4475      4540      4495      4489      4475
      4541      4495      4489      4475      4542      4513      4507      4529
      4543      4513      4507      4529      4544      4517      4515      4503
      4545      4517      4515      4503      4546      4519      4515      4503
      4547      4519      4515      4503      4548      4521      4515      4503
      4549      4521      4515      4503      4615      4568      4566      4564
      4616      4568      4566      4564      4617      4570      4566      4564
      4618      4570      4566      4564      4619      4572      4566      4564
      4620      4572      4566      4564      4621      4576      4574      4560
      4622      4576      4574      4560      4623      4578      4574      4560
      4624      4578      4574      4560      4625      4580      4574      4560
      4626      4580      4574      4560      4627      4598      4592      4614
      4628      4598      4592      4614      4629      4602      4600      4588
      4630      4602      4600      4588      4631      4604      4600      4588
      4632      4604      4600      4588      4633      4606      4600      4588
      4634      4606      4600      4588      4700      4653      4651      4649
      4701      4653      4651      4649      4702      4655      4651      4649
      4703      4655      4651      4649      4704      4657      4651      4649
      4705      4657      4651      4649      4706      4661      4659      4645
      4707      4661      4659      4645      4708      4663      4659      4645
      4709      4663      4659      4645      4710      4665      4659      4645
      4711      4665      4659      4645      4712      4683      4677      4699
      4713      4683      4677      4699      4714      4687      4685      4673
      4715      4687      4685      4673      4716      4689      4685      4673
      4717      4689      4685      4673      4718      4691      4685      4673
      4719      4691      4685      4673      4729      4722      4720      4724
      4730      4722      4720      4724      4740      4733      4731      4735
      4741      4733      4731      4735      4751      4744      4742      4746
      4752      4744      4742      4746      4762      4755      4753      4757
      4763      4755      4753      4757      4773      4766      4764      4768
      4774      4766      4764      4768      4784      4777      4775      4779
      4785      4777      4775      4779      4795      4788      4786      4790
      4796      4788      4786      4790      4806      4799      4797      4801
      4807      4799      4797      4801      4817      4810      4808      4812
      4818      4810      4808      4812      4828      4821      4819      4823
      4829      4821      4819      4823      4839      4832      4830      4834
      4840      4832      4830      4834      4850      4843      4841      4845
      4851      4843      4841      4845      4861      4854      4852      4856
      4862      4854      4852      4856      4872      4865      4863      4867
      4873      4865      4863      4867      4883      4876      4874      4878
      4884      4876      4874      4878      4894      4887      4885      4889
      4895      4887      4885      4889      4905      4898      4896      4900
      4906      4898      4896      4900      4916      4909      4907      4911
      4917      4909      4907      4911      4927      4920      4918      4922
      4928      4920      4918      4922      4938      4931      4929      4933
      4939      4931      4929      4933      4949      4942      4940      4944
      4950      4942      4940      4944      4960      4953      4951      4955
      4961      4953      4951      4955      4971      4964      4962      4966
      4972      4964      4962      4966      4982      4975      4973      4977
      4983      4975      4973      4977      4993      4986      4984      4988
      4994      4986      4984      4988      5004      4997      4995      4999
      5005      4997      4995      4999      5015      5008      5006      5010
      5016      5008      5006      5010      5026      5019      5017      5021
      5027      5019      5017      5021      5037      5030      5028      5032
      5038      5030      5028      5032      5048      5041      5039      5043
      5049      5041      5039      5043      5059      5052      5050      5054
      5060      5052      5050      5054      5070      5063      5061      5065
      5071      5063      5061      5065      5081      5074      5072      5076
      5082      5074      5072      5076      5092      5085      5083      5087
      5093      5085      5083      5087      5103      5096      5094      5098
      5104      5096      5094      5098      5114      5107      5105      5109
      5115      5107      5105      5109      5125      5118      5116      5120
      5126      5118      5116      5120      5136      5129      5127      5131
      5137      5129      5127      5131      5147      5140      5138      5142
      5148      5140      5138      5142      5158      5151      5149      5153
      5159      5151      5149      5153      5169      5162      5160      5164
      5170      5162      5160      5164      5180      5173      5171      5175
      5181      5173      5171      5175      5191      5184      5182      5186
      5192      5184      5182      5186      5202      5195      5193      5197
      5203      5195      5193      5197      5213      5206      5204      5208
      5214      5206      5204      5208      5224      5217      5215      5219
      5225      5217      5215      5219      5235      5228      5226      5230
      5236      5228      5226      5230      5246      5239      5237      5241
      5247      5239      5237      5241      5257      5250      5248      5252
      5258      5250      5248      5252      5268      5261      5259      5263
      5269      5261      5259      5263      5279      5272      5270      5274
      5280      5272      5270      5274      5290      5283      5281      5285
      5291      5283      5281      5285      5301      5294      5292      5296
      5302      5294      5292      5296      5312      5305      5303      5307
      5313      5305      5303      5307      5323      5316      5314      5318
      5324      5316      5314      5318      5334      5327      5325      5329
      5335      5327      5325      5329      5345      5338      5336      5340
      5346      5338      5336      5340      5356      5349      5347      5351
      5357      5349      5347      5351      5367      5360      5358      5362
      5368      5360      5358      5362      5378      5371      5369      5373
      5379      5371      5369      5373      5389      5382      5380      5384
      5390      5382      5380      5384      5400      5393      5391      5395
      5401      5393      5391      5395      5411      5404      5402      5406
      5412      5404      5402      5406      5422      5415      5413      5417
      5423      5415      5413      5417      5433      5426      5424      5428
      5434      5426      5424      5428      5444      5437      5435      5439
      5445      5437      5435      5439      5455      5448      5446      5450
      5456      5448      5446      5450      5466      5459      5457      5461
      5467      5459      5457      5461      5477      5470      5468      5472
      5478      5470      5468      5472      5488      5481      5479      5483
      5489      5481      5479      5483      5499      5492      5490      5494
      5500      5492      5490      5494      5510      5503      5501      5505
      5511      5503      5501      5505      5521      5514      5512      5516
      5522      5514      5512      5516      5532      5525      5523      5527
      5533      5525      5523      5527      5543      5536      5534      5538
      5544      5536      5534      5538      5554      5547      5545      5549
      5555      5547      5545      5549      5565      5558      5556      5560
      5566      5558      5556      5560      5576      5569      5567      5571
      5577      5569      5567      5571      5587      5580      5578      5582
      5588      5580      5578      5582      5598      5591      5589      5593
      5599      5591      5589      5593      5609      5602      5600      5604
      5610      5602      5600      5604      5620      5613      5611      5615
      5621      5613      5611      5615      5631      5624      5622      5626
      5632      5624      5622      5626      5642      5635      5633      5637
      5643      5635      5633      5637      5653      5646      5644      5648
      5654      5646      5644      5648      5664      5657      5655      5659
      5665      5657      5655      5659      5675      5668      5666      5670
      5676      5668      5666      5670      5686      5679      5677      5681
      5687      5679      5677      5681      5697      5690      5688      5692
      5698      5690      5688      5692      5708      5701      5699      5703
      5709      5701      5699      5703      5719      5712      5710      5714
      5720      5712      5710      5714      5730      5723      5721      5725
      5731      5723      5721      5725      5741      5734      5732      5736
      5742      5734      5732      5736      5752      5745      5743      5747
      5753      5745      5743      5747      5763      5756      5754      5758
      5764      5756      5754      5758      5774      5767      5765      5769
      5775      5767      5765      5769      5785      5778      5776      5780
      5786      5778      5776      5780      5796      5789      5787      5791
      5797      5789      5787      5791      5807      5800      5798      5802
      5808      5800      5798      5802      5818      5811      5809      5813
      5819      5811      5809      5813      5829      5822      5820      5824
      5830      5822      5820      5824      5840      5833      5831      5835
      5841      5833      5831      5835      5851      5844      5842      5846
      5852      5844      5842      5846      5862      5855      5853      5857
      5863      5855      5853      5857      5873      5866      5864      5868
      5874      5866      5864      5868      5884      5877      5875      5879
      5885      5877      5875      5879      5895      5888      5886      5890
      5896      5888      5886      5890      5906      5899      5897      5901
      5907      5899      5897      5901      5917      5910      5908      5912
      5918      5910      5908      5912      5928      5921      5919      5923
      5929      5921      5919      5923      5939      5932      5930      5934
      5940      5932      5930      5934      5950      5943      5941      5945
      5951      5943      5941      5945      5961      5954      5952      5956
      5962      5954      5952      5956      5972      5965      5963      5967
      5973      5965      5963      5967      5983      5976      5974      5978
      5984      5976      5974      5978      5994      5987      5985      5989
      5995      5987      5985      5989      6005      5998      5996      6000
      6006      5998      5996      6000      6016      6009      6007      6011
      6017      6009      6007      6011      6027      6020      6018      6022
      6028      6020      6018      6022      6038      6031      6029      6033
      6039      6031      6029      6033      6049      6042      6040      6044
      6050      6042      6040      6044      6060      6053      6051      6055
      6061      6053      6051      6055      6071      6064      6062      6066
      6072      6064      6062      6066      6082      6075      6073      6077
      6083      6075      6073      6077      6093      6086      6084      6088
      6094      6086      6084      6088      6104      6097      6095      6099
      6105      6097      6095      6099      6115      6108      6106      6110
      6116      6108      6106      6110      6126      6119      6117      6121
      6127      6119      6117      6121      6137      6130      6128      6132
      6138      6130      6128      6132      6148      6141      6139      6143
      6149      6141      6139      6143      6159      6152      6150      6154
      6160      6152      6150      6154      6170      6163      6161      6165
      6171      6163      6161      6165      6181      6174      6172      6176
      6182      6174      6172      6176      6192      6185      6183      6187
      6193      6185      6183      6187      6203      6196      6194      6198
      6204      6196      6194      6198      6214      6207      6205      6209
      6215      6207      6205      6209      6225      6218      6216      6220
      6226      6218      6216      6220      6236      6229      6227      6231
      6237      6229      6227      6231      6247      6240      6238      6242
      6248      6240      6238      6242      6258      6251      6249      6253
      6259      6251      6249      6253      6269      6262      6260      6264
      6270      6262      6260      6264      6280      6273      6271      6275
      6281      6273      6271      6275      6291      6284      6282      6286
      6292      6284      6282      6286      6302      6295      6293      6297
      6303      6295      6293      6297      6313      6306      6304      6308
      6314      6306      6304      6308      6324      6317      6315      6319
      6325      6317      6315      6319      6335      6328      6326      6330
      6336      6328      6326      6330      6346      6339      6337      6341
      6347      6339      6337      6341      6357      6350      6348      6352
      6358      6350      6348      6352      6368      6361      6359      6363
      6369      6361      6359      6363      6379      6372      6370      6374
      6380      6372      6370      6374      6390      6383      6381      6385
      6391      6383      6381      6385      6401      6394      6392      6396
      6402      6394      6392      6396      6412      6405      6403      6407
      6413      6405      6403      6407      6423      6416      6414      6418
      6424      6416      6414      6418      6434      6427      6425      6429
      6435      6427      6425      6429      6445      6438      6436      6440
      6446      6438      6436      6440      6456      6449      6447      6451
      6457      6449      6447      6451      6467      6460      6458      6462
      6468      6460      6458      6462      6478      6471      6469      6473
      6479      6471      6469      6473      6489      6482      6480      6484
      6490      6482      6480      6484      6500      6493      6491      6495
      6501      6493      6491      6495      6511      6504      6502      6506
      6512      6504      6502      6506      6522      6515      6513      6517
      6523      6515      6513      6517      6533      6526      6524      6528
      6534      6526      6524      6528      6544      6537      6535      6539
      6545      6537      6535      6539      6555      6548      6546      6550
      6556      6548      6546      6550      6566      6559      6557      6561
      6567      6559      6557      6561      6577      6570      6568      6572
      6578      6570      6568      6572      6588      6581      6579      6583
      6589      6581      6579      6583      6599      6592      6590      6594
      6600      6592      6590      6594      6610      6603      6601      6605
      6611      6603      6601      6605      6621      6614      6612      6616
      6622      6614      6612      6616      6632      6625      6623      6627
      6633      6625      6623      6627      6643      6636      6634      6638
      6644      6636      6634      6638      6654      6647      6645      6649
      6655      6647      6645      6649      6665      6658      6656      6660
      6666      6658      6656      6660      6676      6669      6667      6671
      6677      6669      6667      6671      6687      6680      6678      6682
      6688      6680      6678      6682      6698      6691      6689      6693
      6699      6691      6689      6693      6709      6702      6700      6704
      6710      6702      6700      6704      6720      6713      6711      6715
      6721      6713      6711      6715      6731      6724      6722      6726
      6732      6724      6722      6726      6742      6735      6733      6737
      6743      6735      6733      6737      6753      6746      6744      6748
      6754      6746      6744      6748      6764      6757      6755      6759
      6765      6757      6755      6759      6775      6768      6766      6770
      6776      6768      6766      6770      6786      6779      6777      6781
      6787      6779      6777      6781      6797      6790      6788      6792
      6798      6790      6788      6792      6808      6801      6799      6803
      6809      6801      6799      6803      6819      6812      6810      6814
      6820      6812      6810      6814      6830      6823      6821      6825
      6831      6823      6821      6825      6841      6834      6832      6836
      6842      6834      6832      6836      6852      6845      6843      6847
      6853      6845      6843      6847      6863      6856      6854      6858
      6864      6856      6854      6858      6874      6867      6865      6869
      6875      6867      6865      6869      6885      6878      6876      6880
      6886      6878      6876      6880      6896      6889      6887      6891
      6897      6889      6887      6891      6907      6900      6898      6902
      6908      6900      6898      6902      6918      6911      6909      6913
      6919      6911      6909      6913      6929      6922      6920      6924
      6930      6922      6920      6924      6940      6933      6931      6935
      6941      6933      6931      6935      6951      6944      6942      6946
      6952      6944      6942      6946      6962      6955      6953      6957
      6963      6955      6953      6957      6973      6966      6964      6968
      6974      6966      6964      6968      6984      6977      6975      6979
      6985      6977      6975      6979      6995      6988      6986      6990
      6996      6988      6986      6990      7006      6999      6997      7001
      7007      6999      6997      7001      7017      7010      7008      7012
      7018      7010      7008      7012      7028      7021      7019      7023
      7029      7021      7019      7023      7039      7032      7030      7034
      7040      7032      7030      7034      7050      7043      7041      7045
      7051      7043      7041      7045      7061      7054      7052      7056
      7062      7054      7052      7056      7072      7065      7063      7067
      7073      7065      7063      7067      7083      7076      7074      7078
      7084      7076      7074      7078      7094      7087      7085      7089
      7095      7087      7085      7089      7105      7098      7096      7100
      7106      7098      7096      7100      7116      7109      7107      7111
      7117      7109      7107      7111      7127      7120      7118      7122
      7128      7120      7118      7122      7138      7131      7129      7133
      7139      7131      7129      7133      7149      7142      7140      7144
      7150      7142      7140      7144      7160      7153      7151      7155
      7161      7153      7151      7155      7171      7164      7162      7166
      7172      7164      7162      7166      7182      7175      7173      7177
      7183      7175      7173      7177      7193      7186      7184      7188
      7194      7186      7184      7188      7204      7197      7195      7199
      7205      7197      7195      7199      7215      7208      7206      7210
      7216      7208      7206      7210      7226      7219      7217      7221
      7227      7219      7217      7221      7237      7230      7228      7232
      7238      7230      7228      7232      7248      7241      7239      7243
      7249      7241      7239      7243      7259      7252      7250      7254
      7260      7252      7250      7254      7270      7263      7261      7265
      7271      7263      7261      7265      7281      7274      7272      7276
      7282      7274      7272      7276      7292      7285      7283      7287
      7293      7285      7283      7287      7303      7296      7294      7298
      7304      7296      7294      7298      7314      7307      7305      7309
      7315      7307      7305      7309      7325      7318      7316      7320
      7326      7318      7316      7320      7336      7329      7327      7331
      7337      7329      7327      7331      7347      7340      7338      7342
      7348      7340      7338      7342      7358      7351      7349      7353
      7359      7351      7349      7353      7369      7362      7360      7364
      7370      7362      7360      7364      7380      7373      7371      7375
      7381      7373      7371      7375      7391      7384      7382      7386
      7392      7384      7382      7386      7402      7395      7393      7397
      7403      7395      7393      7397      7413      7406      7404      7408
      7414      7406      7404      7408      7424      7417      7415      7419
      7425      7417      7415      7419      7435      7428      7426      7430
      7436      7428      7426      7430      7446      7439      7437      7441
      7447      7439      7437      7441      7457      7450      7448      7452
      7458      7450      7448      7452      7468      7461      7459      7463
      7469      7461      7459      7463      7479      7472      7470      7474
      7480      7472      7470      7474      7490      7483      7481      7485
      7491      7483      7481      7485      7501      7494      7492      7496
      7502      7494      7492      7496      7512      7505      7503      7507
      7513      7505      7503      7507      7523      7516      7514      7518
      7524      7516      7514      7518      7534      7527      7525      7529
      7535      7527      7525      7529      7545      7538      7536      7540
      7546      7538      7536      7540      7556      7549      7547      7551
      7557      7549      7547      7551      7567      7560      7558      7562
      7568      7560      7558      7562      7578      7571      7569      7573
      7579      7571      7569      7573      7589      7582      7580      7584
      7590      7582      7580      7584      7600      7593      7591      7595
      7601      7593      7591      7595      7611      7604      7602      7606
      7612      7604      7602      7606      7622      7615      7613      7617
      7623      7615      7613      7617      7633      7626      7624      7628
      7634      7626      7624      7628      7644      7637      7635      7639
      7645      7637      7635      7639      7655      7648      7646      7650
      7656      7648      7646      7650      7666      7659      7657      7661
      7667      7659      7657      7661      7677      7670      7668      7672
      7678      7670      7668      7672      7688      7681      7679      7683
      7689      7681      7679      7683      7699      7692      7690      7694
      7700      7692      7690      7694      7710      7703      7701      7705
      7711      7703      7701      7705      7721      7714      7712      7716
      7722      7714      7712      7716      7732      7725      7723      7727
      7733      7725      7723      7727      7743      7736      7734      7738
      7744      7736      7734      7738      7754      7747      7745      7749
      7755      7747      7745      7749      7765      7758      7756      7760
      7766      7758      7756      7760      7776      7769      7767      7771
      7777      7769      7767      7771      7787      7780      7778      7782
      7788      7780      7778      7782      7798      7791      7789      7793
      7799      7791      7789      7793      7809      7802      7800      7804
      7810      7802      7800      7804      7820      7813      7811      7815
      7821      7813      7811      7815      7831      7824      7822      7826
      7832      7824      7822      7826      7842      7835      7833      7837
      7843      7835      7833      7837      7853      7846      7844      7848
      7854      7846      7844      7848      7864      7857      7855      7859
      7865      7857      7855      7859      7875      7868      7866      7870
      7876      7868      7866      7870      7886      7879      7877      7881
      7887      7879      7877      7881      7897      7890      7888      7892
      7898      7890      7888      7892      7908      7901      7899      7903
      7909      7901      7899      7903      7919      7912      7910      7914
      7920      7912      7910      7914      7930      7923      7921      7925
      7931      7923      7921      7925      7941      7934      7932      7936
      7942      7934      7932      7936      7952      7945      7943      7947
      7953      7945      7943      7947      7963      7956      7954      7958
      7964      7956      7954      7958      7974      7967      7965      7969
      7975      7967      7965      7969      7985      7978      7976      7980
      7986      7978      7976      7980      7996      7989      7987      7991
      7997      7989      7987      7991      8007      8000      7998      8002
      8008      8000      7998      8002      8018      8011      8009      8013
      8019      8011      8009      8013      8029      8022      8020      8024
      8030      8022      8020      8024      8040      8033      8031      8035
      8041      8033      8031      8035      8051      8044      8042      8046
      8052      8044      8042      8046      8062      8055      8053      8057
      8063      8055      8053      8057      8073      8066      8064      8068
      8074      8066      8064      8068      8084      8077      8075      8079
      8085      8077      8075      8079      8095      8088      8086      8090
      8096      8088      8086      8090      8106      8099      8097      8101
      8107      8099      8097      8101      8117      8110      8108      8112
      8118      8110      8108      8112      8128      8121      8119      8123
      8129      8121      8119      8123      8139      8132      8130      8134
      8140      8132      8130      8134      8150      8143      8141      8145
      8151      8143      8141      8145      8161      8154      8152      8156
      8162      8154      8152      8156      8172      8165      8163      8167
      8173      8165      8163      8167      8183      8176      8174      8178
      8184      8176      8174      8178      8194      8187      8185      8189
      8195      8187      8185      8189      8205      8198      8196      8200
      8206      8198      8196      8200      8216      8209      8207      8211
      8217      8209      8207      8211      8227      8220      8218      8222
      8228      8220      8218      8222      8238      8231      8229      8233
      8239      8231      8229      8233      8249      8242      8240      8244
      8250      8242      8240      8244      8260      8253      8251      8255
      8261      8253      8251      8255      8271      8264      8262      8266
      8272      8264      8262      8266      8282      8275      8273      8277
      8283      8275      8273      8277      8293      8286      8284      8288
      8294      8286      8284      8288      8304      8297      8295      8299
      8305      8297      8295      8299      8315      8308      8306      8310
      8316      8308      8306      8310      8326      8319      8317      8321
      8327      8319      8317      8321      8337      8330      8328      8332
      8338      8330      8328      8332      8348      8341      8339      8343
      8349      8341      8339      8343      8359      8352      8350      8354
      8360      8352      8350      8354      8370      8363      8361      8365
      8371      8363      8361      8365      8381      8374      8372      8376
      8382      8374      8372      8376      8392      8385      8383      8387
      8393      8385      8383      8387      8403      8396      8394      8398
      8404      8396      8394      8398      8414      8407      8405      8409
      8415      8407      8405      8409      8425      8418      8416      8420
      8426      8418      8416      8420      8436      8429      8427      8431
      8437      8429      8427      8431      8447      8440      8438      8442
      8448      8440      8438      8442      8458      8451      8449      8453
      8459      8451      8449      8453      8469      8462      8460      8464
      8470      8462      8460      8464      8480      8473      8471      8475
      8481      8473      8471      8475      8491      8484      8482      8486
      8492      8484      8482      8486      8502      8495      8493      8497
      8503      8495      8493      8497      8513      8506      8504      8508
      8514      8506      8504      8508      8524      8517      8515      8519
      8525      8517      8515      8519      8535      8528      8526      8530
      8536      8528      8526      8530      8546      8539      8537      8541
      8547      8539      8537      8541      8557      8550      8548      8552
      8558      8550      8548      8552      8568      8561      8559      8563
      8569      8561      8559      8563      8579      8572      8570      8574
      8580      8572      8570      8574      8590      8583      8581      8585
      8591      8583      8581      8585      8601      8594      8592      8596
      8602      8594      8592      8596      8612      8605      8603      8607
      8613      8605      8603      8607      8623      8616      8614      8618
      8624      8616      8614      8618      8634      8627      8625      8629
      8635      8627      8625      8629      8645      8638      8636      8640
      8646      8638      8636      8640      8656      8649      8647      8651
      8657      8649      8647      8651      8667      8660      8658      8662
      8668      8660      8658      8662      8678      8671      8669      8673
      8679      8671      8669      8673      8689      8682      8680      8684
      8690      8682      8680      8684      8700      8693      8691      8695
      8701      8693      8691      8695      8711      8704      8702      8706
      8712      8704      8702      8706      8722      8715      8713      8717
      8723      8715      8713      8717      8733      8726      8724      8728
      8734      8726      8724      8728      8744      8737      8735      8739
      8745      8737      8735      8739      8755      8748      8746      8750
      8756      8748      8746      8750      8766      8759      8757      8761
      8767      8759      8757      8761      8777      8770      8768      8772
      8778      8770      8768      8772      8788      8781      8779      8783
      8789      8781      8779      8783      8799      8792      8790      8794
      8800      8792      8790      8794      8810      8803      8801      8805
      8811      8803      8801      8805      8821      8814      8812      8816
      8822      8814      8812      8816      8832      8825      8823      8827
      8833      8825      8823      8827      8843      8836      8834      8838
      8844      8836      8834      8838      8854      8847      8845      8849
      8855      8847      8845      8849      8865      8858      8856      8860
      8866      8858      8856      8860      8876      8869      8867      8871
      8877      8869      8867      8871      8887      8880      8878      8882
      8888      8880      8878      8882      8898      8891      8889      8893
      8899      8891      8889      8893      8909      8902      8900      8904
      8910      8902      8900      8904      8920      8913      8911      8915
      8921      8913      8911      8915      8931      8924      8922      8926
      8932      8924      8922      8926      8942      8935      8933      8937
      8943      8935      8933      8937      8953      8946      8944      8948
      8954      8946      8944      8948      8964      8957      8955      8959
      8965      8957      8955      8959      8975      8968      8966      8970
      8976      8968      8966      8970      8986      8979      8977      8981
      8987      8979      8977      8981      8997      8990      8988      8992
      8998      8990      8988      8992      9008      9001      8999      9003
      9009      9001      8999      9003      9019      9012      9010      9014
      9020      9012      9010      9014      9030      9023      9021      9025
      9031      9023      9021      9025      9041      9034      9032      9036
      9042      9034      9032      9036      9052      9045      9043      9047
      9053      9045      9043      9047      9063      9056      9054      9058
      9064      9056      9054      9058      9074      9067      9065      9069
      9075      9067      9065      9069      9085      9078      9076      9080
      9086      9078      9076      9080      9096      9089      9087      9091
      9097      9089      9087      9091      9107      9100      9098      9102
      9108      9100      9098      9102      9118      9111      9109      9113
      9119      9111      9109      9113      9129      9122      9120      9124
      9130      9122      9120      9124      9140      9133      9131      9135
      9141      9133      9131      9135      9151      9144      9142      9146
      9152      9144      9142      9146      9162      9155      9153      9157
      9163      9155      9153      9157      9173      9166      9164      9168
      9174      9166      9164      9168      9184      9177      9175      9179
      9185      9177      9175      9179      9195      9188      9186      9190
      9196      9188      9186      9190      9206      9199      9197      9201
      9207      9199      9197      9201      9217      9210      9208      9212
      9218      9210      9208      9212      9228      9221      9219      9223
      9229      9221      9219      9223      9239      9232      9230      9234
      9240      9232      9230      9234      9250      9243      9241      9245
      9251      9243      9241      9245      9261      9254      9252      9256
      9262      9254      9252      9256      9272      9265      9263      9267
      9273      9265      9263      9267      9283      9276      9274      9278
      9284      9276      9274      9278      9294      9287      9285      9289
      9295      9287      9285      9289      9305      9298      9296      9300
      9306      9298      9296      9300      9316      9309      9307      9311
      9317      9309      9307      9311      9327      9320      9318      9322
      9328      9320      9318      9322      9338      9331      9329      9333
      9339      9331      9329      9333      9349      9342      9340      9344
      9350      9342      9340      9344      9360      9353      9351      9355
      9361      9353      9351      9355      9371      9364      9362      9366
      9372      9364      9362      9366      9382      9375      9373      9377
      9383      9375      9373      9377      9393      9386      9384      9388
      9394      9386      9384      9388      9404      9397      9395      9399
      9405      9397      9395      9399      9415      9408      9406      9410
      9416      9408      9406      9410      9426      9419      9417      9421
      9427      9419      9417      9421      9437      9430      9428      9432
      9438      9430      9428      9432      9448      9441      9439      9443
      9449      9441      9439      9443      9459      9452      9450      9454
      9460      9452      9450      9454      9470      9463      9461      9465
      9471      9463      9461      9465      9481      9474      9472      9476
      9482      9474      9472      9476      9492      9485      9483      9487
      9493      9485      9483      9487      9503      9496      9494      9498
      9504      9496      9494      9498      9514      9507      9505      9509
      9515      9507      9505      9509      9525      9518      9516      9520
      9526      9518      9516      9520      9536      9529      9527      9531
      9537      9529      9527      9531      9547      9540      9538      9542
      9548      9540      9538      9542      9558      9551      9549      9553
      9559      9551      9549      9553      9569      9562      9560      9564
      9570      9562      9560      9564      9580      9573      9571      9575
      9581      9573      9571      9575      9591      9584      9582      9586
      9592      9584      9582      9586      9602      9595      9593      9597
      9603      9595      9593      9597      9613      9606      9604      9608
      9614      9606      9604      9608      9624      9617      9615      9619
      9625      9617      9615      9619      9635      9628      9626      9630
      9636      9628      9626      9630      9646      9639      9637      9641
      9647      9639      9637      9641      9657      9650      9648      9652
      9658      9650      9648      9652      9668      9661      9659      9663
      9669      9661      9659      9663      9679      9672      9670      9674
      9680      9672      9670      9674      9690      9683      9681      9685
      9691      9683      9681      9685      9701      9694      9692      9696
      9702      9694      9692      9696      9712      9705      9703      9707
      9713      9705      9703      9707      9723      9716      9714      9718
      9724      9716      9714      9718      9734      9727      9725      9729
      9735      9727      9725      9729      9745      9738      9736      9740
      9746      9738      9736      9740      9756      9749      9747      9751
      9757      9749      9747      9751      9767      9760      9758      9762
      9768      9760      9758      9762      9778      9771      9769      9773
      9779      9771      9769      9773      9789      9782      9780      9784
      9790      9782      9780      9784      9800      9793      9791      9795
      9801      9793      9791      9795      9811      9804      9802      9806
      9812      9804      9802      9806      9822      9815      9813      9817
      9823      9815      9813      9817      9833      9826      9824      9828
      9834      9826      9824      9828      9844      9837      9835      9839
      9845      9837      9835      9839      9855      9848      9846      9850
      9856      9848      9846      9850      9866      9859      9857      9861
      9867      9859      9857      9861      9877      9870      9868      9872
      9878      9870      9868      9872      9888      9881      9879      9883
      9889      9881      9879      9883      9899      9892      9890      9894
      9900      9892      9890      9894      9910      9903      9901      9905
      9911      9903      9901      9905      9921      9914      9912      9916
      9922      9914      9912      9916      9932      9925      9923      9927
      9933      9925      9923      9927      9943      9936      9934      9938
      9944      9936      9934      9938      9954      9947      9945      9949
      9955      9947      9945      9949      9965      9958      9956      9960
      9966      9958      9956      9960      9976      9969      9967      9971
      9977      9969      9967      9971      9987      9980      9978      9982
      9988      9980      9978      9982      9998      9991      9989      9993
      9999      9991      9989      9993     10009     10002     10000     10004
     10010     10002     10000     10004     10020     10013     10011     10015
     10021     10013     10011     10015     10031     10024     10022     10026
     10032     10024     10022     10026     10042     10035     10033     10037
     10043     10035     10033     10037     10053     10046     10044     10048
     10054     10046     10044     10048     10064     10057     10055     10059
     10065     10057     10055     10059     10075     10068     10066     10070
     10076     10068     10066     10070     10086     10079     10077     10081
     10087     10079     10077     10081     10097     10090     10088     10092
     10098     10090     10088     10092     10108     10101     10099     10103
     10109     10101     10099     10103     10119     10112     10110     10114
     10120     10112     10110     10114     10130     10123     10121     10125
     10131     10123     10121     10125     10141     10134     10132     10136
     10142     10134     10132     10136     10152     10145     10143     10147
     10153     10145     10143     10147     10163     10156     10154     10158
     10164     10156     10154     10158     10174     10167     10165     10169
     10175     10167     10165     10169     10185     10178     10176     10180
     10186     10178     10176     10180     10196     10189     10187     10191
     10197     10189     10187     10191     10207     10200     10198     10202
     10208     10200     10198     10202     10218     10211     10209     10213
     10219     10211     10209     10213     10229     10222     10220     10224
     10230     10222     10220     10224     10240     10233     10231     10235
     10241     10233     10231     10235     10251     10244     10242     10246
     10252     10244     10242     10246     10262     10255     10253     10257
     10263     10255     10253     10257     10273     10266     10264     10268
     10274     10266     10264     10268     10284     10277     10275     10279
     10285     10277     10275     10279     10295     10288     10286     10290
     10296     10288     10286     10290     10306     10299     10297     10301
     10307     10299     10297     10301     10317     10310     10308     10312
     10318     10310     10308     10312     10328     10321     10319     10323
     10329     10321     10319     10323     10339     10332     10330     10334
     10340     10332     10330     10334     10350     10343     10341     10345
     10351     10343     10341     10345     10361     10354     10352     10356
     10362     10354     10352     10356     10372     10365     10363     10367
     10373     10365     10363     10367     10383     10376     10374     10378
     10384     10376     10374     10378     10394     10387     10385     10389
     10395     10387     10385     10389     10405     10398     10396     10400
     10406     10398     10396     10400     10416     10409     10407     10411
     10417     10409     10407     10411     10427     10420     10418     10422
     10428     10420     10418     10422     10438     10431     10429     10433
     10439     10431     10429     10433     10449     10442     10440     10444
     10450     10442     10440     10444     10460     10453     10451     10455
     10461     10453     10451     10455     10471     10464     10462     10466
     10472     10464     10462     10466     10482     10475     10473     10477
     10483     10475     10473     10477     10493     10486     10484     10488
     10494     10486     10484     10488     10504     10497     10495     10499
     10505     10497     10495     10499     10515     10508     10506     10510
     10516     10508     10506     10510     10526     10519     10517     10521
     10527     10519     10517     10521     10537     10530     10528     10532
     10538     10530     10528     10532     10548     10541     10539     10543
     10549     10541     10539     10543     10559     10552     10550     10554
     10560     10552     10550     10554     10570     10563     10561     10565
     10571     10563     10561     10565     10581     10574     10572     10576
     10582     10574     10572     10576     10592     10585     10583     10587
     10593     10585     10583     10587     10603     10596     10594     10598
     10604     10596     10594     10598     10614     10607     10605     10609
     10615     10607     10605     10609     10625     10618     10616     10620
     10626     10618     10616     10620     10636     10629     10627     10631
     10637     10629     10627     10631     10647     10640     10638     10642
     10648     10640     10638     10642     10658     10651     10649     10653
     10659     10651     10649     10653     10669     10662     10660     10664
     10670     10662     10660     10664     10680     10673     10671     10675
     10681     10673     10671     10675     10691     10684     10682     10686
     10692     10684     10682     10686     10702     10695     10693     10697
     10703     10695     10693     10697     10713     10706     10704     10708
     10714     10706     10704     10708     10724     10717     10715     10719
     10725     10717     10715     10719     10735     10728     10726     10730
     10736     10728     10726     10730     10746     10739     10737     10741
     10747     10739     10737     10741     10757     10750     10748     10752
     10758     10750     10748     10752     10768     10761     10759     10763
     10769     10761     10759     10763     10779     10772     10770     10774
     10780     10772     10770     10774     10790     10783     10781     10785
     10791     10783     10781     10785     10801     10794     10792     10796
     10802     10794     10792     10796     10812     10805     10803     10807
     10813     10805     10803     10807     10823     10816     10814     10818
     10824     10816     10814     10818     10834     10827     10825     10829
     10835     10827     10825     10829     10845     10838     10836     10840
     10846     10838     10836     10840     10856     10849     10847     10851
     10857     10849     10847     10851     10867     10860     10858     10862
     10868     10860     10858     10862     10878     10871     10869     10873
     10879     10871     10869     10873     10889     10882     10880     10884
     10890     10882     10880     10884     10900     10893     10891     10895
     10901     10893     10891     10895     10911     10904     10902     10906
     10912     10904     10902     10906     10922     10915     10913     10917
     10923     10915     10913     10917     10933     10926     10924     10928
     10934     10926     10924     10928     10944     10937     10935     10939
     10945     10937     10935     10939     10955     10948     10946     10950
     10956     10948     10946     10950     10966     10959     10957     10961
     10967     10959     10957     10961     10977     10970     10968     10972
     10978     10970     10968     10972     10988     10981     10979     10983
     10989     10981     10979     10983     10999     10992     10990     10994
     11000     10992     10990     10994     11010     11003     11001     11005
     11011     11003     11001     11005     11021     11014     11012     11016
     11022     11014     11012     11016     11032     11025     11023     11027
     11033     11025     11023     11027     11043     11036     11034     11038
     11044     11036     11034     11038     11054     11047     11045     11049
     11055     11047     11045     11049     11065     11058     11056     11060
     11066     11058     11056     11060     11076     11069     11067     11071
     11077     11069     11067     11071     11087     11080     11078     11082
     11088     11080     11078     11082     11098     11091     11089     11093
     11099     11091     11089     11093     11109     11102     11100     11104
     11110     11102     11100     11104     11120     11113     11111     11115
     11121     11113     11111     11115     11131     11124     11122     11126
     11132     11124     11122     11126     11142     11135     11133     11137
     11143     11135     11133     11137     11153     11146     11144     11148
     11154     11146     11144     11148     11164     11157     11155     11159
     11165     11157     11155     11159     11175     11168     11166     11170
     11176     11168     11166     11170     11186     11179     11177     11181
     11187     11179     11177     11181     11197     11190     11188     11192
     11198     11190     11188     11192     11208     11201     11199     11203
     11209     11201     11199     11203     11219     11212     11210     11214
     11220     11212     11210     11214     11230     11223     11221     11225
     11231     11223     11221     11225     11241     11234     11232     11236
     11242     11234     11232     11236     11252     11245     11243     11247
     11253     11245     11243     11247     11263     11256     11254     11258
     11264     11256     11254     11258     11274     11267     11265     11269
     11275     11267     11265     11269     11285     11278     11276     11280
     11286     11278     11276     11280     11296     11289     11287     11291
     11297     11289     11287     11291     11307     11300     11298     11302
     11308     11300     11298     11302     11318     11311     11309     11313
     11319     11311     11309     11313     11329     11322     11320     11324
     11330     11322     11320     11324     11340     11333     11331     11335
     11341     11333     11331     11335     11351     11344     11342     11346
     11352     11344     11342     11346     11362     11355     11353     11357
     11363     11355     11353     11357     11373     11366     11364     11368
     11374     11366     11364     11368     11384     11377     11375     11379
     11385     11377     11375     11379     11395     11388     11386     11390
     11396     11388     11386     11390     11406     11399     11397     11401
     11407     11399     11397     11401     11417     11410     11408     11412
     11418     11410     11408     11412     11428     11421     11419     11423
     11429     11421     11419     11423     11439     11432     11430     11434
     11440     11432     11430     11434     11450     11443     11441     11445
     11451     11443     11441     11445     11461     11454     11452     11456
     11462     11454     11452     11456     11472     11465     11463     11467
     11473     11465     11463     11467     11483     11476     11474     11478
     11484     11476     11474     11478     11494     11487     11485     11489
     11495     11487     11485     11489     11505     11498     11496     11500
     11506     11498     11496     11500     11516     11509     11507     11511
     11517     11509     11507     11511     11527     11520     11518     11522
     11528     11520     11518     11522     11538     11531     11529     11533
     11539     11531     11529     11533     11549     11542     11540     11544
     11550     11542     11540     11544     11560     11553     11551     11555
     11561     11553     11551     11555     11571     11564     11562     11566
     11572     11564     11562     11566     11582     11575     11573     11577
     11583     11575     11573     11577     11593     11586     11584     11588
     11594     11586     11584     11588     11604     11597     11595     11599
     11605     11597     11595     11599     11615     11608     11606     11610
     11616     11608     11606     11610     11626     11619     11617     11621
     11627     11619     11617     11621     11637     11630     11628     11632
     11638     11630     11628     11632     11648     11641     11639     11643
     11649     11641     11639     11643     11659     11652     11650     11654
     11660     11652     11650     11654     11670     11663     11661     11665
     11671     11663     11661     11665     11681     11674     11672     11676
     11682     11674     11672     11676     11692     11685     11683     11687
     11693     11685     11683     11687     11703     11696     11694     11698
     11704     11696     11694     11698     11714     11707     11705     11709
     11715     11707     11705     11709     11725     11718     11716     11720
     11726     11718     11716     11720     11736     11729     11727     11731
     11737     11729     11727     11731     11747     11740     11738     11742
     11748     11740     11738     11742     11758     11751     11749     11753
     11759     11751     11749     11753     11769     11762     11760     11764
     11770     11762     11760     11764     11780     11773     11771     11775
     11781     11773     11771     11775     11791     11784     11782     11786
     11792     11784     11782     11786     11802     11795     11793     11797
     11803     11795     11793     11797     11813     11806     11804     11808
     11814     11806     11804     11808     11824     11817     11815     11819
     11825     11817     11815     11819     11835     11828     11826     11830
     11836     11828     11826     11830     11846     11839     11837     11841
     11847     11839     11837     11841     11857     11850     11848     11852
     11858     11850     11848     11852     11868     11861     11859     11863
     11869     11861     11859     11863     11879     11872     11870     11874
     11880     11872     11870     11874     11890     11883     11881     11885
     11891     11883     11881     11885     11901     11894     11892     11896
     11902     11894     11892     11896     11912     11905     11903     11907
     11913     11905     11903     11907     11923     11916     11914     11918
     11924     11916     11914     11918     11934     11927     11925     11929
     11935     11927     11925     11929     11945     11938     11936     11940
     11946     11938     11936     11940     11956     11949     11947     11951
     11957     11949     11947     11951     11967     11960     11958     11962
     11968     11960     11958     11962     11978     11971     11969     11973
     11979     11971     11969     11973     11989     11982     11980     11984
     11990     11982     11980     11984     12000     11993     11991     11995
     12001     11993     11991     11995     12011     12004     12002     12006
     12012     12004     12002     12006     12022     12015     12013     12017
     12023     12015     12013     12017     12033     12026     12024     12028
     12034     12026     12024     12028     12044     12037     12035     12039
     12045     12037     12035     12039     12055     12048     12046     12050
     12056     12048     12046     12050     12066     12059     12057     12061
     12067     12059     12057     12061     12077     12070     12068     12072
     12078     12070     12068     12072     12088     12081     12079     12083
     12089     12081     12079     12083     12099     12092     12090     12094
     12100     12092     12090     12094     12110     12103     12101     12105
     12111     12103     12101     12105     12121     12114     12112     12116
     12122     12114     12112     12116     12132     12125     12123     12127
     12133     12125     12123     12127     12143     12136     12134     12138
     12144     12136     12134     12138     12154     12147     12145     12149
     12155     12147     12145     12149     12165     12158     12156     12160
     12166     12158     12156     12160     12176     12169     12167     12171
     12177     12169     12167     12171     12187     12180     12178     12182
     12188     12180     12178     12182     12198     12191     12189     12193
     12199     12191     12189     12193     12209     12202     12200     12204
     12210     12202     12200     12204     12220     12213     12211     12215
     12221     12213     12211     12215     12231     12224     12222     12226
     12232     12224     12222     12226     12242     12235     12233     12237
     12243     12235     12233     12237     12253     12246     12244     12248
     12254     12246     12244     12248     12264     12257     12255     12259
     12265     12257     12255     12259     12275     12268     12266     12270
     12276     12268     12266     12270     12286     12279     12277     12281
     12287     12279     12277     12281     12297     12290     12288     12292
     12298     12290     12288     12292     12308     12301     12299     12303
     12309     12301     12299     12303     12319     12312     12310     12314
     12320     12312     12310     12314     12330     12323     12321     12325
     12331     12323     12321     12325     12341     12334     12332     12336
     12342     12334     12332     12336     12352     12345     12343     12347
     12353     12345     12343     12347     12363     12356     12354     12358
     12364     12356     12354     12358     12374     12367     12365     12369
     12375     12367     12365     12369     12385     12378     12376     12380
     12386     12378     12376     12380     12396     12389     12387     12391
     12397     12389     12387     12391     12407     12400     12398     12402
     12408     12400     12398     12402     12418     12411     12409     12413
     12419     12411     12409     12413     12429     12422     12420     12424
     12430     12422     12420     12424     12440     12433     12431     12435
     12441     12433     12431     12435     12451     12444     12442     12446
     12452     12444     12442     12446     12462     12455     12453     12457
     12463     12455     12453     12457     12473     12466     12464     12468
     12474     12466     12464     12468     12484     12477     12475     12479
     12485     12477     12475     12479     12495     12488     12486     12490
     12496     12488     12486     12490     12506     12499     12497     12501
     12507     12499     12497     12501     12517     12510     12508     12512
     12518     12510     12508     12512     12528     12521     12519     12523
     12529     12521     12519     12523     12539     12532     12530     12534
     12540     12532     12530     12534     12550     12543     12541     12545
     12551     12543     12541     12545     12561     12554     12552     12556
     12562     12554     12552     12556     12572     12565     12563     12567
     12573     12565     12563     12567     12583     12576     12574     12578
     12584     12576     12574     12578     12594     12587     12585     12589
     12595     12587     12585     12589     12605     12598     12596     12600
     12606     12598     12596     12600     12616     12609     12607     12611
     12617     12609     12607     12611     12627     12620     12618     12622
     12628     12620     12618     12622     12638     12631     12629     12633
     12639     12631     12629     12633     12649     12642     12640     12644
     12650     12642     12640     12644     12660     12653     12651     12655
     12661     12653     12651     12655     12671     12664     12662     12666
     12672     12664     12662     12666     12682     12675     12673     12677
     12683     12675     12673     12677     12693     12686     12684     12688
     12694     12686     12684     12688     12704     12697     12695     12699
     12705     12697     12695     12699     12715     12708     12706     12710
     12716     12708     12706     12710     12726     12719     12717     12721
     12727     12719     12717     12721     12737     12730     12728     12732
     12738     12730     12728     12732     12748     12741     12739     12743
     12749     12741     12739     12743     12759     12752     12750     12754
     12760     12752     12750     12754     12770     12763     12761     12765
     12771     12763     12761     12765     12781     12774     12772     12776
     12782     12774     12772     12776     12792     12785     12783     12787
     12793     12785     12783     12787     12803     12796     12794     12798
     12804     12796     12794     12798     12814     12807     12805     12809
     12815     12807     12805     12809     12825     12818     12816     12820
     12826     12818     12816     12820     12836     12829     12827     12831
     12837     12829     12827     12831     12847     12840     12838     12842
     12848     12840     12838     12842     12858     12851     12849     12853
     12859     12851     12849     12853     12869     12862     12860     12864
     12870     12862     12860     12864     12880     12873     12871     12875
     12881     12873     12871     12875     12891     12884     12882     12886
     12892     12884     12882     12886     12902     12895     12893     12897
     12903     12895     12893     12897     12913     12906     12904     12908
     12914     12906     12904     12908     12924     12917     12915     12919
     12925     12917     12915     12919     12935     12928     12926     12930
     12936     12928     12926     12930     12946     12939     12937     12941
     12947     12939     12937     12941     12957     12950     12948     12952
     12958     12950     12948     12952     12968     12961     12959     12963
     12969     12961     12959     12963     12979     12972     12970     12974
     12980     12972     12970     12974     12990     12983     12981     12985
     12991     12983     12981     12985     13001     12994     12992     12996
     13002     12994     12992     12996     13012     13005     13003     13007
     13013     13005     13003     13007     13023     13016     13014     13018
     13024     13016     13014     13018     13034     13027     13025     13029
     13035     13027     13025     13029     13045     13038     13036     13040
     13046     13038     13036     13040     13056     13049     13047     13051
     13057     13049     13047     13051     13067     13060     13058     13062
     13068     13060     13058     13062     13078     13071     13069     13073
     13079     13071     13069     13073     13089     13082     13080     13084
     13090     13082     13080     13084     13100     13093     13091     13095
     13101     13093     13091     13095     13111     13104     13102     13106
     13112     13104     13102     13106     13122     13115     13113     13117
     13123     13115     13113     13117     13133     13126     13124     13128
     13134     13126     13124     13128     13144     13137     13135     13139
     13145     13137     13135     13139     13155     13148     13146     13150
     13156     13148     13146     13150     13166     13159     13157     13161
     13167     13159     13157     13161     13177     13170     13168     13172
     13178     13170     13168     13172     13188     13181     13179     13183
     13189     13181     13179     13183     13199     13192     13190     13194
     13200     13192     13190     13194     13210     13203     13201     13205
     13211     13203     13201     13205     13221     13214     13212     13216
     13222     13214     13212     13216     13232     13225     13223     13227
     13233     13225     13223     13227     13243     13236     13234     13238
     13244     13236     13234     13238     13254     13247     13245     13249
     13255     13247     13245     13249     13265     13258     13256     13260
     13266     13258     13256     13260     13276     13269     13267     13271
     13277     13269     13267     13271     13287     13280     13278     13282
     13288     13280     13278     13282     13298     13291     13289     13293
     13299     13291     13289     13293     13309     13302     13300     13304
     13310     13302     13300     13304     13320     13313     13311     13315
     13321     13313     13311     13315     13331     13324     13322     13326
     13332     13324     13322     13326     13342     13335     13333     13337
     13343     13335     13333     13337     13353     13346     13344     13348
     13354     13346     13344     13348     13364     13357     13355     13359
     13365     13357     13355     13359     13375     13368     13366     13370
     13376     13368     13366     13370     13386     13379     13377     13381
     13387     13379     13377     13381     13397     13390     13388     13392
     13398     13390     13388     13392     13408     13401     13399     13403
     13409     13401     13399     13403     13419     13412     13410     13414
     13420     13412     13410     13414     13430     13423     13421     13425
     13431     13423     13421     13425     13441     13434     13432     13436
     13442     13434     13432     13436     13452     13445     13443     13447
     13453     13445     13443     13447     13463     13456     13454     13458
     13464     13456     13454     13458     13474     13467     13465     13469
     13475     13467     13465     13469     13485     13478     13476     13480
     13486     13478     13476     13480     13496     13489     13487     13491
     13497     13489     13487     13491     13507     13500     13498     13502
     13508     13500     13498     13502     13518     13511     13509     13513
     13519     13511     13509     13513     13529     13522     13520     13524
     13530     13522     13520     13524     13540     13533     13531     13535
     13541     13533     13531     13535     13551     13544     13542     13546
     13552     13544     13542     13546     13562     13555     13553     13557
     13563     13555     13553     13557     13573     13566     13564     13568
     13574     13566     13564     13568     13584     13577     13575     13579
     13585     13577     13575     13579     13595     13588     13586     13590
     13596     13588     13586     13590     13606     13599     13597     13601
     13607     13599     13597     13601     13617     13610     13608     13612
     13618     13610     13608     13612     13628     13621     13619     13623
     13629     13621     13619     13623     13639     13632     13630     13634
     13640     13632     13630     13634     13650     13643     13641     13645
     13651     13643     13641     13645     13661     13654     13652     13656
     13662     13654     13652     13656     13672     13665     13663     13667
     13673     13665     13663     13667     13683     13676     13674     13678
     13684     13676     13674     13678     13694     13687     13685     13689
     13695     13687     13685     13689     13705     13698     13696     13700
     13706     13698     13696     13700     13716     13709     13707     13711
     13717     13709     13707     13711     13727     13720     13718     13722
     13728     13720     13718     13722     13738     13731     13729     13733
     13739     13731     13729     13733     13749     13742     13740     13744
     13750     13742     13740     13744     13760     13753     13751     13755
     13761     13753     13751     13755     13771     13764     13762     13766
     13772     13764     13762     13766     13782     13775     13773     13777
     13783     13775     13773     13777     13793     13786     13784     13788
     13794     13786     13784     13788     13804     13797     13795     13799
     13805     13797     13795     13799     13815     13808     13806     13810
     13816     13808     13806     13810     13826     13819     13817     13821
     13827     13819     13817     13821     13837     13830     13828     13832
     13838     13830     13828     13832     13848     13841     13839     13843
     13849     13841     13839     13843     13859     13852     13850     13854
     13860     13852     13850     13854     13870     13863     13861     13865
     13871     13863     13861     13865     13881     13874     13872     13876
     13882     13874     13872     13876     13892     13885     13883     13887
     13893     13885     13883     13887     13903     13896     13894     13898
     13904     13896     13894     13898     13914     13907     13905     13909
     13915     13907     13905     13909     13925     13918     13916     13920
     13926     13918     13916     13920     13936     13929     13927     13931
     13937     13929     13927     13931     13947     13940     13938     13942
     13948     13940     13938     13942     13958     13951     13949     13953
     13959     13951     13949     13953     13969     13962     13960     13964
     13970     13962     13960     13964     13980     13973     13971     13975
     13981     13973     13971     13975     13991     13984     13982     13986
     13992     13984     13982     13986     14002     13995     13993     13997
     14003     13995     13993     13997     14013     14006     14004     14008
     14014     14006     14004     14008     14024     14017     14015     14019
     14025     14017     14015     14019     14035     14028     14026     14030
     14036     14028     14026     14030     14046     14039     14037     14041
     14047     14039     14037     14041     14057     14050     14048     14052
     14058     14050     14048     14052     14068     14061     14059     14063
     14069     14061     14059     14063     14079     14072     14070     14074
     14080     14072     14070     14074     14090     14083     14081     14085
     14091     14083     14081     14085     14101     14094     14092     14096
     14102     14094     14092     14096     14112     14105     14103     14107
     14113     14105     14103     14107     14123     14116     14114     14118
     14124     14116     14114     14118     14134     14127     14125     14129
     14135     14127     14125     14129     14145     14138     14136     14140
     14146     14138     14136     14140     14156     14149     14147     14151
     14157     14149     14147     14151     14167     14160     14158     14162
     14168     14160     14158     14162     14178     14171     14169     14173
     14179     14171     14169     14173     14189     14182     14180     14184
     14190     14182     14180     14184     14200     14193     14191     14195
     14201     14193     14191     14195     14211     14204     14202     14206
     14212     14204     14202     14206     14222     14215     14213     14217
     14223     14215     14213     14217     14233     14226     14224     14228
     14234     14226     14224     14228     14244     14237     14235     14239
     14245     14237     14235     14239     14255     14248     14246     14250
     14256     14248     14246     14250     14266     14259     14257     14261
     14267     14259     14257     14261     14277     14270     14268     14272
     14278     14270     14268     14272     14288     14281     14279     14283
     14289     14281     14279     14283     14299     14292     14290     14294
     14300     14292     14290     14294     14310     14303     14301     14305
     14311     14303     14301     14305     14321     14314     14312     14316
     14322     14314     14312     14316     14332     14325     14323     14327
     14333     14325     14323     14327     14343     14336     14334     14338
     14344     14336     14334     14338     14354     14347     14345     14349
     14355     14347     14345     14349     14365     14358     14356     14360
     14366     14358     14356     14360     14376     14369     14367     14371
     14377     14369     14367     14371     14387     14380     14378     14382
     14388     14380     14378     14382     14398     14391     14389     14393
     14399     14391     14389     14393     14409     14402     14400     14404
     14410     14402     14400     14404     14420     14413     14411     14415
     14421     14413     14411     14415     14431     14424     14422     14426
     14432     14424     14422     14426     14442     14435     14433     14437
     14443     14435     14433     14437     14453     14446     14444     14448
     14454     14446     14444     14448     14464     14457     14455     14459
     14465     14457     14455     14459     14475     14468     14466     14470
     14476     14468     14466     14470     14486     14479     14477     14481
     14487     14479     14477     14481     14497     14490     14488     14492
     14498     14490     14488     14492     14508     14501     14499     14503
     14509     14501     14499     14503     14519     14512     14510     14514
     14520     14512     14510     14514     14530     14523     14521     14525
     14531     14523     14521     14525     14541     14534     14532     14536
     14542     14534     14532     14536     14552     14545     14543     14547
     14553     14545     14543     14547     14563     14556     14554     14558
     14564     14556     14554     14558     14574     14567     14565     14569
     14575     14567     14565     14569     14585     14578     14576     14580
     14586     14578     14576     14580     14596     14589     14587     14591
     14597     14589     14587     14591     14607     14600     14598     14602
     14608     14600     14598     14602     14618     14611     14609     14613
     14619     14611     14609     14613     14629     14622     14620     14624
     14630     14622     14620     14624     14640     14633     14631     14635
     14641     14633     14631     14635     14651     14644     14642     14646
     14652     14644     14642     14646     14662     14655     14653     14657
     14663     14655     14653     14657     14673     14666     14664     14668
     14674     14666     14664     14668     14684     14677     14675     14679
     14685     14677     14675     14679     14695     14688     14686     14690
     14696     14688     14686     14690     14706     14699     14697     14701
     14707     14699     14697     14701     14717     14710     14708     14712
     14718     14710     14708     14712     14728     14721     14719     14723
     14729     14721     14719     14723     14739     14732     14730     14734
     14740     14732     14730     14734     14750     14743     14741     14745
     14751     14743     14741     14745     14761     14754     14752     14756
     14762     14754     14752     14756     14772     14765     14763     14767
     14773     14765     14763     14767     14783     14776     14774     14778
     14784     14776     14774     14778     14794     14787     14785     14789
     14795     14787     14785     14789     14805     14798     14796     14800
     14806     14798     14796     14800     14816     14809     14807     14811
     14817     14809     14807     14811     14827     14820     14818     14822
     14828     14820     14818     14822     14838     14831     14829     14833
     14839     14831     14829     14833     14849     14842     14840     14844
     14850     14842     14840     14844     14860     14853     14851     14855
     14861     14853     14851     14855     14871     14864     14862     14866
     14872     14864     14862     14866     14882     14875     14873     14877
     14883     14875     14873     14877     14893     14886     14884     14888
     14894     14886     14884     14888     14904     14897     14895     14899
     14905     14897     14895     14899     14915     14908     14906     14910
     14916     14908     14906     14910     14926     14919     14917     14921
     14927     14919     14917     14921     14937     14930     14928     14932
     14938     14930     14928     14932     14948     14941     14939     14943
     14949     14941     14939     14943     14959     14952     14950     14954
     14960     14952     14950     14954     14970     14963     14961     14965
     14971     14963     14961     14965     14981     14974     14972     14976
     14982     14974     14972     14976     14992     14985     14983     14987
     14993     14985     14983     14987     15003     14996     14994     14998
     15004     14996     14994     14998     15014     15007     15005     15009
     15015     15007     15005     15009     15025     15018     15016     15020
     15026     15018     15016     15020     15036     15029     15027     15031
     15037     15029     15027     15031     15047     15040     15038     15042
     15048     15040     15038     15042     15058     15051     15049     15053
     15059     15051     15049     15053     15069     15062     15060     15064
     15070     15062     15060     15064     15080     15073     15071     15075
     15081     15073     15071     15075     15091     15084     15082     15086
     15092     15084     15082     15086     15102     15095     15093     15097
     15103     15095     15093     15097     15113     15106     15104     15108
     15114     15106     15104     15108     15124     15117     15115     15119
     15125     15117     15115     15119     15135     15128     15126     15130
     15136     15128     15126     15130     15146     15139     15137     15141
     15147     15139     15137     15141     15157     15150     15148     15152
     15158     15150     15148     15152     15168     15161     15159     15163
     15169     15161     15159     15163     15179     15172     15170     15174
     15180     15172     15170     15174     15190     15183     15181     15185
     15191     15183     15181     15185     15201     15194     15192     15196
     15202     15194     15192     15196     15212     15205     15203     15207
     15213     15205     15203     15207     15223     15216     15214     15218
     15224     15216     15214     15218     15234     15227     15225     15229
     15235     15227     15225     15229     15245     15238     15236     15240
     15246     15238     15236     15240     15256     15249     15247     15251
     15257     15249     15247     15251     15267     15260     15258     15262
     15268     15260     15258     15262     15278     15271     15269     15273
     15279     15271     15269     15273     15289     15282     15280     15284
     15290     15282     15280     15284     15300     15293     15291     15295
     15301     15293     15291     15295     15311     15304     15302     15306
     15312     15304     15302     15306     15322     15315     15313     15317
     15323     15315     15313     15317     15333     15326     15324     15328
     15334     15326     15324     15328     15344     15337     15335     15339
     15345     15337     15335     15339     15355     15348     15346     15350
     15356     15348     15346     15350     15366     15359     15357     15361
     15367     15359     15357     15361     15377     15370     15368     15372
     15378     15370     15368     15372     15388     15381     15379     15383
     15389     15381     15379     15383     15399     15392     15390     15394
     15400     15392     15390     15394     15410     15403     15401     15405
     15411     15403     15401     15405     15421     15414     15412     15416
     15422     15414     15412     15416     15432     15425     15423     15427
     15433     15425     15423     15427     15443     15436     15434     15438
     15444     15436     15434     15438     15454     15447     15445     15449
     15455     15447     15445     15449     15465     15458     15456     15460
     15466     15458     15456     15460     15476     15469     15467     15471
     15477     15469     15467     15471     15487     15480     15478     15482
     15488     15480     15478     15482     15498     15491     15489     15493
     15499     15491     15489     15493     15509     15502     15500     15504
     15510     15502     15500     15504     15520     15513     15511     15515
     15521     15513     15511     15515     15531     15524     15522     15526
     15532     15524     15522     15526     15542     15535     15533     15537
     15543     15535     15533     15537     15553     15546     15544     15548
     15554     15546     15544     15548     15564     15557     15555     15559
     15565     15557     15555     15559     15575     15568     15566     15570
     15576     15568     15566     15570     15586     15579     15577     15581
     15587     15579     15577     15581     15597     15590     15588     15592
     15598     15590     15588     15592     15608     15601     15599     15603
     15609     15601     15599     15603     15619     15612     15610     15614
     15620     15612     15610     15614     15630     15623     15621     15625
     15631     15623     15621     15625     15641     15634     15632     15636
     15642     15634     15632     15636     15652     15645     15643     15647
     15653     15645     15643     15647     15663     15656     15654     15658
     15664     15656     15654     15658     15674     15667     15665     15669
     15675     15667     15665     15669     15685     15678     15676     15680
     15686     15678     15676     15680     15696     15689     15687     15691
     15697     15689     15687     15691     15707     15700     15698     15702
     15708     15700     15698     15702     15718     15711     15709     15713
     15719     15711     15709     15713     15729     15722     15720     15724
     15730     15722     15720     15724     15740     15733     15731     15735
     15741     15733     15731     15735     15751     15744     15742     15746
     15752     15744     15742     15746     15762     15755     15753     15757
     15763     15755     15753     15757     15773     15766     15764     15768
     15774     15766     15764     15768     15784     15777     15775     15779
     15785     15777     15775     15779     15795     15788     15786     15790
     15796     15788     15786     15790     15806     15799     15797     15801
     15807     15799     15797     15801     15817     15810     15808     15812
     15818     15810     15808     15812     15828     15821     15819     15823
     15829     15821     15819     15823     15839     15832     15830     15834
     15840     15832     15830     15834     15850     15843     15841     15845
     15851     15843     15841     15845     15861     15854     15852     15856
     15862     15854     15852     15856     15872     15865     15863     15867
     15873     15865     15863     15867     15883     15876     15874     15878
     15884     15876     15874     15878     15894     15887     15885     15889
     15895     15887     15885     15889     15905     15898     15896     15900
     15906     15898     15896     15900     15916     15909     15907     15911
     15917     15909     15907     15911     15927     15920     15918     15922
     15928     15920     15918     15922     15938     15931     15929     15933
     15939     15931     15929     15933     15949     15942     15940     15944
     15950     15942     15940     15944     15960     15953     15951     15955
     15961     15953     15951     15955     15971     15964     15962     15966
     15972     15964     15962     15966     15982     15975     15973     15977
     15983     15975     15973     15977     15993     15986     15984     15988
     15994     15986     15984     15988     16004     15997     15995     15999
     16005     15997     15995     15999     16015     16008     16006     16010
     16016     16008     16006     16010     16026     16019     16017     16021
     16027     16019     16017     16021     16037     16030     16028     16032
     16038     16030     16028     16032     16048     16041     16039     16043
     16049     16041     16039     16043     16059     16052     16050     16054
     16060     16052     16050     16054     16070     16063     16061     16065
     16071     16063     16061     16065     16081     16074     16072     16076
     16082     16074     16072     16076     16092     16085     16083     16087
     16093     16085     16083     16087     16103     16096     16094     16098
     16104     16096     16094     16098     16114     16107     16105     16109
     16115     16107     16105     16109     16125     16118     16116     16120
     16126     16118     16116     16120     16136     16129     16127     16131
     16137     16129     16127     16131     16147     16140     16138     16142
     16148     16140     16138     16142     16158     16151     16149     16153
     16159     16151     16149     16153     16169     16162     16160     16164
     16170     16162     16160     16164     16180     16173     16171     16175
     16181     16173     16171     16175     16191     16184     16182     16186
     16192     16184     16182     16186     16202     16195     16193     16197
     16203     16195     16193     16197     16213     16206     16204     16208
     16214     16206     16204     16208     16224     16217     16215     16219
     16225     16217     16215     16219     16235     16228     16226     16230
     16236     16228     16226     16230     16246     16239     16237     16241
     16247     16239     16237     16241     16257     16250     16248     16252
     16258     16250     16248     16252     16268     16261     16259     16263
     16269     16261     16259     16263     16279     16272     16270     16274
     16280     16272     16270     16274     16290     16283     16281     16285
     16291     16283     16281     16285     16301     16294     16292     16296
     16302     16294     16292     16296     16312     16305     16303     16307
     16313     16305     16303     16307     16323     16316     16314     16318
     16324     16316     16314     16318     16334     16327     16325     16329
     16335     16327     16325     16329     16345     16338     16336     16340
     16346     16338     16336     16340     16356     16349     16347     16351
     16357     16349     16347     16351     16367     16360     16358     16362
     16368     16360     16358     16362     16378     16371     16369     16373
     16379     16371     16369     16373     16389     16382     16380     16384
     16390     16382     16380     16384     16400     16393     16391     16395
     16401     16393     16391     16395     16411     16404     16402     16406
     16412     16404     16402     16406     16422     16415     16413     16417
     16423     16415     16413     16417     16433     16426     16424     16428
     16434     16426     16424     16428     16444     16437     16435     16439
     16445     16437     16435     16439     16455     16448     16446     16450
     16456     16448     16446     16450     16466     16459     16457     16461
     16467     16459     16457     16461     16477     16470     16468     16472
     16478     16470     16468     16472     16488     16481     16479     16483
     16489     16481     16479     16483     16499     16492     16490     16494
     16500     16492     16490     16494     16510     16503     16501     16505
     16511     16503     16501     16505     16521     16514     16512     16516
     16522     16514     16512     16516     16532     16525     16523     16527
     16533     16525     16523     16527     16543     16536     16534     16538
     16544     16536     16534     16538     16554     16547     16545     16549
     16555     16547     16545     16549     16565     16558     16556     16560
     16566     16558     16556     16560     16576     16569     16567     16571
     16577     16569     16567     16571     16587     16580     16578     16582
     16588     16580     16578     16582     16598     16591     16589     16593
     16599     16591     16589     16593     16609     16602     16600     16604
     16610     16602     16600     16604     16620     16613     16611     16615
     16621     16613     16611     16615     16631     16624     16622     16626
     16632     16624     16622     16626     16642     16635     16633     16637
     16643     16635     16633     16637     16653     16646     16644     16648
     16654     16646     16644     16648     16664     16657     16655     16659
     16665     16657     16655     16659     16675     16668     16666     16670
     16676     16668     16666     16670     16686     16679     16677     16681
     16687     16679     16677     16681     16697     16690     16688     16692
     16698     16690     16688     16692     16708     16701     16699     16703
     16709     16701     16699     16703     16719     16712     16710     16714
     16720     16712     16710     16714     16730     16723     16721     16725
     16731     16723     16721     16725     16741     16734     16732     16736
     16742     16734     16732     16736     16752     16745     16743     16747
     16753     16745     16743     16747     16763     16756     16754     16758
     16764     16756     16754     16758     16774     16767     16765     16769
     16775     16767     16765     16769     16785     16778     16776     16780
     16786     16778     16776     16780     16796     16789     16787     16791
     16797     16789     16787     16791     16807     16800     16798     16802
     16808     16800     16798     16802     16818     16811     16809     16813
     16819     16811     16809     16813     16829     16822     16820     16824
     16830     16822     16820     16824     16840     16833     16831     16835
     16841     16833     16831     16835     16851     16844     16842     16846
     16852     16844     16842     16846     16862     16855     16853     16857
     16863     16855     16853     16857     16873     16866     16864     16868
     16874     16866     16864     16868     16884     16877     16875     16879
     16885     16877     16875     16879     16895     16888     16886     16890
     16896     16888     16886     16890     16906     16899     16897     16901
     16907     16899     16897     16901     16917     16910     16908     16912
     16918     16910     16908     16912     16928     16921     16919     16923
     16929     16921     16919     16923     16939     16932     16930     16934
     16940     16932     16930     16934     16950     16943     16941     16945
     16951     16943     16941     16945     16961     16954     16952     16956
     16962     16954     16952     16956     16972     16965     16963     16967
     16973     16965     16963     16967     16983     16976     16974     16978
     16984     16976     16974     16978     16994     16987     16985     16989
     16995     16987     16985     16989     17005     16998     16996     17000
     17006     16998     16996     17000     17016     17009     17007     17011
     17017     17009     17007     17011     17027     17020     17018     17022
     17028     17020     17018     17022     17038     17031     17029     17033
     17039     17031     17029     17033     17049     17042     17040     17044
     17050     17042     17040     17044     17060     17053     17051     17055
     17061     17053     17051     17055     17071     17064     17062     17066
     17072     17064     17062     17066     17082     17075     17073     17077
     17083     17075     17073     17077     17093     17086     17084     17088
     17094     17086     17084     17088     17104     17097     17095     17099
     17105     17097     17095     17099     17115     17108     17106     17110
     17116     17108     17106     17110     17126     17119     17117     17121
     17127     17119     17117     17121     17137     17130     17128     17132
     17138     17130     17128     17132     17148     17141     17139     17143
     17149     17141     17139     17143     17159     17152     17150     17154
     17160     17152     17150     17154     17170     17163     17161     17165
     17171     17163     17161     17165     17181     17174     17172     17176
     17182     17174     17172     17176     17192     17185     17183     17187
     17193     17185     17183     17187     17203     17196     17194     17198
     17204     17196     17194     17198     17214     17207     17205     17209
     17215     17207     17205     17209     17225     17218     17216     17220
     17226     17218     17216     17220     17236     17229     17227     17231
     17237     17229     17227     17231     17247     17240     17238     17242
     17248     17240     17238     17242     17258     17251     17249     17253
     17259     17251     17249     17253     17269     17262     17260     17264
     17270     17262     17260     17264     17280     17273     17271     17275
     17281     17273     17271     17275     17291     17284     17282     17286
     17292     17284     17282     17286     17302     17295     17293     17297
     17303     17295     17293     17297     17313     17306     17304     17308
     17314     17306     17304     17308     17324     17317     17315     17319
     17325     17317     17315     17319     17335     17328     17326     17330
     17336     17328     17326     17330     17346     17339     17337     17341
     17347     17339     17337     17341     17357     17350     17348     17352
     17358     17350     17348     17352     17368     17361     17359     17363
     17369     17361     17359     17363     17379     17372     17370     17374
     17380     17372     17370     17374     17390     17383     17381     17385
     17391     17383     17381     17385     17401     17394     17392     17396
     17402     17394     17392     17396     17412     17405     17403     17407
     17413     17405     17403     17407     17423     17416     17414     17418
     17424     17416     17414     17418     17434     17427     17425     17429
     17435     17427     17425     17429     17445     17438     17436     17440
     17446     17438     17436     17440     17456     17449     17447     17451
     17457     17449     17447     17451     17467     17460     17458     17462
     17468     17460     17458     17462     17478     17471     17469     17473
     17479     17471     17469     17473     17489     17482     17480     17484
     17490     17482     17480     17484     17500     17493     17491     17495
     17501     17493     17491     17495     17511     17504     17502     17506
     17512     17504     17502     17506     17522     17515     17513     17517
     17523     17515     17513     17517     17533     17526     17524     17528
     17534     17526     17524     17528     17544     17537     17535     17539
     17545     17537     17535     17539     17555     17548     17546     17550
     17556     17548     17546     17550     17566     17559     17557     17561
     17567     17559     17557     17561     17577     17570     17568     17572
     17578     17570     17568     17572     17588     17581     17579     17583
     17589     17581     17579     17583     17599     17592     17590     17594
     17600     17592     17590     17594     17610     17603     17601     17605
     17611     17603     17601     17605     17621     17614     17612     17616
     17622     17614     17612     17616     17632     17625     17623     17627
     17633     17625     17623     17627     17643     17636     17634     17638
     17644     17636     17634     17638     17654     17647     17645     17649
     17655     17647     17645     17649     17665     17658     17656     17660
     17666     17658     17656     17660     17676     17669     17667     17671
     17677     17669     17667     17671     17687     17680     17678     17682
     17688     17680     17678     17682     17698     17691     17689     17693
     17699     17691     17689     17693     17709     17702     17700     17704
     17710     17702     17700     17704     17720     17713     17711     17715
     17721     17713     17711     17715     17731     17724     17722     17726
     17732     17724     17722     17726     17742     17735     17733     17737
     17743     17735     17733     17737     17753     17746     17744     17748
     17754     17746     17744     17748     17764     17757     17755     17759
     17765     17757     17755     17759     17775     17768     17766     17770
     17776     17768     17766     17770     17786     17779     17777     17781
     17787     17779     17777     17781     17797     17790     17788     17792
     17798     17790     17788     17792     17808     17801     17799     17803
     17809     17801     17799     17803     17819     17812     17810     17814
     17820     17812     17810     17814     17830     17823     17821     17825
     17831     17823     17821     17825     17841     17834     17832     17836
     17842     17834     17832     17836     17852     17845     17843     17847
     17853     17845     17843     17847     17863     17856     17854     17858
     17864     17856     17854     17858     17874     17867     17865     17869
     17875     17867     17865     17869     17885     17878     17876     17880
     17886     17878     17876     17880     17896     17889     17887     17891
     17897     17889     17887     17891     17907     17900     17898     17902
     17908     17900     17898     17902     17918     17911     17909     17913
     17919     17911     17909     17913     17929     17922     17920     17924
     17930     17922     17920     17924     17940     17933     17931     17935
     17941     17933     17931     17935     17951     17944     17942     17946
     17952     17944     17942     17946     17962     17955     17953     17957
     17963     17955     17953     17957     17973     17966     17964     17968
     17974     17966     17964     17968     17984     17977     17975     17979
     17985     17977     17975     17979     17995     17988     17986     17990
     17996     17988     17986     17990     18006     17999     17997     18001
     18007     17999     17997     18001     18017     18010     18008     18012
     18018     18010     18008     18012     18028     18021     18019     18023
     18029     18021     18019     18023     18039     18032     18030     18034
     18040     18032     18030     18034     18050     18043     18041     18045
     18051     18043     18041     18045     18061     18054     18052     18056
     18062     18054     18052     18056     18072     18065     18063     18067
     18073     18065     18063     18067     18083     18076     18074     18078
     18084     18076     18074     18078     18094     18087     18085     18089
     18095     18087     18085     18089     18105     18098     18096     18100
     18106     18098     18096     18100     18116     18109     18107     18111
     18117     18109     18107     18111     18127     18120     18118     18122
     18128     18120     18118     18122     18138     18131     18129     18133
     18139     18131     18129     18133     18149     18142     18140     18144
     18150     18142     18140     18144     18160     18153     18151     18155
     18161     18153     18151     18155     18171     18164     18162     18166
     18172     18164     18162     18166     18182     18175     18173     18177
     18183     18175     18173     18177     18193     18186     18184     18188
     18194     18186     18184     18188     18204     18197     18195     18199
     18205     18197     18195     18199     18215     18208     18206     18210
     18216     18208     18206     18210     18226     18219     18217     18221
     18227     18219     18217     18221     18237     18230     18228     18232
     18238     18230     18228     18232     18248     18241     18239     18243
     18249     18241     18239     18243     18259     18252     18250     18254
     18260     18252     18250     18254     18270     18263     18261     18265
     18271     18263     18261     18265     18281     18274     18272     18276
     18282     18274     18272     18276     18292     18285     18283     18287
     18293     18285     18283     18287     18303     18296     18294     18298
     18304     18296     18294     18298     18314     18307     18305     18309
     18315     18307     18305     18309     18325     18318     18316     18320
     18326     18318     18316     18320     18336     18329     18327     18331
     18337     18329     18327     18331     18347     18340     18338     18342
     18348     18340     18338     18342     18358     18351     18349     18353
     18359     18351     18349     18353     18369     18362     18360     18364
     18370     18362     18360     18364     18380     18373     18371     18375
     18381     18373     18371     18375     18391     18384     18382     18386
     18392     18384     18382     18386     18402     18395     18393     18397
     18403     18395     18393     18397     18413     18406     18404     18408
     18414     18406     18404     18408     18424     18417     18415     18419
     18425     18417     18415     18419     18435     18428     18426     18430
     18436     18428     18426     18430     18446     18439     18437     18441
     18447     18439     18437     18441     18457     18450     18448     18452
     18458     18450     18448     18452     18468     18461     18459     18463
     18469     18461     18459     18463     18479     18472     18470     18474
     18480     18472     18470     18474     18490     18483     18481     18485
     18491     18483     18481     18485     18501     18494     18492     18496
     18502     18494     18492     18496     18512     18505     18503     18507
     18513     18505     18503     18507     18523     18516     18514     18518
     18524     18516     18514     18518     18534     18527     18525     18529
     18535     18527     18525     18529     18545     18538     18536     18540
     18546     18538     18536     18540     18556     18549     18547     18551
     18557     18549     18547     18551     18567     18560     18558     18562
     18568     18560     18558     18562     18578     18571     18569     18573
     18579     18571     18569     18573     18589     18582     18580     18584
     18590     18582     18580     18584     18600     18593     18591     18595
     18601     18593     18591     18595     18611     18604     18602     18606
     18612     18604     18602     18606     18622     18615     18613     18617
     18623     18615     18613     18617     18633     18626     18624     18628
     18634     18626     18624     18628     18644     18637     18635     18639
     18645     18637     18635     18639     18655     18648     18646     18650
     18656     18648     18646     18650     18666     18659     18657     18661
     18667     18659     18657     18661     18677     18670     18668     18672
     18678     18670     18668     18672     18688     18681     18679     18683
     18689     18681     18679     18683     18699     18692     18690     18694
     18700     18692     18690     18694     18710     18703     18701     18705
     18711     18703     18701     18705     18721     18714     18712     18716
     18722     18714     18712     18716     18732     18725     18723     18727
     18733     18725     18723     18727     18743     18736     18734     18738
     18744     18736     18734     18738     18754     18747     18745     18749
     18755     18747     18745     18749     18765     18758     18756     18760
     18766     18758     18756     18760     18776     18769     18767     18771
     18777     18769     18767     18771     18787     18780     18778     18782
     18788     18780     18778     18782     18798     18791     18789     18793
     18799     18791     18789     18793     18809     18802     18800     18804
     18810     18802     18800     18804     18820     18813     18811     18815
     18821     18813     18811     18815     18831     18824     18822     18826
     18832     18824     18822     18826     18842     18835     18833     18837
     18843     18835     18833     18837     18853     18846     18844     18848
     18854     18846     18844     18848     18864     18857     18855     18859
     18865     18857     18855     18859     18875     18868     18866     18870
     18876     18868     18866     18870     18886     18879     18877     18881
     18887     18879     18877     18881     18897     18890     18888     18892
     18898     18890     18888     18892     18908     18901     18899     18903
     18909     18901     18899     18903     18919     18912     18910     18914
     18920     18912     18910     18914     18930     18923     18921     18925
     18931     18923     18921     18925     18941     18934     18932     18936
     18942     18934     18932     18936     18952     18945     18943     18947
     18953     18945     18943     18947     18963     18956     18954     18958
     18964     18956     18954     18958     18974     18967     18965     18969
     18975     18967     18965     18969     18985     18978     18976     18980
     18986     18978     18976     18980     18996     18989     18987     18991
     18997     18989     18987     18991     19007     19000     18998     19002
     19008     19000     18998     19002     19018     19011     19009     19013
     19019     19011     19009     19013     19029     19022     19020     19024
     19030     19022     19020     19024     19040     19033     19031     19035
     19041     19033     19031     19035     19051     19044     19042     19046
     19052     19044     19042     19046     19062     19055     19053     19057
     19063     19055     19053     19057     19073     19066     19064     19068
     19074     19066     19064     19068     19084     19077     19075     19079
     19085     19077     19075     19079     19095     19088     19086     19090
     19096     19088     19086     19090     19106     19099     19097     19101
     19107     19099     19097     19101     19117     19110     19108     19112
     19118     19110     19108     19112     19128     19121     19119     19123
     19129     19121     19119     19123     19139     19132     19130     19134
     19140     19132     19130     19134     19150     19143     19141     19145
     19151     19143     19141     19145     19161     19154     19152     19156
     19162     19154     19152     19156     19172     19165     19163     19167
     19173     19165     19163     19167     19183     19176     19174     19178
     19184     19176     19174     19178     19194     19187     19185     19189
     19195     19187     19185     19189     19205     19198     19196     19200
     19206     19198     19196     19200     19216     19209     19207     19211
     19217     19209     19207     19211     19227     19220     19218     19222
     19228     19220     19218     19222     19238     19231     19229     19233
     19239     19231     19229     19233     19249     19242     19240     19244
     19250     19242     19240     19244     19260     19253     19251     19255
     19261     19253     19251     19255     19271     19264     19262     19266
     19272     19264     19262     19266     19282     19275     19273     19277
     19283     19275     19273     19277     19293     19286     19284     19288
     19294     19286     19284     19288     19304     19297     19295     19299
     19305     19297     19295     19299     19315     19308     19306     19310
     19316     19308     19306     19310     19326     19319     19317     19321
     19327     19319     19317     19321     19337     19330     19328     19332
     19338     19330     19328     19332     19348     19341     19339     19343
     19349     19341     19339     19343     19359     19352     19350     19354
     19360     19352     19350     19354     19370     19363     19361     19365
     19371     19363     19361     19365     19381     19374     19372     19376
     19382     19374     19372     19376     19392     19385     19383     19387
     19393     19385     19383     19387     19403     19396     19394     19398
     19404     19396     19394     19398     19414     19407     19405     19409
     19415     19407     19405     19409     19425     19418     19416     19420
     19426     19418     19416     19420     19436     19429     19427     19431
     19437     19429     19427     19431     19447     19440     19438     19442
     19448     19440     19438     19442     19458     19451     19449     19453
     19459     19451     19449     19453     19469     19462     19460     19464
     19470     19462     19460     19464     19480     19473     19471     19475
     19481     19473     19471     19475     19491     19484     19482     19486
     19492     19484     19482     19486     19502     19495     19493     19497
     19503     19495     19493     19497     19513     19506     19504     19508
     19514     19506     19504     19508     19524     19517     19515     19519
     19525     19517     19515     19519     19535     19528     19526     19530
     19536     19528     19526     19530     19546     19539     19537     19541
     19547     19539     19537     19541     19557     19550     19548     19552
     19558     19550     19548     19552     19568     19561     19559     19563
     19569     19561     19559     19563     19579     19572     19570     19574
     19580     19572     19570     19574     19590     19583     19581     19585
     19591     19583     19581     19585     19601     19594     19592     19596
     19602     19594     19592     19596     19612     19605     19603     19607
     19613     19605     19603     19607     19623     19616     19614     19618
     19624     19616     19614     19618     19634     19627     19625     19629
     19635     19627     19625     19629     19645     19638     19636     19640
     19646     19638     19636     19640     19656     19649     19647     19651
     19657     19649     19647     19651     19667     19660     19658     19662
     19668     19660     19658     19662     19678     19671     19669     19673
     19679     19671     19669     19673     19689     19682     19680     19684
     19690     19682     19680     19684     19700     19693     19691     19695
     19701     19693     19691     19695     19711     19704     19702     19706
     19712     19704     19702     19706     19722     19715     19713     19717
     19723     19715     19713     19717     19733     19726     19724     19728
     19734     19726     19724     19728     19744     19737     19735     19739
     19745     19737     19735     19739     19755     19748     19746     19750
     19756     19748     19746     19750     19766     19759     19757     19761
     19767     19759     19757     19761     19777     19770     19768     19772
     19778     19770     19768     19772     19788     19781     19779     19783
     19789     19781     19779     19783     19799     19792     19790     19794
     19800     19792     19790     19794     19810     19803     19801     19805
     19811     19803     19801     19805     19821     19814     19812     19816
     19822     19814     19812     19816     19832     19825     19823     19827
     19833     19825     19823     19827     19843     19836     19834     19838
     19844     19836     19834     19838     19854     19847     19845     19849
     19855     19847     19845     19849     19865     19858     19856     19860
     19866     19858     19856     19860

      1611 !NUMANISO
             395.273      -197.531      -11.9553    
             395.273      -197.531      -11.9553    
             395.273      -197.531      -11.9553    
             395.273      -197.531      -11.9553    
             395.273      -197.531      -11.9553    
             395.273      -197.531      -11.9553    
             395.273      -197.531      -11.9553    
             395.273      -197.531      -11.9553    
             395.273      -197.531      -11.9553    
             395.273      -197.531      -11.9553    
             395.273      -197.531      -11.9553    
             395.273      -197.531      -11.9553    
             395.273      -197.531      -11.9553    
             395.273      -197.531      -11.9553    
             395.273      -197.531      -11.9553    
             395.273      -197.531      -11.9553    
             395.273      -197.531      -11.9553    
             395.273      -197.531      -11.9553    
             395.273      -197.531      -11.9553    
             395.273      -197.531      -11.9553    
             395.273      -197.531      -11.9553    
             395.273      -197.531      -11.9553    
             395.273      -197.531      -11.9553    
             395.273      -197.531      -11.9553    
             395.273      -197.531      -11.9553    
             395.273      -197.531      -11.9553    
             395.273      -197.531      -11.9553    
             395.273      -197.531      -11.9553    
             395.273      -197.531      -11.9553    
             395.273      -197.531      -11.9553    
             395.273      -197.531      -11.9553    
             395.273      -197.531      -11.9553    
             395.273      -197.531      -11.9553    
             395.273      -197.531      -11.9553    
             395.273      -197.531      -11.9553    
             395.273      -197.531      -11.9553    
             395.273      -197.531      -11.9553    
             395.273      -197.531      -11.9553    
             395.273      -197.531      -11.9553    
             395.273      -197.531      -11.9553    
             395.273      -197.531      -11.9553    
             395.273      -197.531      -11.9553    
             395.273      -197.531      -11.9553    
             395.273      -197.531      -11.9553    
             395.273      -197.531      -11.9553    
             395.273      -197.531      -11.9553    
             395.273      -197.531      -11.9553    
             395.273      -197.531      -11.9553    
             395.273      -197.531      -11.9553    
             395.273      -197.531      -11.9553    
             395.273      -197.531      -11.9553    
             395.273      -197.531      -11.9553    
             395.273      -197.531      -11.9553    
             395.273      -197.531      -11.9553    
             395.273      -197.531      -11.9553    
             395.273      -197.531      -11.9553    
             395.273      -197.531      -11.9553    
             395.273      -197.531      -11.9553    
             395.273      -197.531      -11.9553    
             395.273      -197.531      -11.9553    
             395.273      -197.531      -11.9553    
             395.273      -197.531      -11.9553    
             395.273      -197.531      -11.9553    
             395.273      -197.531      -11.9553    
             395.273      -197.531      -11.9553    
             395.273      -197.531      -11.9553    
             512.453      -102.604      -77.3205    
             205.601      -205.516       27.7492    
             512.453      -102.604      -77.3205    
             205.601      -205.516       27.7492    
             512.453      -102.604      -77.3205    
             205.601      -205.516       27.7492    
             512.453      -102.604      -77.3205    
             205.601      -205.516       27.7492    
             512.453      -102.604      -77.3205    
             205.601      -205.516       27.7492    
             512.453      -102.604      -77.3205    
             205.601      -205.516       27.7492    
             512.453      -102.604      -77.3205    
             205.601      -205.516       27.7492    
             512.453      -102.604      -77.3205    
             205.601      -205.516       27.7492    
             512.453      -102.604      -77.3205    
             205.601      -205.516       27.7492    
             512.453      -102.604      -77.3205    
             205.601      -205.516       27.7492    
             512.453      -102.604      -77.3205    
             205.601      -205.516       27.7492    
             512.453      -102.604      -77.3205    
             205.601      -205.516       27.7492    
             512.453      -102.604      -77.3205    
             205.601      -205.516       27.7492    
             512.453      -102.604      -77.3205    
             205.601      -205.516       27.7492    
             512.453      -102.604      -77.3205    
             205.601      -205.516       27.7492    
             512.453      -102.604      -77.3205    
             205.601      -205.516       27.7492    
             512.453      -102.604      -77.3205    
             205.601      -205.516       27.7492    
             512.453      -102.604      -77.3205    
             205.601      -205.516       27.7492    
             512.453      -102.604      -77.3205    
             205.601      -205.516       27.7492    
             512.453      -102.604      -77.3205    
             205.601      -205.516       27.7492    
             512.453      -102.604      -77.3205    
             205.601      -205.516       27.7492    
             512.453      -102.604      -77.3205    
             205.601      -205.516       27.7492    
             512.453      -102.604      -77.3205    
             205.601      -205.516       27.7492    
             512.453      -102.604      -77.3205    
             205.601      -205.516       27.7492    
             512.453      -102.604      -77.3205    
             205.601      -205.516       27.7492    
             512.453      -102.604      -77.3205    
             205.601      -205.516       27.7492    
             512.453      -102.604      -77.3205    
             205.601      -205.516       27.7492    
             512.453      -102.604      -77.3205    
             205.601      -205.516       27.7492    
             512.453      -102.604      -77.3205    
             205.601      -205.516       27.7492    
             512.453      -102.604      -77.3205    
             205.601      -205.516       27.7492    
             512.453      -102.604      -77.3205    
             205.601      -205.516       27.7492    
             512.453      -102.604      -77.3205    
             205.601      -205.516       27.7492    
             512.453      -102.604      -77.3205    
             205.601      -205.516       27.7492    
             512.453      -102.604      -77.3205    
             205.601      -205.516       27.7492    
             512.453      -102.604      -77.3205    
             205.601      -205.516       27.7492    
             512.453      -102.604      -77.3205    
             205.601      -205.516       27.7492    
             512.453      -102.604      -77.3205    
             205.601      -205.516       27.7492    
             512.453      -102.604      -77.3205    
             205.601      -205.516       27.7492    
             512.453      -102.604      -77.3205    
             205.601      -205.516       27.7492    
             512.453      -102.604      -77.3205    
             205.601      -205.516       27.7492    
             512.453      -102.604      -77.3205    
             205.601      -205.516       27.7492    
             512.453      -102.604      -77.3205    
             205.601      -205.516       27.7492    
             512.453      -102.604      -77.3205    
             205.601      -205.516       27.7492    
             512.453      -102.604      -77.3205    
             205.601      -205.516       27.7492    
             512.453      -102.604      -77.3205    
             205.601      -205.516       27.7492    
             512.453      -102.604      -77.3205    
             205.601      -205.516       27.7492    
             512.453      -102.604      -77.3205    
             205.601      -205.516       27.7492    
             512.453      -102.604      -77.3205    
             205.601      -205.516       27.7492    
             512.453      -102.604      -77.3205    
             205.601      -205.516       27.7492    
             512.453      -102.604      -77.3205    
             205.601      -205.516       27.7492    
             512.453      -102.604      -77.3205    
             205.601      -205.516       27.7492    
             512.453      -102.604      -77.3205    
             205.601      -205.516       27.7492    
             512.453      -102.604      -77.3205    
             205.601      -205.516       27.7492    
             512.453      -102.604      -77.3205    
             205.601      -205.516       27.7492    
             512.453      -102.604      -77.3205    
             205.601      -205.516       27.7492    
             512.453      -102.604      -77.3205    
             205.601      -205.516       27.7492    
             512.453      -102.604      -77.3205    
             205.601      -205.516       27.7492    
             512.453      -102.604      -77.3205    
             205.601      -205.516       27.7492    
             512.453      -102.604      -77.3205    
             205.601      -205.516       27.7492    
             512.453      -102.604      -77.3205    
             205.601      -205.516       27.7492    
             512.453      -102.604      -77.3205    
             205.601      -205.516       27.7492    
             512.453      -102.604      -77.3205    
             205.601      -205.516       27.7492    
             512.453      -102.604      -77.3205    
             205.601      -205.516       27.7492    
             512.453      -102.604      -77.3205    
             205.601      -205.516       27.7492    
             512.453      -102.604      -77.3205    
             205.601      -205.516       27.7492    
             512.453      -102.604      -77.3205    
             205.601      -205.516       27.7492    
             512.453      -102.604      -77.3205    
             205.601      -205.516       27.7492    
             512.453      -102.604      -77.3205    
             205.601      -205.516       27.7492    
             512.453      -102.604      -77.3205    
             205.601      -205.516       27.7492    
             512.453      -102.604      -77.3205    
             205.601      -205.516       27.7492    
             512.453      -102.604      -77.3205    
             205.601      -205.516       27.7492    
             512.453      -102.604      -77.3205    
             205.601      -205.516       27.7492    
             512.453      -102.604      -77.3205    
             205.601      -205.516       27.7492    
             512.453      -102.604      -77.3205    
             205.601      -205.516       27.7492    
             512.453      -102.604      -77.3205    
             205.601      -205.516       27.7492    
             512.453      -102.604      -77.3205    
             205.601      -205.516       27.7492    
             512.453      -102.604      -77.3205    
             205.601      -205.516       27.7492    
             512.453      -102.604      -77.3205    
             205.601      -205.516       27.7492    
             512.453      -102.604      -77.3205    
             205.601      -205.516       27.7492    
             512.453      -102.604      -77.3205    
             205.601      -205.516       27.7492    
             512.453      -102.604      -77.3205    
             205.601      -205.516       27.7492    
             512.453      -102.604      -77.3205    
             205.601      -205.516       27.7492    
             512.453      -102.604      -77.3205    
             205.601      -205.516       27.7492    
             512.453      -102.604      -77.3205    
             205.601      -205.516       27.7492    
             205.601      -205.516       27.7492    
             205.601      -205.516       27.7492    
             205.601      -205.516       27.7492    
             205.601      -205.516       27.7492    
             205.601      -205.516       27.7492    
             205.601      -205.516       27.7492    
             205.601      -205.516       27.7492    
             205.601      -205.516       27.7492    
             205.601      -205.516       27.7492    
             205.601      -205.516       27.7492    
             205.601      -205.516       27.7492    
             205.601      -205.516       27.7492    
             205.601      -205.516       27.7492    
             205.601      -205.516       27.7492    
             205.601      -205.516       27.7492    
             205.601      -205.516       27.7492    
             205.601      -205.516       27.7492    
             205.601      -205.516       27.7492    
             205.601      -205.516       27.7492    
             205.601      -205.516       27.7492    
             205.601      -205.516       27.7492    
             205.601      -205.516       27.7492    
             205.601      -205.516       27.7492    
             205.601      -205.516       27.7492    
             205.601      -205.516       27.7492    
             205.601      -205.516       27.7492    
             205.601      -205.516       27.7492    
             205.601      -205.516       27.7492    
             205.601      -205.516       27.7492    
             205.601      -205.516       27.7492    
             205.601      -205.516       27.7492    
             205.601      -205.516       27.7492    
             205.601      -205.516       27.7492    
             205.601      -205.516       27.7492    
             205.601      -205.516       27.7492    
             205.601      -205.516       27.7492    
             205.601      -205.516       27.7492    
             205.601      -205.516       27.7492    
             205.601      -205.516       27.7492    
             205.601      -205.516       27.7492    
             205.601      -205.516       27.7492    
             205.601      -205.516       27.7492    
             205.601      -205.516       27.7492    
             205.601      -205.516       27.7492    
             205.601      -205.516       27.7492    
             205.601      -205.516       27.7492    
             205.601      -205.516       27.7492    
             205.601      -205.516       27.7492    
             205.601      -205.516       27.7492    
             205.601      -205.516       27.7492    
             205.601      -205.516       27.7492    
             205.601      -205.516       27.7492    
             205.601      -205.516       27.7492    
             205.601      -205.516       27.7492    
             205.601      -205.516       27.7492    
             205.601      -205.516       27.7492    
             205.601      -205.516       27.7492    
             205.601      -205.516       27.7492    
             205.601      -205.516       27.7492    
             205.601      -205.516       27.7492    
             205.601      -205.516       27.7492    
             205.601      -205.516       27.7492    
             205.601      -205.516       27.7492    
             205.601      -205.516       27.7492    
             205.601      -205.516       27.7492    
             205.601      -205.516       27.7492    
             205.601      -205.516       27.7492    
             205.601      -205.516       27.7492    
             205.601      -205.516       27.7492    
             205.601      -205.516       27.7492    
             205.601      -205.516       27.7492    
             205.601      -205.516       27.7492    
             205.601      -205.516       27.7492    
             205.601      -205.516       27.7492    
             205.601      -205.516       27.7492    
             205.601      -205.516       27.7492    
             205.601      -205.516       27.7492    
             205.601      -205.516       27.7492    
             205.601      -205.516       27.7492    
             205.601      -205.516       27.7492    
             205.601      -205.516       27.7492    
             205.601      -205.516       27.7492    
             205.601      -205.516       27.7492    
             205.601      -205.516       27.7492    
             205.601      -205.516       27.7492    
             205.601      -205.516       27.7492    
             205.601      -205.516       27.7492    
             205.601      -205.516       27.7492    
             205.601      -205.516       27.7492    
             205.601      -205.516       27.7492    
             205.601      -205.516       27.7492    
             205.601      -205.516       27.7492    
             205.601      -205.516       27.7492    
             205.601      -205.516       27.7492    
             205.601      -205.516       27.7492    
             205.601      -205.516       27.7492    
             205.601      -205.516       27.7492    
             205.601      -205.516       27.7492    
             205.601      -205.516       27.7492    
             205.601      -205.516       27.7492    
             205.601      -205.516       27.7492    
             205.601      -205.516       27.7492    
             205.601      -205.516       27.7492    
             205.601      -205.516       27.7492    
             205.601      -205.516       27.7492    
             205.601      -205.516       27.7492    
             205.601      -205.516       27.7492    
             205.601      -205.516       27.7492    
             205.601      -205.516       27.7492    
             205.601      -205.516       27.7492    
             205.601      -205.516       27.7492    
             205.601      -205.516       27.7492    
             205.601      -205.516       27.7492    
             205.601      -205.516       27.7492    
             205.601      -205.516       27.7492    
             205.601      -205.516       27.7492    
             205.601      -205.516       27.7492    
             205.601      -205.516       27.7492    
             205.601      -205.516       27.7492    
             205.601      -205.516       27.7492    
             205.601      -205.516       27.7492    
             205.601      -205.516       27.7492    
             205.601      -205.516       27.7492    
             205.601      -205.516       27.7492    
             205.601      -205.516       27.7492    
             205.601      -205.516       27.7492    
             205.601      -205.516       27.7492    
             205.601      -205.516       27.7492    
             205.601      -205.516       27.7492    
             205.601      -205.516       27.7492    
             205.601      -205.516       27.7492    
             205.601      -205.516       27.7492    
             205.601      -205.516       27.7492    
             205.601      -205.516       27.7492    
             205.601      -205.516       27.7492    
             205.601      -205.516       27.7492    
             205.601      -205.516       27.7492    
             205.601      -205.516       27.7492    
             205.601      -205.516       27.7492    
             205.601      -205.516       27.7492    
             205.601      -205.516       27.7492    
             205.601      -205.516       27.7492    
             205.601      -205.516       27.7492    
             205.601      -205.516       27.7492    
             205.601      -205.516       27.7492    
             205.601      -205.516       27.7492    
             205.601      -205.516       27.7492    
             205.601      -205.516       27.7492    
             205.601      -205.516       27.7492    
             205.601      -205.516       27.7492    
             205.601      -205.516       27.7492    
             205.601      -205.516       27.7492    
             205.601      -205.516       27.7492    
             205.601      -205.516       27.7492    
             205.601      -205.516       27.7492    
             205.601      -205.516       27.7492    
             205.601      -205.516       27.7492    
             205.601      -205.516       27.7492    
             205.601      -205.516       27.7492    
             205.601      -205.516       27.7492    
             205.601      -205.516       27.7492    
             205.601      -205.516       27.7492    
             205.601      -205.516       27.7492    
             205.601      -205.516       27.7492    
             205.601      -205.516       27.7492    
             205.601      -205.516       27.7492    
             205.601      -205.516       27.7492    
             205.601      -205.516       27.7492    
             205.601      -205.516       27.7492    
             205.601      -205.516       27.7492    
             205.601      -205.516       27.7492    
             205.601      -205.516       27.7492    
             205.601      -205.516       27.7492    
             205.601      -205.516       27.7492    
             205.601      -205.516       27.7492    
             205.601      -205.516       27.7492    
             205.601      -205.516       27.7492    
             205.601      -205.516       27.7492    
             205.601      -205.516       27.7492    
             205.601      -205.516       27.7492    
             205.601      -205.516       27.7492    
             205.601      -205.516       27.7492    
             205.601      -205.516       27.7492    
             205.601      -205.516       27.7492    
             205.601      -205.516       27.7492    
             205.601      -205.516       27.7492    
             205.601      -205.516       27.7492    
             205.601      -205.516       27.7492    
             205.601      -205.516       27.7492    
             205.601      -205.516       27.7492    
             205.601      -205.516       27.7492    
             205.601      -205.516       27.7492    
             205.601      -205.516       27.7492    
             205.601      -205.516       27.7492    
             205.601      -205.516       27.7492    
             205.601      -205.516       27.7492    
             205.601      -205.516       27.7492    
             205.601      -205.516       27.7492    
             205.601      -205.516       27.7492    
             205.601      -205.516       27.7492    
             205.601      -205.516       27.7492    
             205.601      -205.516       27.7492    
             205.601      -205.516       27.7492    
             205.601      -205.516       27.7492    
             205.601      -205.516       27.7492    
             205.601      -205.516       27.7492    
             205.601      -205.516       27.7492    
             205.601      -205.516       27.7492    
             205.601      -205.516       27.7492    
             205.601      -205.516       27.7492    
             205.601      -205.516       27.7492    
             205.601      -205.516       27.7492    
             205.601      -205.516       27.7492    
             205.601      -205.516       27.7492    
             205.601      -205.516       27.7492    
             205.601      -205.516       27.7492    
             205.601      -205.516       27.7492    
             205.601      -205.516       27.7492    
             205.601      -205.516       27.7492    
             205.601      -205.516       27.7492    
             205.601      -205.516       27.7492    
             205.601      -205.516       27.7492    
             205.601      -205.516       27.7492    
             205.601      -205.516       27.7492    
             205.601      -205.516       27.7492    
             205.601      -205.516       27.7492    
             205.601      -205.516       27.7492    
             205.601      -205.516       27.7492    
             205.601      -205.516       27.7492    
             205.601      -205.516       27.7492    
             205.601      -205.516       27.7492    
             205.601      -205.516       27.7492    
             205.601      -205.516       27.7492    
             205.601      -205.516       27.7492    
             205.601      -205.516       27.7492    
             205.601      -205.516       27.7492    
             205.601      -205.516       27.7492    
             205.601      -205.516       27.7492    
             205.601      -205.516       27.7492    
             205.601      -205.516       27.7492    
             205.601      -205.516       27.7492    
             205.601      -205.516       27.7492    
             205.601      -205.516       27.7492    
             205.601      -205.516       27.7492    
             205.601      -205.516       27.7492    
             205.601      -205.516       27.7492    
             205.601      -205.516       27.7492    
             205.601      -205.516       27.7492    
             205.601      -205.516       27.7492    
             205.601      -205.516       27.7492    
             205.601      -205.516       27.7492    
             205.601      -205.516       27.7492    
             205.601      -205.516       27.7492    
             205.601      -205.516       27.7492    
             205.601      -205.516       27.7492    
             205.601      -205.516       27.7492    
             205.601      -205.516       27.7492    
             205.601      -205.516       27.7492    
             205.601      -205.516       27.7492    
             205.601      -205.516       27.7492    
             205.601      -205.516       27.7492    
             205.601      -205.516       27.7492    
             205.601      -205.516       27.7492    
             205.601      -205.516       27.7492    
             205.601      -205.516       27.7492    
             205.601      -205.516       27.7492    
             205.601      -205.516       27.7492    
             205.601      -205.516       27.7492    
             205.601      -205.516       27.7492    
             205.601      -205.516       27.7492    
             205.601      -205.516       27.7492    
             205.601      -205.516       27.7492    
             205.601      -205.516       27.7492    
             205.601      -205.516       27.7492    
             205.601      -205.516       27.7492    
             205.601      -205.516       27.7492    
             205.601      -205.516       27.7492    
             205.601      -205.516       27.7492    
             205.601      -205.516       27.7492    
             205.601      -205.516       27.7492    
             205.601      -205.516       27.7492    
             205.601      -205.516       27.7492    
             205.601      -205.516       27.7492    
             205.601      -205.516       27.7492    
             205.601      -205.516       27.7492    
             205.601      -205.516       27.7492    
             205.601      -205.516       27.7492    
             205.601      -205.516       27.7492    
             205.601      -205.516       27.7492    
             205.601      -205.516       27.7492    
             205.601      -205.516       27.7492    
             205.601      -205.516       27.7492    
             205.601      -205.516       27.7492    
             205.601      -205.516       27.7492    
             205.601      -205.516       27.7492    
             205.601      -205.516       27.7492    
             205.601      -205.516       27.7492    
             205.601      -205.516       27.7492    
             205.601      -205.516       27.7492    
             205.601      -205.516       27.7492    
             205.601      -205.516       27.7492    
             205.601      -205.516       27.7492    
             205.601      -205.516       27.7492    
             205.601      -205.516       27.7492    
             205.601      -205.516       27.7492    
             205.601      -205.516       27.7492    
             205.601      -205.516       27.7492    
             205.601      -205.516       27.7492    
             205.601      -205.516       27.7492    
             205.601      -205.516       27.7492    
             205.601      -205.516       27.7492    
             205.601      -205.516       27.7492    
             205.601      -205.516       27.7492    
             205.601      -205.516       27.7492    
             205.601      -205.516       27.7492    
             205.601      -205.516       27.7492    
             205.601      -205.516       27.7492    
             205.601      -205.516       27.7492    
             205.601      -205.516       27.7492    
             205.601      -205.516       27.7492    
             205.601      -205.516       27.7492    
             205.601      -205.516       27.7492    
             205.601      -205.516       27.7492    
             205.601      -205.516       27.7492    
             205.601      -205.516       27.7492    
             205.601      -205.516       27.7492    
             205.601      -205.516       27.7492    
             205.601      -205.516       27.7492    
             205.601      -205.516       27.7492    
             205.601      -205.516       27.7492    
             205.601      -205.516       27.7492    
             205.601      -205.516       27.7492    
             205.601      -205.516       27.7492    
             205.601      -205.516       27.7492    
             205.601      -205.516       27.7492    
             205.601      -205.516       27.7492    
             205.601      -205.516       27.7492    
             205.601      -205.516       27.7492    
             205.601      -205.516       27.7492    
             205.601      -205.516       27.7492    
             205.601      -205.516       27.7492    
             205.601      -205.516       27.7492    
             205.601      -205.516       27.7492    
             205.601      -205.516       27.7492    
             205.601      -205.516       27.7492    
             205.601      -205.516       27.7492    
             205.601      -205.516       27.7492    
             205.601      -205.516       27.7492    
             205.601      -205.516       27.7492    
             205.601      -205.516       27.7492    
             205.601      -205.516       27.7492    
             205.601      -205.516       27.7492    
             205.601      -205.516       27.7492    
             205.601      -205.516       27.7492    
             205.601      -205.516       27.7492    
             205.601      -205.516       27.7492    
             205.601      -205.516       27.7492    
             205.601      -205.516       27.7492    
             205.601      -205.516       27.7492    
             205.601      -205.516       27.7492    
             205.601      -205.516       27.7492    
             205.601      -205.516       27.7492    
             205.601      -205.516       27.7492    
             205.601      -205.516       27.7492    
             205.601      -205.516       27.7492    
             205.601      -205.516       27.7492    
             205.601      -205.516       27.7492    
             205.601      -205.516       27.7492    
             205.601      -205.516       27.7492    
             205.601      -205.516       27.7492    
             205.601      -205.516       27.7492    
             205.601      -205.516       27.7492    
             205.601      -205.516       27.7492    
             205.601      -205.516       27.7492    
             205.601      -205.516       27.7492    
             205.601      -205.516       27.7492    
             205.601      -205.516       27.7492    
             205.601      -205.516       27.7492    
             205.601      -205.516       27.7492    
             205.601      -205.516       27.7492    
             205.601      -205.516       27.7492    
             205.601      -205.516       27.7492    
             205.601      -205.516       27.7492    
             205.601      -205.516       27.7492    
             205.601      -205.516       27.7492    
             205.601      -205.516       27.7492    
             205.601      -205.516       27.7492    
             205.601      -205.516       27.7492    
             205.601      -205.516       27.7492    
             205.601      -205.516       27.7492    
             205.601      -205.516       27.7492    
             205.601      -205.516       27.7492    
             205.601      -205.516       27.7492    
             205.601      -205.516       27.7492    
             205.601      -205.516       27.7492    
             205.601      -205.516       27.7492    
             205.601      -205.516       27.7492    
             205.601      -205.516       27.7492    
             205.601      -205.516       27.7492    
             205.601      -205.516       27.7492    
             205.601      -205.516       27.7492    
             205.601      -205.516       27.7492    
             205.601      -205.516       27.7492    
             205.601      -205.516       27.7492    
             205.601      -205.516       27.7492    
             205.601      -205.516       27.7492    
             205.601      -205.516       27.7492    
             205.601      -205.516       27.7492    
             205.601      -205.516       27.7492    
             205.601      -205.516       27.7492    
             205.601      -205.516       27.7492    
             205.601      -205.516       27.7492    
             205.601      -205.516       27.7492    
             205.601      -205.516       27.7492    
             205.601      -205.516       27.7492    
             205.601      -205.516       27.7492    
             205.601      -205.516       27.7492    
             205.601      -205.516       27.7492    
             205.601      -205.516       27.7492    
             205.601      -205.516       27.7492    
             205.601      -205.516       27.7492    
             205.601      -205.516       27.7492    
             205.601      -205.516       27.7492    
             205.601      -205.516       27.7492    
             205.601      -205.516       27.7492    
             205.601      -205.516       27.7492    
             205.601      -205.516       27.7492    
             205.601      -205.516       27.7492    
             205.601      -205.516       27.7492    
             205.601      -205.516       27.7492    
             205.601      -205.516       27.7492    
             205.601      -205.516       27.7492    
             205.601      -205.516       27.7492    
             205.601      -205.516       27.7492    
             205.601      -205.516       27.7492    
             205.601      -205.516       27.7492    
             205.601      -205.516       27.7492    
             205.601      -205.516       27.7492    
             205.601      -205.516       27.7492    
             205.601      -205.516       27.7492    
             205.601      -205.516       27.7492    
             205.601      -205.516       27.7492    
             205.601      -205.516       27.7492    
             205.601      -205.516       27.7492    
             205.601      -205.516       27.7492    
             205.601      -205.516       27.7492    
             205.601      -205.516       27.7492    
             205.601      -205.516       27.7492    
             205.601      -205.516       27.7492    
             205.601      -205.516       27.7492    
             205.601      -205.516       27.7492    
             205.601      -205.516       27.7492    
             205.601      -205.516       27.7492    
             205.601      -205.516       27.7492    
             205.601      -205.516       27.7492    
             205.601      -205.516       27.7492    
             205.601      -205.516       27.7492    
             205.601      -205.516       27.7492    
             205.601      -205.516       27.7492    
             205.601      -205.516       27.7492    
             205.601      -205.516       27.7492    
             205.601      -205.516       27.7492    
             205.601      -205.516       27.7492    
             205.601      -205.516       27.7492    
             205.601      -205.516       27.7492    
             205.601      -205.516       27.7492    
             205.601      -205.516       27.7492    
             205.601      -205.516       27.7492    
             205.601      -205.516       27.7492    
             205.601      -205.516       27.7492    
             205.601      -205.516       27.7492    
             205.601      -205.516       27.7492    
             205.601      -205.516       27.7492    
             205.601      -205.516       27.7492    
             205.601      -205.516       27.7492    
             205.601      -205.516       27.7492    
             205.601      -205.516       27.7492    
             205.601      -205.516       27.7492    
             205.601      -205.516       27.7492    
             205.601      -205.516       27.7492    
             205.601      -205.516       27.7492    
             205.601      -205.516       27.7492    
             205.601      -205.516       27.7492    
             205.601      -205.516       27.7492    
             205.601      -205.516       27.7492    
             205.601      -205.516       27.7492    
             205.601      -205.516       27.7492    
             205.601      -205.516       27.7492    
             205.601      -205.516       27.7492    
             205.601      -205.516       27.7492    
             205.601      -205.516       27.7492    
             205.601      -205.516       27.7492    
             205.601      -205.516       27.7492    
             205.601      -205.516       27.7492    
             205.601      -205.516       27.7492    
             205.601      -205.516       27.7492    
             205.601      -205.516       27.7492    
             205.601      -205.516       27.7492    
             205.601      -205.516       27.7492    
             205.601      -205.516       27.7492    
             205.601      -205.516       27.7492    
             205.601      -205.516       27.7492    
             205.601      -205.516       27.7492    
             205.601      -205.516       27.7492    
             205.601      -205.516       27.7492    
             205.601      -205.516       27.7492    
             205.601      -205.516       27.7492    
             205.601      -205.516       27.7492    
             205.601      -205.516       27.7492    
             205.601      -205.516       27.7492    
             205.601      -205.516       27.7492    
             205.601      -205.516       27.7492    
             205.601      -205.516       27.7492    
             205.601      -205.516       27.7492    
             205.601      -205.516       27.7492    
             205.601      -205.516       27.7492    
             205.601      -205.516       27.7492    
             205.601      -205.516       27.7492    
             205.601      -205.516       27.7492    
             205.601      -205.516       27.7492    
             205.601      -205.516       27.7492    
             205.601      -205.516       27.7492    
             205.601      -205.516       27.7492    
             205.601      -205.516       27.7492    
             205.601      -205.516       27.7492    
             205.601      -205.516       27.7492    
             205.601      -205.516       27.7492    
             205.601      -205.516       27.7492    
             205.601      -205.516       27.7492    
             205.601      -205.516       27.7492    
             205.601      -205.516       27.7492    
             205.601      -205.516       27.7492    
             205.601      -205.516       27.7492    
             205.601      -205.516       27.7492    
             205.601      -205.516       27.7492    
             205.601      -205.516       27.7492    
             205.601      -205.516       27.7492    
             205.601      -205.516       27.7492    
             205.601      -205.516       27.7492    
             205.601      -205.516       27.7492    
             205.601      -205.516       27.7492    
             205.601      -205.516       27.7492    
             205.601      -205.516       27.7492    
             205.601      -205.516       27.7492    
             205.601      -205.516       27.7492    
             205.601      -205.516       27.7492    
             205.601      -205.516       27.7492    
             205.601      -205.516       27.7492    
             205.601      -205.516       27.7492    
             205.601      -205.516       27.7492    
             205.601      -205.516       27.7492    
             205.601      -205.516       27.7492    
             205.601      -205.516       27.7492    
             205.601      -205.516       27.7492    
             205.601      -205.516       27.7492    
             205.601      -205.516       27.7492    
             205.601      -205.516       27.7492    
             205.601      -205.516       27.7492    
             205.601      -205.516       27.7492    
             205.601      -205.516       27.7492    
             205.601      -205.516       27.7492    
             205.601      -205.516       27.7492    
             205.601      -205.516       27.7492    
             205.601      -205.516       27.7492    
             205.601      -205.516       27.7492    
             205.601      -205.516       27.7492    
             205.601      -205.516       27.7492    
             205.601      -205.516       27.7492    
             205.601      -205.516       27.7492    
             205.601      -205.516       27.7492    
             205.601      -205.516       27.7492    
             205.601      -205.516       27.7492    
             205.601      -205.516       27.7492    
             205.601      -205.516       27.7492    
             205.601      -205.516       27.7492    
             205.601      -205.516       27.7492    
             205.601      -205.516       27.7492    
             205.601      -205.516       27.7492    
             205.601      -205.516       27.7492    
             205.601      -205.516       27.7492    
             205.601      -205.516       27.7492    
             205.601      -205.516       27.7492    
             205.601      -205.516       27.7492    
             205.601      -205.516       27.7492    
             205.601      -205.516       27.7492    
             205.601      -205.516       27.7492    
             205.601      -205.516       27.7492    
             205.601      -205.516       27.7492    
             205.601      -205.516       27.7492    
             205.601      -205.516       27.7492    
             205.601      -205.516       27.7492    
             205.601      -205.516       27.7492    
             205.601      -205.516       27.7492    
             205.601      -205.516       27.7492    
             205.601      -205.516       27.7492    
             205.601      -205.516       27.7492    
             205.601      -205.516       27.7492    
             205.601      -205.516       27.7492    
             205.601      -205.516       27.7492    
             205.601      -205.516       27.7492    
             205.601      -205.516       27.7492    
             205.601      -205.516       27.7492    
             205.601      -205.516       27.7492    
             205.601      -205.516       27.7492    
             205.601      -205.516       27.7492    
             205.601      -205.516       27.7492    
             205.601      -205.516       27.7492    
             205.601      -205.516       27.7492    
             205.601      -205.516       27.7492    
             205.601      -205.516       27.7492    
             205.601      -205.516       27.7492    
             205.601      -205.516       27.7492    
             205.601      -205.516       27.7492    
             205.601      -205.516       27.7492    
             205.601      -205.516       27.7492    
             205.601      -205.516       27.7492    
             205.601      -205.516       27.7492    
             205.601      -205.516       27.7492    
             205.601      -205.516       27.7492    
             205.601      -205.516       27.7492    
             205.601      -205.516       27.7492    
             205.601      -205.516       27.7492    
             205.601      -205.516       27.7492    
             205.601      -205.516       27.7492    
             205.601      -205.516       27.7492    
             205.601      -205.516       27.7492    
             205.601      -205.516       27.7492    
             205.601      -205.516       27.7492    
             205.601      -205.516       27.7492    
             205.601      -205.516       27.7492    
             205.601      -205.516       27.7492    
             205.601      -205.516       27.7492    
             205.601      -205.516       27.7492    
             205.601      -205.516       27.7492    
             205.601      -205.516       27.7492    
             205.601      -205.516       27.7492    
             205.601      -205.516       27.7492    
             205.601      -205.516       27.7492    
             205.601      -205.516       27.7492    
             205.601      -205.516       27.7492    
             205.601      -205.516       27.7492    
             205.601      -205.516       27.7492    
             205.601      -205.516       27.7492    
             205.601      -205.516       27.7492    
             205.601      -205.516       27.7492    
             205.601      -205.516       27.7492    
             205.601      -205.516       27.7492    
             205.601      -205.516       27.7492    
             205.601      -205.516       27.7492    
             205.601      -205.516       27.7492    
             205.601      -205.516       27.7492    
             205.601      -205.516       27.7492    
             205.601      -205.516       27.7492    
             205.601      -205.516       27.7492    
             205.601      -205.516       27.7492    
             205.601      -205.516       27.7492    
             205.601      -205.516       27.7492    
             205.601      -205.516       27.7492    
             205.601      -205.516       27.7492    
             205.601      -205.516       27.7492    
             205.601      -205.516       27.7492    
             205.601      -205.516       27.7492    
             205.601      -205.516       27.7492    
             205.601      -205.516       27.7492    
             205.601      -205.516       27.7492    
             205.601      -205.516       27.7492    
             205.601      -205.516       27.7492    
             205.601      -205.516       27.7492    
             205.601      -205.516       27.7492    
             205.601      -205.516       27.7492    
             205.601      -205.516       27.7492    
             205.601      -205.516       27.7492    
             205.601      -205.516       27.7492    
             205.601      -205.516       27.7492    
             205.601      -205.516       27.7492    
             205.601      -205.516       27.7492    
             205.601      -205.516       27.7492    
             205.601      -205.516       27.7492    
             205.601      -205.516       27.7492    
             205.601      -205.516       27.7492    
             205.601      -205.516       27.7492    
             205.601      -205.516       27.7492    
             205.601      -205.516       27.7492    
             205.601      -205.516       27.7492    
             205.601      -205.516       27.7492    
             205.601      -205.516       27.7492    
             205.601      -205.516       27.7492    
             205.601      -205.516       27.7492    
             205.601      -205.516       27.7492    
             205.601      -205.516       27.7492    
             205.601      -205.516       27.7492    
             205.601      -205.516       27.7492    
             205.601      -205.516       27.7492    
             205.601      -205.516       27.7492    
             205.601      -205.516       27.7492    
             205.601      -205.516       27.7492    
             205.601      -205.516       27.7492    
             205.601      -205.516       27.7492    
             205.601      -205.516       27.7492    
             205.601      -205.516       27.7492    
             205.601      -205.516       27.7492    
             205.601      -205.516       27.7492    
             205.601      -205.516       27.7492    
             205.601      -205.516       27.7492    
             205.601      -205.516       27.7492    
             205.601      -205.516       27.7492    
             205.601      -205.516       27.7492    
             205.601      -205.516       27.7492    
             205.601      -205.516       27.7492    
             205.601      -205.516       27.7492    
             205.601      -205.516       27.7492    
             205.601      -205.516       27.7492    
             205.601      -205.516       27.7492    
             205.601      -205.516       27.7492    
             205.601      -205.516       27.7492    
             205.601      -205.516       27.7492    
             205.601      -205.516       27.7492    
             205.601      -205.516       27.7492    
             205.601      -205.516       27.7492    
             205.601      -205.516       27.7492    
             205.601      -205.516       27.7492    
             205.601      -205.516       27.7492    
             205.601      -205.516       27.7492    
             205.601      -205.516       27.7492    
             205.601      -205.516       27.7492    
             205.601      -205.516       27.7492    
             205.601      -205.516       27.7492    
             205.601      -205.516       27.7492    
             205.601      -205.516       27.7492    
             205.601      -205.516       27.7492    
             205.601      -205.516       27.7492    
             205.601      -205.516       27.7492    
             205.601      -205.516       27.7492    
             205.601      -205.516       27.7492    
             205.601      -205.516       27.7492    
             205.601      -205.516       27.7492    
             205.601      -205.516       27.7492    
             205.601      -205.516       27.7492    
             205.601      -205.516       27.7492    
             205.601      -205.516       27.7492    
             205.601      -205.516       27.7492    
             205.601      -205.516       27.7492    
             205.601      -205.516       27.7492    
             205.601      -205.516       27.7492    
             205.601      -205.516       27.7492    
             205.601      -205.516       27.7492    
             205.601      -205.516       27.7492    
             205.601      -205.516       27.7492    
             205.601      -205.516       27.7492    
             205.601      -205.516       27.7492    
             205.601      -205.516       27.7492    
             205.601      -205.516       27.7492    
             205.601      -205.516       27.7492    
             205.601      -205.516       27.7492    
             205.601      -205.516       27.7492    
             205.601      -205.516       27.7492    
             205.601      -205.516       27.7492    
             205.601      -205.516       27.7492    
             205.601      -205.516       27.7492    
             205.601      -205.516       27.7492    
             205.601      -205.516       27.7492    
             205.601      -205.516       27.7492    
             205.601      -205.516       27.7492    
             205.601      -205.516       27.7492    
             205.601      -205.516       27.7492    
             205.601      -205.516       27.7492    
             205.601      -205.516       27.7492    
             205.601      -205.516       27.7492    
             205.601      -205.516       27.7492    
             205.601      -205.516       27.7492    
             205.601      -205.516       27.7492    
             205.601      -205.516       27.7492    
             205.601      -205.516       27.7492    
             205.601      -205.516       27.7492    
             205.601      -205.516       27.7492    
             205.601      -205.516       27.7492    
             205.601      -205.516       27.7492    
             205.601      -205.516       27.7492    
             205.601      -205.516       27.7492    
             205.601      -205.516       27.7492    
             205.601      -205.516       27.7492    
             205.601      -205.516       27.7492    
             205.601      -205.516       27.7492    
             205.601      -205.516       27.7492    
             205.601      -205.516       27.7492    
             205.601      -205.516       27.7492    
             205.601      -205.516       27.7492    
             205.601      -205.516       27.7492    
             205.601      -205.516       27.7492    
             205.601      -205.516       27.7492    
             205.601      -205.516       27.7492    
             205.601      -205.516       27.7492    
             205.601      -205.516       27.7492    
             205.601      -205.516       27.7492    
             205.601      -205.516       27.7492    
             205.601      -205.516       27.7492    
             205.601      -205.516       27.7492    
             205.601      -205.516       27.7492    
             205.601      -205.516       27.7492    
             205.601      -205.516       27.7492    
             205.601      -205.516       27.7492    
             205.601      -205.516       27.7492    
             205.601      -205.516       27.7492    
             205.601      -205.516       27.7492    
             205.601      -205.516       27.7492    
             205.601      -205.516       27.7492    
             205.601      -205.516       27.7492    
             205.601      -205.516       27.7492    
             205.601      -205.516       27.7492    
             205.601      -205.516       27.7492    
             205.601      -205.516       27.7492    
             205.601      -205.516       27.7492    
             205.601      -205.516       27.7492    
             205.601      -205.516       27.7492    
             205.601      -205.516       27.7492    
             205.601      -205.516       27.7492    
             205.601      -205.516       27.7492    
             205.601      -205.516       27.7492    
             205.601      -205.516       27.7492    
             205.601      -205.516       27.7492    
             205.601      -205.516       27.7492    
             205.601      -205.516       27.7492    
             205.601      -205.516       27.7492    
             205.601      -205.516       27.7492    
             205.601      -205.516       27.7492    
             205.601      -205.516       27.7492    
             205.601      -205.516       27.7492    
             205.601      -205.516       27.7492    
             205.601      -205.516       27.7492    
             205.601      -205.516       27.7492    
             205.601      -205.516       27.7492    
             205.601      -205.516       27.7492    
             205.601      -205.516       27.7492    
             205.601      -205.516       27.7492    
             205.601      -205.516       27.7492    
             205.601      -205.516       27.7492    
             205.601      -205.516       27.7492    
             205.601      -205.516       27.7492    
             205.601      -205.516       27.7492    
             205.601      -205.516       27.7492    
             205.601      -205.516       27.7492    
             205.601      -205.516       27.7492    
             205.601      -205.516       27.7492    
             205.601      -205.516       27.7492    
             205.601      -205.516       27.7492    
             205.601      -205.516       27.7492    
             205.601      -205.516       27.7492    
             205.601      -205.516       27.7492    
             205.601      -205.516       27.7492    
             205.601      -205.516       27.7492    
             205.601      -205.516       27.7492    
             205.601      -205.516       27.7492    
             205.601      -205.516       27.7492    
             205.601      -205.516       27.7492    
             205.601      -205.516       27.7492    
             205.601      -205.516       27.7492    
             205.601      -205.516       27.7492    
             205.601      -205.516       27.7492    
             205.601      -205.516       27.7492    
             205.601      -205.516       27.7492    
             205.601      -205.516       27.7492    
             205.601      -205.516       27.7492    
             205.601      -205.516       27.7492    
             205.601      -205.516       27.7492    
             205.601      -205.516       27.7492    
             205.601      -205.516       27.7492    
             205.601      -205.516       27.7492    
             205.601      -205.516       27.7492    
             205.601      -205.516       27.7492    
             205.601      -205.516       27.7492    
             205.601      -205.516       27.7492    
             205.601      -205.516       27.7492    
             205.601      -205.516       27.7492    
             205.601      -205.516       27.7492    
             205.601      -205.516       27.7492    
             205.601      -205.516       27.7492    
             205.601      -205.516       27.7492    
             205.601      -205.516       27.7492    
             205.601      -205.516       27.7492    
             205.601      -205.516       27.7492    
             205.601      -205.516       27.7492    
             205.601      -205.516       27.7492    
             205.601      -205.516       27.7492    
             205.601      -205.516       27.7492    
             205.601      -205.516       27.7492    
             205.601      -205.516       27.7492    
             205.601      -205.516       27.7492    
             205.601      -205.516       27.7492    
             205.601      -205.516       27.7492    
             205.601      -205.516       27.7492    
             205.601      -205.516       27.7492    
             205.601      -205.516       27.7492    
             205.601      -205.516       27.7492    
             205.601      -205.516       27.7492    
             205.601      -205.516       27.7492    
             205.601      -205.516       27.7492    
             205.601      -205.516       27.7492    
             205.601      -205.516       27.7492    
             205.601      -205.516       27.7492    
             205.601      -205.516       27.7492    
             205.601      -205.516       27.7492    
             205.601      -205.516       27.7492    
             205.601      -205.516       27.7492    
             205.601      -205.516       27.7492    
             205.601      -205.516       27.7492    
             205.601      -205.516       27.7492    
             205.601      -205.516       27.7492    
             205.601      -205.516       27.7492    
             205.601      -205.516       27.7492    
             205.601      -205.516       27.7492    
             205.601      -205.516       27.7492    
             205.601      -205.516       27.7492    
             205.601      -205.516       27.7492    
             205.601      -205.516       27.7492    
             205.601      -205.516       27.7492    
             205.601      -205.516       27.7492    
             205.601      -205.516       27.7492    
             205.601      -205.516       27.7492    
             205.601      -205.516       27.7492    
             205.601      -205.516       27.7492    
             205.601      -205.516       27.7492    
             205.601      -205.516       27.7492    
             205.601      -205.516       27.7492    
             205.601      -205.516       27.7492    
             205.601      -205.516       27.7492    
             205.601      -205.516       27.7492    
             205.601      -205.516       27.7492    
             205.601      -205.516       27.7492    
             205.601      -205.516       27.7492    
             205.601      -205.516       27.7492    
             205.601      -205.516       27.7492    
             205.601      -205.516       27.7492    
             205.601      -205.516       27.7492    
             205.601      -205.516       27.7492    
             205.601      -205.516       27.7492    
             205.601      -205.516       27.7492    
             205.601      -205.516       27.7492    
             205.601      -205.516       27.7492    
             205.601      -205.516       27.7492    
             205.601      -205.516       27.7492    
             205.601      -205.516       27.7492    
             205.601      -205.516       27.7492    
             205.601      -205.516       27.7492    
             205.601      -205.516       27.7492    
             205.601      -205.516       27.7492    
             205.601      -205.516       27.7492    
             205.601      -205.516       27.7492    
             205.601      -205.516       27.7492    
             205.601      -205.516       27.7492    
             205.601      -205.516       27.7492    
             205.601      -205.516       27.7492    
             205.601      -205.516       27.7492    
             205.601      -205.516       27.7492    
             205.601      -205.516       27.7492    
             205.601      -205.516       27.7492    
             205.601      -205.516       27.7492    
             205.601      -205.516       27.7492    
             205.601      -205.516       27.7492    
             205.601      -205.516       27.7492    
             205.601      -205.516       27.7492    
             205.601      -205.516       27.7492    
             205.601      -205.516       27.7492    
             205.601      -205.516       27.7492    
             205.601      -205.516       27.7492    
             205.601      -205.516       27.7492    
             205.601      -205.516       27.7492    
             205.601      -205.516       27.7492    
             205.601      -205.516       27.7492    
             205.601      -205.516       27.7492    
             205.601      -205.516       27.7492    
             205.601      -205.516       27.7492    
             205.601      -205.516       27.7492    
             205.601      -205.516       27.7492    
             205.601      -205.516       27.7492    
             205.601      -205.516       27.7492    
             205.601      -205.516       27.7492    
             205.601      -205.516       27.7492    
             205.601      -205.516       27.7492    
             205.601      -205.516       27.7492    
             205.601      -205.516       27.7492    
             205.601      -205.516       27.7492    
             205.601      -205.516       27.7492    
             205.601      -205.516       27.7492    
             205.601      -205.516       27.7492    
             205.601      -205.516       27.7492    
             205.601      -205.516       27.7492    
             205.601      -205.516       27.7492    
             205.601      -205.516       27.7492    
             205.601      -205.516       27.7492    
             205.601      -205.516       27.7492    
             205.601      -205.516       27.7492    
             205.601      -205.516       27.7492    
             205.601      -205.516       27.7492    
             205.601      -205.516       27.7492    
             205.601      -205.516       27.7492    
             205.601      -205.516       27.7492    
             205.601      -205.516       27.7492    
             205.601      -205.516       27.7492    
             205.601      -205.516       27.7492    
             205.601      -205.516       27.7492    
             205.601      -205.516       27.7492    
             205.601      -205.516       27.7492    
             205.601      -205.516       27.7492    
             205.601      -205.516       27.7492    
             205.601      -205.516       27.7492    
             205.601      -205.516       27.7492    
             205.601      -205.516       27.7492    
             205.601      -205.516       27.7492    
             205.601      -205.516       27.7492    
             205.601      -205.516       27.7492    
             205.601      -205.516       27.7492    
             205.601      -205.516       27.7492    
             205.601      -205.516       27.7492    
             205.601      -205.516       27.7492    
             205.601      -205.516       27.7492    
             205.601      -205.516       27.7492    
             205.601      -205.516       27.7492    
             205.601      -205.516       27.7492    
             205.601      -205.516       27.7492    
             205.601      -205.516       27.7492    
             205.601      -205.516       27.7492    
             205.601      -205.516       27.7492    
             205.601      -205.516       27.7492    
             205.601      -205.516       27.7492    
             205.601      -205.516       27.7492    
             205.601      -205.516       27.7492    
             205.601      -205.516       27.7492    
             205.601      -205.516       27.7492    
             205.601      -205.516       27.7492    
             205.601      -205.516       27.7492    
             205.601      -205.516       27.7492    
             205.601      -205.516       27.7492    
             205.601      -205.516       27.7492    
             205.601      -205.516       27.7492    
             205.601      -205.516       27.7492    
             205.601      -205.516       27.7492    
             205.601      -205.516       27.7492    
             205.601      -205.516       27.7492    
             205.601      -205.516       27.7492    
             205.601      -205.516       27.7492    
             205.601      -205.516       27.7492    
             205.601      -205.516       27.7492    
             205.601      -205.516       27.7492    
             205.601      -205.516       27.7492    
             205.601      -205.516       27.7492    
             205.601      -205.516       27.7492    
             205.601      -205.516       27.7492    
             205.601      -205.516       27.7492    
             205.601      -205.516       27.7492    
             205.601      -205.516       27.7492    
             205.601      -205.516       27.7492    
             205.601      -205.516       27.7492    
             205.601      -205.516       27.7492    
             205.601      -205.516       27.7492    
             205.601      -205.516       27.7492    
             205.601      -205.516       27.7492    
             205.601      -205.516       27.7492    
             205.601      -205.516       27.7492    
             205.601      -205.516       27.7492    
             205.601      -205.516       27.7492    
             205.601      -205.516       27.7492    
             205.601      -205.516       27.7492    
             205.601      -205.516       27.7492    
             205.601      -205.516       27.7492    
             205.601      -205.516       27.7492    
             205.601      -205.516       27.7492    
             205.601      -205.516       27.7492    
             205.601      -205.516       27.7492    
             205.601      -205.516       27.7492    
             205.601      -205.516       27.7492    
             205.601      -205.516       27.7492    
             205.601      -205.516       27.7492    
             205.601      -205.516       27.7492    
             205.601      -205.516       27.7492    
             205.601      -205.516       27.7492    
             205.601      -205.516       27.7492    
             205.601      -205.516       27.7492    
             205.601      -205.516       27.7492    
             205.601      -205.516       27.7492    
             205.601      -205.516       27.7492    
             205.601      -205.516       27.7492    
             205.601      -205.516       27.7492    
             205.601      -205.516       27.7492    
             205.601      -205.516       27.7492    
             205.601      -205.516       27.7492    
             205.601      -205.516       27.7492    
             205.601      -205.516       27.7492    
             205.601      -205.516       27.7492    
             205.601      -205.516       27.7492    
             205.601      -205.516       27.7492    
             205.601      -205.516       27.7492    
             205.601      -205.516       27.7492    
             205.601      -205.516       27.7492    
             205.601      -205.516       27.7492    
             205.601      -205.516       27.7492    
             205.601      -205.516       27.7492    
             205.601      -205.516       27.7492    
             205.601      -205.516       27.7492    
             205.601      -205.516       27.7492    
             205.601      -205.516       27.7492    
             205.601      -205.516       27.7492    
             205.601      -205.516       27.7492    
             205.601      -205.516       27.7492    
             205.601      -205.516       27.7492    
             205.601      -205.516       27.7492    
             205.601      -205.516       27.7492    
             205.601      -205.516       27.7492    
             205.601      -205.516       27.7492    
             205.601      -205.516       27.7492    
             205.601      -205.516       27.7492    
             205.601      -205.516       27.7492    
             205.601      -205.516       27.7492    
             205.601      -205.516       27.7492    
             205.601      -205.516       27.7492    
             205.601      -205.516       27.7492    
             205.601      -205.516       27.7492    
             205.601      -205.516       27.7492    
             205.601      -205.516       27.7492    
             205.601      -205.516       27.7492    
             205.601      -205.516       27.7492    
             205.601      -205.516       27.7492    
             205.601      -205.516       27.7492    
             205.601      -205.516       27.7492    
             205.601      -205.516       27.7492    
             205.601      -205.516       27.7492    
             205.601      -205.516       27.7492    
             205.601      -205.516       27.7492    
             205.601      -205.516       27.7492    
             205.601      -205.516       27.7492    
             205.601      -205.516       27.7492    
             205.601      -205.516       27.7492    
             205.601      -205.516       27.7492    
             205.601      -205.516       27.7492    
             205.601      -205.516       27.7492    
             205.601      -205.516       27.7492    
             205.601      -205.516       27.7492    
             205.601      -205.516       27.7492    
             205.601      -205.516       27.7492    
             205.601      -205.516       27.7492    
             205.601      -205.516       27.7492    
             205.601      -205.516       27.7492    
             205.601      -205.516       27.7492    
             205.601      -205.516       27.7492    
             205.601      -205.516       27.7492    
             205.601      -205.516       27.7492    
             205.601      -205.516       27.7492    
             205.601      -205.516       27.7492    
             205.601      -205.516       27.7492    
             205.601      -205.516       27.7492    
             205.601      -205.516       27.7492    
             205.601      -205.516       27.7492    
             205.601      -205.516       27.7492    
             205.601      -205.516       27.7492    
             205.601      -205.516       27.7492    
             205.601      -205.516       27.7492    
             205.601      -205.516       27.7492    
             205.601      -205.516       27.7492    
             205.601      -205.516       27.7492    
             205.601      -205.516       27.7492    
             205.601      -205.516       27.7492    
             205.601      -205.516       27.7492    
             205.601      -205.516       27.7492    
             205.601      -205.516       27.7492    
             205.601      -205.516       27.7492    
             205.601      -205.516       27.7492    
             205.601      -205.516       27.7492    
             205.601      -205.516       27.7492    
             205.601      -205.516       27.7492    
             205.601      -205.516       27.7492    
             205.601      -205.516       27.7492    
             205.601      -205.516       27.7492    
             205.601      -205.516       27.7492    
             205.601      -205.516       27.7492    
             205.601      -205.516       27.7492    
             205.601      -205.516       27.7492    
             205.601      -205.516       27.7492    
             205.601      -205.516       27.7492    
             205.601      -205.516       27.7492    
             205.601      -205.516       27.7492    
             205.601      -205.516       27.7492    
             205.601      -205.516       27.7492    
             205.601      -205.516       27.7492    
             205.601      -205.516       27.7492    
             205.601      -205.516       27.7492    
             205.601      -205.516       27.7492    
             205.601      -205.516       27.7492    
             205.601      -205.516       27.7492    
             205.601      -205.516       27.7492    
             205.601      -205.516       27.7492    
             205.601      -205.516       27.7492    
             205.601      -205.516       27.7492    
             205.601      -205.516       27.7492    
             205.601      -205.516       27.7492    
             205.601      -205.516       27.7492    
             205.601      -205.516       27.7492    
             205.601      -205.516       27.7492    
             205.601      -205.516       27.7492    
             205.601      -205.516       27.7492    
             205.601      -205.516       27.7492    
             205.601      -205.516       27.7492    
             205.601      -205.516       27.7492    
             205.601      -205.516       27.7492    
             205.601      -205.516       27.7492    
             205.601      -205.516       27.7492    
             205.601      -205.516       27.7492    
             205.601      -205.516       27.7492    
             205.601      -205.516       27.7492    
             205.601      -205.516       27.7492    
             205.601      -205.516       27.7492    
             205.601      -205.516       27.7492    
             205.601      -205.516       27.7492    
             205.601      -205.516       27.7492    
             205.601      -205.516       27.7492    
             205.601      -205.516       27.7492    
             205.601      -205.516       27.7492    
             205.601      -205.516       27.7492    
             205.601      -205.516       27.7492    
             205.601      -205.516       27.7492    
             205.601      -205.516       27.7492    
             205.601      -205.516       27.7492    
             205.601      -205.516       27.7492    
             205.601      -205.516       27.7492    
             205.601      -205.516       27.7492    
             205.601      -205.516       27.7492    
             205.601      -205.516       27.7492    
             205.601      -205.516       27.7492    
             205.601      -205.516       27.7492    
             205.601      -205.516       27.7492    
             205.601      -205.516       27.7492    
             205.601      -205.516       27.7492    
             205.601      -205.516       27.7492    
             205.601      -205.516       27.7492    
             205.601      -205.516       27.7492    
             205.601      -205.516       27.7492    
             205.601      -205.516       27.7492    
             205.601      -205.516       27.7492    
             205.601      -205.516       27.7492    
             205.601      -205.516       27.7492    
             205.601      -205.516       27.7492    
             205.601      -205.516       27.7492    
             205.601      -205.516       27.7492    
             205.601      -205.516       27.7492    
             205.601      -205.516       27.7492    
             205.601      -205.516       27.7492    
             205.601      -205.516       27.7492    
             205.601      -205.516       27.7492    
             205.601      -205.516       27.7492    
             205.601      -205.516       27.7492    
             205.601      -205.516       27.7492    
             205.601      -205.516       27.7492    
             205.601      -205.516       27.7492    
             205.601      -205.516       27.7492    
             205.601      -205.516       27.7492    
             205.601      -205.516       27.7492    
             205.601      -205.516       27.7492    
             205.601      -205.516       27.7492    
             205.601      -205.516       27.7492    
             205.601      -205.516       27.7492    
             205.601      -205.516       27.7492    
             205.601      -205.516       27.7492    
             205.601      -205.516       27.7492    
             205.601      -205.516       27.7492    
             205.601      -205.516       27.7492    
             205.601      -205.516       27.7492    
             205.601      -205.516       27.7492    
             205.601      -205.516       27.7492    
             205.601      -205.516       27.7492    
             205.601      -205.516       27.7492    
             205.601      -205.516       27.7492    
             205.601      -205.516       27.7492    
             205.601      -205.516       27.7492    
             205.601      -205.516       27.7492    
             205.601      -205.516       27.7492    
             205.601      -205.516       27.7492    
             205.601      -205.516       27.7492    
             205.601      -205.516       27.7492    
             205.601      -205.516       27.7492    
             205.601      -205.516       27.7492    
             205.601      -205.516       27.7492    
             205.601      -205.516       27.7492    
             205.601      -205.516       27.7492    
             205.601      -205.516       27.7492    
             205.601      -205.516       27.7492    
             205.601      -205.516       27.7492    
             205.601      -205.516       27.7492    
             205.601      -205.516       27.7492    
             205.601      -205.516       27.7492    
             205.601      -205.516       27.7492    
             205.601      -205.516       27.7492    
             205.601      -205.516       27.7492    
             205.601      -205.516       27.7492    
             205.601      -205.516       27.7492    
             205.601      -205.516       27.7492    
             205.601      -205.516       27.7492    
             205.601      -205.516       27.7492    
             205.601      -205.516       27.7492    
             205.601      -205.516       27.7492    
             205.601      -205.516       27.7492    
             205.601      -205.516       27.7492    
             205.601      -205.516       27.7492    
             205.601      -205.516       27.7492    
             205.601      -205.516       27.7492    
             205.601      -205.516       27.7492    
             205.601      -205.516       27.7492    
             205.601      -205.516       27.7492    
             205.601      -205.516       27.7492    
             205.601      -205.516       27.7492    
             205.601      -205.516       27.7492    
             205.601      -205.516       27.7492    
             205.601      -205.516       27.7492    
             205.601      -205.516       27.7492    
             205.601      -205.516       27.7492    
             205.601      -205.516       27.7492    
             205.601      -205.516       27.7492    
             205.601      -205.516       27.7492    
             205.601      -205.516       27.7492    
             205.601      -205.516       27.7492    
             205.601      -205.516       27.7492    
             205.601      -205.516       27.7492    
             205.601      -205.516       27.7492    
             205.601      -205.516       27.7492    
             205.601      -205.516       27.7492    
             205.601      -205.516       27.7492    
             205.601      -205.516       27.7492    
             205.601      -205.516       27.7492    
             205.601      -205.516       27.7492    
             205.601      -205.516       27.7492    
             205.601      -205.516       27.7492    
             205.601      -205.516       27.7492    
             205.601      -205.516       27.7492    
             205.601      -205.516       27.7492    
             205.601      -205.516       27.7492    
             205.601      -205.516       27.7492    
             205.601      -205.516       27.7492    
             205.601      -205.516       27.7492    
             205.601      -205.516       27.7492    
             205.601      -205.516       27.7492    
             205.601      -205.516       27.7492    
             205.601      -205.516       27.7492    
             205.601      -205.516       27.7492    
             205.601      -205.516       27.7492    
             205.601      -205.516       27.7492    
             205.601      -205.516       27.7492    
             205.601      -205.516       27.7492    
             205.601      -205.516       27.7492    
             205.601      -205.516       27.7492    
             205.601      -205.516       27.7492    
             205.601      -205.516       27.7492    
             205.601      -205.516       27.7492    
             205.601      -205.516       27.7492    
             205.601      -205.516       27.7492    
             205.601      -205.516       27.7492    
             205.601      -205.516       27.7492    
             205.601      -205.516       27.7492    
             205.601      -205.516       27.7492    
             205.601      -205.516       27.7492    
             205.601      -205.516       27.7492    
             205.601      -205.516       27.7492    
             205.601      -205.516       27.7492    
             205.601      -205.516       27.7492    
             205.601      -205.516       27.7492    
             205.601      -205.516       27.7492    
             205.601      -205.516       27.7492    
             205.601      -205.516       27.7492    
             205.601      -205.516       27.7492    
             205.601      -205.516       27.7492    
             205.601      -205.516       27.7492    
             205.601      -205.516       27.7492    
             205.601      -205.516       27.7492    
             205.601      -205.516       27.7492    
             205.601      -205.516       27.7492    
             205.601      -205.516       27.7492    
             205.601      -205.516       27.7492    
             205.601      -205.516       27.7492    
             205.601      -205.516       27.7492    
             205.601      -205.516       27.7492    
             205.601      -205.516       27.7492    
       668       661       674       675       670       661       676       677
       685       678       691       692       687       678       693       694
       702       695       708       709       704       695       710       711
       719       712       725       726       721       712       727       728
       736       729       742       743       738       729       744       745
       753       746       759       760       755       746       761       762
       770       763       776       777       772       763       778       779
       787       780       793       794       789       780       795       796
       804       797       810       811       806       797       812       813
       821       814       827       828       823       814       829       830
       838       831       844       845       840       831       846       847
       855       848       861       862       857       848       863       864
       872       865       878       879       874       865       880       881
       889       882       895       896       891       882       897       898
       906       899       912       913       908       899       914       915
       923       916       929       930       925       916       931       932
       940       933       946       947       942       933       948       949
       957       950       963       964       959       950       965       966
       974       967       980       981       976       967       982       983
       991       984       997       998       993       984       999      1000
      1008      1001      1014      1015      1010      1001      1016      1017
      1025      1018      1031      1032      1027      1018      1033      1034
      1042      1035      1048      1049      1044      1035      1050      1051
      1059      1052      1065      1066      1061      1052      1067      1068
      1076      1069      1082      1083      1078      1069      1084      1085
      1093      1086      1099      1100      1095      1086      1101      1102
      1110      1103      1116      1117      1112      1103      1118      1119
      1127      1120      1133      1134      1129      1120      1135      1136
      1144      1137      1150      1151      1146      1137      1152      1153
      1161      1154      1167      1168      1163      1154      1169      1170
      1178      1171      1184      1185      1180      1171      1186      1187
      1195      1188      1201      1202      1197      1188      1203      1204
      1212      1205      1218      1219      1214      1205      1220      1221
      2789      2782      2795      2796      2791      2782      2797      2798
      2806      2799      2812      2813      2808      2799      2814      2815
      2823      2816      2829      2830      2825      2816      2831      2832
      2840      2833      2846      2847      2842      2833      2848      2849
      2857      2850      2863      2864      2859      2850      2865      2866
      2874      2867      2880      2881      2876      2867      2882      2883
      2891      2884      2897      2898      2893      2884      2899      2900
      2908      2901      2914      2915      2910      2901      2916      2917
      2925      2918      2931      2932      2927      2918      2933      2934
      2942      2935      2948      2949      2944      2935      2950      2951
      2959      2952      2965      2966      2961      2952      2967      2968
      2976      2969      2982      2983      2978      2969      2984      2985
      2993      2986      2999      3000      2995      2986      3001      3002
      3010      3003      3016      3017      3012      3003      3018      3019
      3027      3020      3033      3034      3029      3020      3035      3036
      3044      3037      3050      3051      3046      3037      3052      3053
      3061      3054      3067      3068      3063      3054      3069      3070
      3078      3071      3084      3085      3080      3071      3086      3087
      3095      3088      3101      3102      3097      3088      3103      3104
      3112      3105      3118      3119      3114      3105      3120      3121
      3129      3122      3135      3136      3131      3122      3137      3138
      3146      3139      3152      3153      3148      3139      3154      3155
      3163      3156      3169      3170      3165      3156      3171      3172
      3180      3173      3186      3187      3182      3173      3188      3189
      3197      3190      3203      3204      3199      3190      3205      3206
      3214      3207      3220      3221      3216      3207      3222      3223
      3231      3224      3237      3238      3233      3224      3239      3240
      3248      3241      3254      3255      3250      3241      3256      3257
      3265      3258      3271      3272      3267      3258      3273      3274
      3282      3275      3288      3289      3284      3275      3290      3291
      3299      3292      3305      3306      3301      3292      3307      3308
      3316      3309      3322      3323      3318      3309      3324      3325
      3333      3326      3339      3340      3335      3326      3341      3342
      3350      3343      3356      3357      3352      3343      3358      3359
      3367      3360      3373      3374      3369      3360      3375      3376
      3384      3377      3390      3391      3386      3377      3392      3393
      3401      3394      3407      3408      3403      3394      3409      3410
      3418      3411      3424      3425      3420      3411      3426      3427
      3435      3428      3441      3442      3437      3428      3443      3444
      3452      3445      3458      3459      3454      3445      3460      3461
      3469      3462      3475      3476      3471      3462      3477      3478
      3486      3479      3492      3493      3488      3479      3494      3495
      3503      3496      3509      3510      3505      3496      3511      3512
      3520      3513      3526      3527      3522      3513      3528      3529
      3537      3530      3543      3544      3539      3530      3545      3546
      3554      3547      3560      3561      3556      3547      3562      3563
      3571      3564      3577      3578      3573      3564      3579      3580
      3588      3581      3594      3595      3590      3581      3596      3597
      3605      3598      3611      3612      3607      3598      3613      3614
      3622      3615      3628      3629      3624      3615      3630      3631
      3639      3632      3645      3646      3641      3632      3647      3648
      3656      3649      3662      3663      3658      3649      3664      3665
      3673      3666      3679      3680      3675      3666      3681      3682
      3690      3683      3696      3697      3692      3683      3698      3699
      3707      3700      3713      3714      3709      3700      3715      3716
      3724      3717      3730      3731      3726      3717      3732      3733
      3741      3734      3747      3748      3743      3734      3749      3750
      3758      3751      3764      3765      3760      3751      3766      3767
      3775      3768      3781      3782      3777      3768      3783      3784
      3792      3785      3798      3799      3794      3785      3800      3801
      3809      3802      3815      3816      3811      3802      3817      3818
      3826      3819      3832      3833      3828      3819      3834      3835
      3843      3836      3849      3850      3845      3836      3851      3852
      3860      3853      3866      3867      3862      3853      3868      3869
      3877      3870      3883      3884      3879      3870      3885      3886
      3894      3887      3900      3901      3896      3887      3902      3903
      3911      3904      3917      3918      3913      3904      3919      3920
      3928      3921      3934      3935      3930      3921      3936      3937
      3945      3938      3951      3952      3947      3938      3953      3954
      3962      3955      3968      3969      3964      3955      3970      3971
      3979      3972      3985      3986      3981      3972      3987      3988
      3996      3989      4002      4003      3998      3989      4004      4005
      4013      4006      4019      4020      4015      4006      4021      4022
      4030      4023      4036      4037      4032      4023      4038      4039
      4047      4040      4053      4054      4049      4040      4055      4056
      4064      4057      4070      4071      4066      4057      4072      4073
      4081      4074      4087      4088      4083      4074      4089      4090
      4098      4091      4104      4105      4100      4091      4106      4107
      4115      4108      4121      4122      4117      4108      4123      4124
      4132      4125      4138      4139      4134      4125      4140      4141
      4149      4142      4155      4156      4151      4142      4157      4158
      4166      4159      4172      4173      4168      4159      4174      4175
      4183      4176      4189      4190      4185      4176      4191      4192
      4200      4193      4206      4207      4202      4193      4208      4209
      4722      4720      4729      4730      4733      4731      4740      4741
      4744      4742      4751      4752      4755      4753      4762      4763
      4766      4764      4773      4774      4777      4775      4784      4785
      4788      4786      4795      4796      4799      4797      4806      4807
      4810      4808      4817      4818      4821      4819      4828      4829
      4832      4830      4839      4840      4843      4841      4850      4851
      4854      4852      4861      4862      4865      4863      4872      4873
      4876      4874      4883      4884      4887      4885      4894      4895
      4898      4896      4905      4906      4909      4907      4916      4917
      4920      4918      4927      4928      4931      4929      4938      4939
      4942      4940      4949      4950      4953      4951      4960      4961
      4964      4962      4971      4972      4975      4973      4982      4983
      4986      4984      4993      4994      4997      4995      5004      5005
      5008      5006      5015      5016      5019      5017      5026      5027
      5030      5028      5037      5038      5041      5039      5048      5049
      5052      5050      5059      5060      5063      5061      5070      5071
      5074      5072      5081      5082      5085      5083      5092      5093
      5096      5094      5103      5104      5107      5105      5114      5115
      5118      5116      5125      5126      5129      5127      5136      5137
      5140      5138      5147      5148      5151      5149      5158      5159
      5162      5160      5169      5170      5173      5171      5180      5181
      5184      5182      5191      5192      5195      5193      5202      5203
      5206      5204      5213      5214      5217      5215      5224      5225
      5228      5226      5235      5236      5239      5237      5246      5247
      5250      5248      5257      5258      5261      5259      5268      5269
      5272      5270      5279      5280      5283      5281      5290      5291
      5294      5292      5301      5302      5305      5303      5312      5313
      5316      5314      5323      5324      5327      5325      5334      5335
      5338      5336      5345      5346      5349      5347      5356      5357
      5360      5358      5367      5368      5371      5369      5378      5379
      5382      5380      5389      5390      5393      5391      5400      5401
      5404      5402      5411      5412      5415      5413      5422      5423
      5426      5424      5433      5434      5437      5435      5444      5445
      5448      5446      5455      5456      5459      5457      5466      5467
      5470      5468      5477      5478      5481      5479      5488      5489
      5492      5490      5499      5500      5503      5501      5510      5511
      5514      5512      5521      5522      5525      5523      5532      5533
      5536      5534      5543      5544      5547      5545      5554      5555
      5558      5556      5565      5566      5569      5567      5576      5577
      5580      5578      5587      5588      5591      5589      5598      5599
      5602      5600      5609      5610      5613      5611      5620      5621
      5624      5622      5631      5632      5635      5633      5642      5643
      5646      5644      5653      5654      5657      5655      5664      5665
      5668      5666      5675      5676      5679      5677      5686      5687
      5690      5688      5697      5698      5701      5699      5708      5709
      5712      5710      5719      5720      5723      5721      5730      5731
      5734      5732      5741      5742      5745      5743      5752      5753
      5756      5754      5763      5764      5767      5765      5774      5775
      5778      5776      5785      5786      5789      5787      5796      5797
      5800      5798      5807      5808      5811      5809      5818      5819
      5822      5820      5829      5830      5833      5831      5840      5841
      5844      5842      5851      5852      5855      5853      5862      5863
      5866      5864      5873      5874      5877      5875      5884      5885
      5888      5886      5895      5896      5899      5897      5906      5907
      5910      5908      5917      5918      5921      5919      5928      5929
      5932      5930      5939      5940      5943      5941      5950      5951
      5954      5952      5961      5962      5965      5963      5972      5973
      5976      5974      5983      5984      5987      5985      5994      5995
      5998      5996      6005      6006      6009      6007      6016      6017
      6020      6018      6027      6028      6031      6029      6038      6039
      6042      6040      6049      6050      6053      6051      6060      6061
      6064      6062      6071      6072      6075      6073      6082      6083
      6086      6084      6093      6094      6097      6095      6104      6105
      6108      6106      6115      6116      6119      6117      6126      6127
      6130      6128      6137      6138      6141      6139      6148      6149
      6152      6150      6159      6160      6163      6161      6170      6171
      6174      6172      6181      6182      6185      6183      6192      6193
      6196      6194      6203      6204      6207      6205      6214      6215
      6218      6216      6225      6226      6229      6227      6236      6237
      6240      6238      6247      6248      6251      6249      6258      6259
      6262      6260      6269      6270      6273      6271      6280      6281
      6284      6282      6291      6292      6295      6293      6302      6303
      6306      6304      6313      6314      6317      6315      6324      6325
      6328      6326      6335      6336      6339      6337      6346      6347
      6350      6348      6357      6358      6361      6359      6368      6369
      6372      6370      6379      6380      6383      6381      6390      6391
      6394      6392      6401      6402      6405      6403      6412      6413
      6416      6414      6423      6424      6427      6425      6434      6435
      6438      6436      6445      6446      6449      6447      6456      6457
      6460      6458      6467      6468      6471      6469      6478      6479
      6482      6480      6489      6490      6493      6491      6500      6501
      6504      6502      6511      6512      6515      6513      6522      6523
      6526      6524      6533      6534      6537      6535      6544      6545
      6548      6546      6555      6556      6559      6557      6566      6567
      6570      6568      6577      6578      6581      6579      6588      6589
      6592      6590      6599      6600      6603      6601      6610      6611
      6614      6612      6621      6622      6625      6623      6632      6633
      6636      6634      6643      6644      6647      6645      6654      6655
      6658      6656      6665      6666      6669      6667      6676      6677
      6680      6678      6687      6688      6691      6689      6698      6699
      6702      6700      6709      6710      6713      6711      6720      6721
      6724      6722      6731      6732      6735      6733      6742      6743
      6746      6744      6753      6754      6757      6755      6764      6765
      6768      6766      6775      6776      6779      6777      6786      6787
      6790      6788      6797      6798      6801      6799      6808      6809
      6812      6810      6819      6820      6823      6821      6830      6831
      6834      6832      6841      6842      6845      6843      6852      6853
      6856      6854      6863      6864      6867      6865      6874      6875
      6878      6876      6885      6886      6889      6887      6896      6897
      6900      6898      6907      6908      6911      6909      6918      6919
      6922      6920      6929      6930      6933      6931      6940      6941
      6944      6942      6951      6952      6955      6953      6962      6963
      6966      6964      6973      6974      6977      6975      6984      6985
      6988      6986      6995      6996      6999      6997      7006      7007
      7010      7008      7017      7018      7021      7019      7028      7029
      7032      7030      7039      7040      7043      7041      7050      7051
      7054      7052      7061      7062      7065      7063      7072      7073
      7076      7074      7083      7084      7087      7085      7094      7095
      7098      7096      7105      7106      7109      7107      7116      7117
      7120      7118      7127      7128      7131      7129      7138      7139
      7142      7140      7149      7150      7153      7151      7160      7161
      7164      7162      7171      7172      7175      7173      7182      7183
      7186      7184      7193      7194      7197      7195      7204      7205
      7208      7206      7215      7216      7219      7217      7226      7227
      7230      7228      7237      7238      7241      7239      7248      7249
      7252      7250      7259      7260      7263      7261      7270      7271
      7274      7272      7281      7282      7285      7283      7292      7293
      7296      7294      7303      7304      7307      7305      7314      7315
      7318      7316      7325      7326      7329      7327      7336      7337
      7340      7338      7347      7348      7351      7349      7358      7359
      7362      7360      7369      7370      7373      7371      7380      7381
      7384      7382      7391      7392      7395      7393      7402      7403
      7406      7404      7413      7414      7417      7415      7424      7425
      7428      7426      7435      7436      7439      7437      7446      7447
      7450      7448      7457      7458      7461      7459      7468      7469
      7472      7470      7479      7480      7483      7481      7490      7491
      7494      7492      7501      7502      7505      7503      7512      7513
      7516      7514      7523      7524      7527      7525      7534      7535
      7538      7536      7545      7546      7549      7547      7556      7557
      7560      7558      7567      7568      7571      7569      7578      7579
      7582      7580      7589      7590      7593      7591      7600      7601
      7604      7602      7611      7612      7615      7613      7622      7623
      7626      7624      7633      7634      7637      7635      7644      7645
      7648      7646      7655      7656      7659      7657      7666      7667
      7670      7668      7677      7678      7681      7679      7688      7689
      7692      7690      7699      7700      7703      7701      7710      7711
      7714      7712      7721      7722      7725      7723      7732      7733
      7736      7734      7743      7744      7747      7745      7754      7755
      7758      7756      7765      7766      7769      7767      7776      7777
      7780      7778      7787      7788      7791      7789      7798      7799
      7802      7800      7809      7810      7813      7811      7820      7821
      7824      7822      7831      7832      7835      7833      7842      7843
      7846      7844      7853      7854      7857      7855      7864      7865
      7868      7866      7875      7876      7879      7877      7886      7887
      7890      7888      7897      7898      7901      7899      7908      7909
      7912      7910      7919      7920      7923      7921      7930      7931
      7934      7932      7941      7942      7945      7943      7952      7953
      7956      7954      7963      7964      7967      7965      7974      7975
      7978      7976      7985      7986      7989      7987      7996      7997
      8000      7998      8007      8008      8011      8009      8018      8019
      8022      8020      8029      8030      8033      8031      8040      8041
      8044      8042      8051      8052      8055      8053      8062      8063
      8066      8064      8073      8074      8077      8075      8084      8085
      8088      8086      8095      8096      8099      8097      8106      8107
      8110      8108      8117      8118      8121      8119      8128      8129
      8132      8130      8139      8140      8143      8141      8150      8151
      8154      8152      8161      8162      8165      8163      8172      8173
      8176      8174      8183      8184      8187      8185      8194      8195
      8198      8196      8205      8206      8209      8207      8216      8217
      8220      8218      8227      8228      8231      8229      8238      8239
      8242      8240      8249      8250      8253      8251      8260      8261
      8264      8262      8271      8272      8275      8273      8282      8283
      8286      8284      8293      8294      8297      8295      8304      8305
      8308      8306      8315      8316      8319      8317      8326      8327
      8330      8328      8337      8338      8341      8339      8348      8349
      8352      8350      8359      8360      8363      8361      8370      8371
      8374      8372      8381      8382      8385      8383      8392      8393
      8396      8394      8403      8404      8407      8405      8414      8415
      8418      8416      8425      8426      8429      8427      8436      8437
      8440      8438      8447      8448      8451      8449      8458      8459
      8462      8460      8469      8470      8473      8471      8480      8481
      8484      8482      8491      8492      8495      8493      8502      8503
      8506      8504      8513      8514      8517      8515      8524      8525
      8528      8526      8535      8536      8539      8537      8546      8547
      8550      8548      8557      8558      8561      8559      8568      8569
      8572      8570      8579      8580      8583      8581      8590      8591
      8594      8592      8601      8602      8605      8603      8612      8613
      8616      8614      8623      8624      8627      8625      8634      8635
      8638      8636      8645      8646      8649      8647      8656      8657
      8660      8658      8667      8668      8671      8669      8678      8679
      8682      8680      8689      8690      8693      8691      8700      8701
      8704      8702      8711      8712      8715      8713      8722      8723
      8726      8724      8733      8734      8737      8735      8744      8745
      8748      8746      8755      8756      8759      8757      8766      8767
      8770      8768      8777      8778      8781      8779      8788      8789
      8792      8790      8799      8800      8803      8801      8810      8811
      8814      8812      8821      8822      8825      8823      8832      8833
      8836      8834      8843      8844      8847      8845      8854      8855
      8858      8856      8865      8866      8869      8867      8876      8877
      8880      8878      8887      8888      8891      8889      8898      8899
      8902      8900      8909      8910      8913      8911      8920      8921
      8924      8922      8931      8932      8935      8933      8942      8943
      8946      8944      8953      8954      8957      8955      8964      8965
      8968      8966      8975      8976      8979      8977      8986      8987
      8990      8988      8997      8998      9001      8999      9008      9009
      9012      9010      9019      9020      9023      9021      9030      9031
      9034      9032      9041      9042      9045      9043      9052      9053
      9056      9054      9063      9064      9067      9065      9074      9075
      9078      9076      9085      9086      9089      9087      9096      9097
      9100      9098      9107      9108      9111      9109      9118      9119
      9122      9120      9129      9130      9133      9131      9140      9141
      9144      9142      9151      9152      9155      9153      9162      9163
      9166      9164      9173      9174      9177      9175      9184      9185
      9188      9186      9195      9196      9199      9197      9206      9207
      9210      9208      9217      9218      9221      9219      9228      9229
      9232      9230      9239      9240      9243      9241      9250      9251
      9254      9252      9261      9262      9265      9263      9272      9273
      9276      9274      9283      9284      9287      9285      9294      9295
      9298      9296      9305      9306      9309      9307      9316      9317
      9320      9318      9327      9328      9331      9329      9338      9339
      9342      9340      9349      9350      9353      9351      9360      9361
      9364      9362      9371      9372      9375      9373      9382      9383
      9386      9384      9393      9394      9397      9395      9404      9405
      9408      9406      9415      9416      9419      9417      9426      9427
      9430      9428      9437      9438      9441      9439      9448      9449
      9452      9450      9459      9460      9463      9461      9470      9471
      9474      9472      9481      9482      9485      9483      9492      9493
      9496      9494      9503      9504      9507      9505      9514      9515
      9518      9516      9525      9526      9529      9527      9536      9537
      9540      9538      9547      9548      9551      9549      9558      9559
      9562      9560      9569      9570      9573      9571      9580      9581
      9584      9582      9591      9592      9595      9593      9602      9603
      9606      9604      9613      9614      9617      9615      9624      9625
      9628      9626      9635      9636      9639      9637      9646      9647
      9650      9648      9657      9658      9661      9659      9668      9669
      9672      9670      9679      9680      9683      9681      9690      9691
      9694      9692      9701      9702      9705      9703      9712      9713
      9716      9714      9723      9724      9727      9725      9734      9735
      9738      9736      9745      9746      9749      9747      9756      9757
      9760      9758      9767      9768      9771      9769      9778      9779
      9782      9780      9789      9790      9793      9791      9800      9801
      9804      9802      9811      9812      9815      9813      9822      9823
      9826      9824      9833      9834      9837      9835      9844      9845
      9848      9846      9855      9856      9859      9857      9866      9867
      9870      9868      9877      9878      9881      9879      9888      9889
      9892      9890      9899      9900      9903      9901      9910      9911
      9914      9912      9921      9922      9925      9923      9932      9933
      9936      9934      9943      9944      9947      9945      9954      9955
      9958      9956      9965      9966      9969      9967      9976      9977
      9980      9978      9987      9988      9991      9989      9998      9999
     10002     10000     10009     10010     10013     10011     10020     10021
     10024     10022     10031     10032     10035     10033     10042     10043
     10046     10044     10053     10054     10057     10055     10064     10065
     10068     10066     10075     10076     10079     10077     10086     10087
     10090     10088     10097     10098     10101     10099     10108     10109
     10112     10110     10119     10120     10123     10121     10130     10131
     10134     10132     10141     10142     10145     10143     10152     10153
     10156     10154     10163     10164     10167     10165     10174     10175
     10178     10176     10185     10186     10189     10187     10196     10197
     10200     10198     10207     10208     10211     10209     10218     10219
     10222     10220     10229     10230     10233     10231     10240     10241
     10244     10242     10251     10252     10255     10253     10262     10263
     10266     10264     10273     10274     10277     10275     10284     10285
     10288     10286     10295     10296     10299     10297     10306     10307
     10310     10308     10317     10318     10321     10319     10328     10329
     10332     10330     10339     10340     10343     10341     10350     10351
     10354     10352     10361     10362     10365     10363     10372     10373
     10376     10374     10383     10384     10387     10385     10394     10395
     10398     10396     10405     10406     10409     10407     10416     10417
     10420     10418     10427     10428     10431     10429     10438     10439
     10442     10440     10449     10450     10453     10451     10460     10461
     10464     10462     10471     10472     10475     10473     10482     10483
     10486     10484     10493     10494     10497     10495     10504     10505
     10508     10506     10515     10516     10519     10517     10526     10527
     10530     10528     10537     10538     10541     10539     10548     10549
     10552     10550     10559     10560     10563     10561     10570     10571
     10574     10572     10581     10582     10585     10583     10592     10593
     10596     10594     10603     10604     10607     10605     10614     10615
     10618     10616     10625     10626     10629     10627     10636     10637
     10640     10638     10647     10648     10651     10649     10658     10659
     10662     10660     10669     10670     10673     10671     10680     10681
     10684     10682     10691     10692     10695     10693     10702     10703
     10706     10704     10713     10714     10717     10715     10724     10725
     10728     10726     10735     10736     10739     10737     10746     10747
     10750     10748     10757     10758     10761     10759     10768     10769
     10772     10770     10779     10780     10783     10781     10790     10791
     10794     10792     10801     10802     10805     10803     10812     10813
     10816     10814     10823     10824     10827     10825     10834     10835
     10838     10836     10845     10846     10849     10847     10856     10857
     10860     10858     10867     10868     10871     10869     10878     10879
     10882     10880     10889     10890     10893     10891     10900     10901
     10904     10902     10911     10912     10915     10913     10922     10923
     10926     10924     10933     10934     10937     10935     10944     10945
     10948     10946     10955     10956     10959     10957     10966     10967
     10970     10968     10977     10978     10981     10979     10988     10989
     10992     10990     10999     11000     11003     11001     11010     11011
     11014     11012     11021     11022     11025     11023     11032     11033
     11036     11034     11043     11044     11047     11045     11054     11055
     11058     11056     11065     11066     11069     11067     11076     11077
     11080     11078     11087     11088     11091     11089     11098     11099
     11102     11100     11109     11110     11113     11111     11120     11121
     11124     11122     11131     11132     11135     11133     11142     11143
     11146     11144     11153     11154     11157     11155     11164     11165
     11168     11166     11175     11176     11179     11177     11186     11187
     11190     11188     11197     11198     11201     11199     11208     11209
     11212     11210     11219     11220     11223     11221     11230     11231
     11234     11232     11241     11242     11245     11243     11252     11253
     11256     11254     11263     11264     11267     11265     11274     11275
     11278     11276     11285     11286     11289     11287     11296     11297
     11300     11298     11307     11308     11311     11309     11318     11319
     11322     11320     11329     11330     11333     11331     11340     11341
     11344     11342     11351     11352     11355     11353     11362     11363
     11366     11364     11373     11374     11377     11375     11384     11385
     11388     11386     11395     11396     11399     11397     11406     11407
     11410     11408     11417     11418     11421     11419     11428     11429
     11432     11430     11439     11440     11443     11441     11450     11451
     11454     11452     11461     11462     11465     11463     11472     11473
     11476     11474     11483     11484     11487     11485     11494     11495
     11498     11496     11505     11506     11509     11507     11516     11517
     11520     11518     11527     11528     11531     11529     11538     11539
     11542     11540     11549     11550     11553     11551     11560     11561
     11564     11562     11571     11572     11575     11573     11582     11583
     11586     11584     11593     11594     11597     11595     11604     11605
     11608     11606     11615     11616     11619     11617     11626     11627
     11630     11628     11637     11638     11641     11639     11648     11649
     11652     11650     11659     11660     11663     11661     11670     11671
     11674     11672     11681     11682     11685     11683     11692     11693
     11696     11694     11703     11704     11707     11705     11714     11715
     11718     11716     11725     11726     11729     11727     11736     11737
     11740     11738     11747     11748     11751     11749     11758     11759
     11762     11760     11769     11770     11773     11771     11780     11781
     11784     11782     11791     11792     11795     11793     11802     11803
     11806     11804     11813     11814     11817     11815     11824     11825
     11828     11826     11835     11836     11839     11837     11846     11847
     11850     11848     11857     11858     11861     11859     11868     11869
     11872     11870     11879     11880     11883     11881     11890     11891
     11894     11892     11901     11902     11905     11903     11912     11913
     11916     11914     11923     11924     11927     11925     11934     11935
     11938     11936     11945     11946     11949     11947     11956     11957
     11960     11958     11967     11968     11971     11969     11978     11979
     11982     11980     11989     11990     11993     11991     12000     12001
     12004     12002     12011     12012     12015     12013     12022     12023
     12026     12024     12033     12034     12037     12035     12044     12045
     12048     12046     12055     12056     12059     12057     12066     12067
     12070     12068     12077     12078     12081     12079     12088     12089
     12092     12090     12099     12100     12103     12101     12110     12111
     12114     12112     12121     12122     12125     12123     12132     12133
     12136     12134     12143     12144     12147     12145     12154     12155
     12158     12156     12165     12166     12169     12167     12176     12177
     12180     12178     12187     12188     12191     12189     12198     12199
     12202     12200     12209     12210     12213     12211     12220     12221
     12224     12222     12231     12232     12235     12233     12242     12243
     12246     12244     12253     12254     12257     12255     12264     12265
     12268     12266     12275     12276     12279     12277     12286     12287
     12290     12288     12297     12298     12301     12299     12308     12309
     12312     12310     12319     12320     12323     12321     12330     12331
     12334     12332     12341     12342     12345     12343     12352     12353
     12356     12354     12363     12364     12367     12365     12374     12375
     12378     12376     12385     12386     12389     12387     12396     12397
     12400     12398     12407     12408     12411     12409     12418     12419
     12422     12420     12429     12430     12433     12431     12440     12441
     12444     12442     12451     12452     12455     12453     12462     12463
     12466     12464     12473     12474     12477     12475     12484     12485
     12488     12486     12495     12496     12499     12497     12506     12507
     12510     12508     12517     12518     12521     12519     12528     12529
     12532     12530     12539     12540     12543     12541     12550     12551
     12554     12552     12561     12562     12565     12563     12572     12573
     12576     12574     12583     12584     12587     12585     12594     12595
     12598     12596     12605     12606     12609     12607     12616     12617
     12620     12618     12627     12628     12631     12629     12638     12639
     12642     12640     12649     12650     12653     12651     12660     12661
     12664     12662     12671     12672     12675     12673     12682     12683
     12686     12684     12693     12694     12697     12695     12704     12705
     12708     12706     12715     12716     12719     12717     12726     12727
     12730     12728     12737     12738     12741     12739     12748     12749
     12752     12750     12759     12760     12763     12761     12770     12771
     12774     12772     12781     12782     12785     12783     12792     12793
     12796     12794     12803     12804     12807     12805     12814     12815
     12818     12816     12825     12826     12829     12827     12836     12837
     12840     12838     12847     12848     12851     12849     12858     12859
     12862     12860     12869     12870     12873     12871     12880     12881
     12884     12882     12891     12892     12895     12893     12902     12903
     12906     12904     12913     12914     12917     12915     12924     12925
     12928     12926     12935     12936     12939     12937     12946     12947
     12950     12948     12957     12958     12961     12959     12968     12969
     12972     12970     12979     12980     12983     12981     12990     12991
     12994     12992     13001     13002     13005     13003     13012     13013
     13016     13014     13023     13024     13027     13025     13034     13035
     13038     13036     13045     13046     13049     13047     13056     13057
     13060     13058     13067     13068     13071     13069     13078     13079
     13082     13080     13089     13090     13093     13091     13100     13101
     13104     13102     13111     13112     13115     13113     13122     13123
     13126     13124     13133     13134     13137     13135     13144     13145
     13148     13146     13155     13156     13159     13157     13166     13167
     13170     13168     13177     13178     13181     13179     13188     13189
     13192     13190     13199     13200     13203     13201     13210     13211
     13214     13212     13221     13222     13225     13223     13232     13233
     13236     13234     13243     13244     13247     13245     13254     13255
     13258     13256     13265     13266     13269     13267     13276     13277
     13280     13278     13287     13288     13291     13289     13298     13299
     13302     13300     13309     13310     13313     13311     13320     13321
     13324     13322     13331     13332     13335     13333     13342     13343
     13346     13344     13353     13354     13357     13355     13364     13365
     13368     13366     13375     13376     13379     13377     13386     13387
     13390     13388     13397     13398     13401     13399     13408     13409
     13412     13410     13419     13420     13423     13421     13430     13431
     13434     13432     13441     13442     13445     13443     13452     13453
     13456     13454     13463     13464     13467     13465     13474     13475
     13478     13476     13485     13486     13489     13487     13496     13497
     13500     13498     13507     13508     13511     13509     13518     13519
     13522     13520     13529     13530     13533     13531     13540     13541
     13544     13542     13551     13552     13555     13553     13562     13563
     13566     13564     13573     13574     13577     13575     13584     13585
     13588     13586     13595     13596     13599     13597     13606     13607
     13610     13608     13617     13618     13621     13619     13628     13629
     13632     13630     13639     13640     13643     13641     13650     13651
     13654     13652     13661     13662     13665     13663     13672     13673
     13676     13674     13683     13684     13687     13685     13694     13695
     13698     13696     13705     13706     13709     13707     13716     13717
     13720     13718     13727     13728     13731     13729     13738     13739
     13742     13740     13749     13750     13753     13751     13760     13761
     13764     13762     13771     13772     13775     13773     13782     13783
     13786     13784     13793     13794     13797     13795     13804     13805
     13808     13806     13815     13816     13819     13817     13826     13827
     13830     13828     13837     13838     13841     13839     13848     13849
     13852     13850     13859     13860     13863     13861     13870     13871
     13874     13872     13881     13882     13885     13883     13892     13893
     13896     13894     13903     13904     13907     13905     13914     13915
     13918     13916     13925     13926     13929     13927     13936     13937
     13940     13938     13947     13948     13951     13949     13958     13959
     13962     13960     13969     13970     13973     13971     13980     13981
     13984     13982     13991     13992     13995     13993     14002     14003
     14006     14004     14013     14014     14017     14015     14024     14025
     14028     14026     14035     14036     14039     14037     14046     14047
     14050     14048     14057     14058     14061     14059     14068     14069
     14072     14070     14079     14080     14083     14081     14090     14091
     14094     14092     14101     14102     14105     14103     14112     14113
     14116     14114     14123     14124     14127     14125     14134     14135
     14138     14136     14145     14146     14149     14147     14156     14157
     14160     14158     14167     14168     14171     14169     14178     14179
     14182     14180     14189     14190     14193     14191     14200     14201
     14204     14202     14211     14212     14215     14213     14222     14223
     14226     14224     14233     14234     14237     14235     14244     14245
     14248     14246     14255     14256     14259     14257     14266     14267
     14270     14268     14277     14278     14281     14279     14288     14289
     14292     14290     14299     14300     14303     14301     14310     14311
     14314     14312     14321     14322     14325     14323     14332     14333
     14336     14334     14343     14344     14347     14345     14354     14355
     14358     14356     14365     14366     14369     14367     14376     14377
     14380     14378     14387     14388     14391     14389     14398     14399
     14402     14400     14409     14410     14413     14411     14420     14421
     14424     14422     14431     14432     14435     14433     14442     14443
     14446     14444     14453     14454     14457     14455     14464     14465
     14468     14466     14475     14476     14479     14477     14486     14487
     14490     14488     14497     14498     14501     14499     14508     14509
     14512     14510     14519     14520     14523     14521     14530     14531
     14534     14532     14541     14542     14545     14543     14552     14553
     14556     14554     14563     14564     14567     14565     14574     14575
     14578     14576     14585     14586     14589     14587     14596     14597
     14600     14598     14607     14608     14611     14609     14618     14619
     14622     14620     14629     14630     14633     14631     14640     14641
     14644     14642     14651     14652     14655     14653     14662     14663
     14666     14664     14673     14674     14677     14675     14684     14685
     14688     14686     14695     14696     14699     14697     14706     14707
     14710     14708     14717     14718     14721     14719     14728     14729
     14732     14730     14739     14740     14743     14741     14750     14751
     14754     14752     14761     14762     14765     14763     14772     14773
     14776     14774     14783     14784     14787     14785     14794     14795
     14798     14796     14805     14806     14809     14807     14816     14817
     14820     14818     14827     14828     14831     14829     14838     14839
     14842     14840     14849     14850     14853     14851     14860     14861
     14864     14862     14871     14872     14875     14873     14882     14883
     14886     14884     14893     14894     14897     14895     14904     14905
     14908     14906     14915     14916     14919     14917     14926     14927
     14930     14928     14937     14938     14941     14939     14948     14949
     14952     14950     14959     14960     14963     14961     14970     14971
     14974     14972     14981     14982     14985     14983     14992     14993
     14996     14994     15003     15004     15007     15005     15014     15015
     15018     15016     15025     15026     15029     15027     15036     15037
     15040     15038     15047     15048     15051     15049     15058     15059
     15062     15060     15069     15070     15073     15071     15080     15081
     15084     15082     15091     15092     15095     15093     15102     15103
     15106     15104     15113     15114     15117     15115     15124     15125
     15128     15126     15135     15136     15139     15137     15146     15147
     15150     15148     15157     15158     15161     15159     15168     15169
     15172     15170     15179     15180     15183     15181     15190     15191
     15194     15192     15201     15202     15205     15203     15212     15213
     15216     15214     15223     15224     15227     15225     15234     15235
     15238     15236     15245     15246     15249     15247     15256     15257
     15260     15258     15267     15268     15271     15269     15278     15279
     15282     15280     15289     15290     15293     15291     15300     15301
     15304     15302     15311     15312     15315     15313     15322     15323
     15326     15324     15333     15334     15337     15335     15344     15345
     15348     15346     15355     15356     15359     15357     15366     15367
     15370     15368     15377     15378     15381     15379     15388     15389
     15392     15390     15399     15400     15403     15401     15410     15411
     15414     15412     15421     15422     15425     15423     15432     15433
     15436     15434     15443     15444     15447     15445     15454     15455
     15458     15456     15465     15466     15469     15467     15476     15477
     15480     15478     15487     15488     15491     15489     15498     15499
     15502     15500     15509     15510     15513     15511     15520     15521
     15524     15522     15531     15532     15535     15533     15542     15543
     15546     15544     15553     15554     15557     15555     15564     15565
     15568     15566     15575     15576     15579     15577     15586     15587
     15590     15588     15597     15598     15601     15599     15608     15609
     15612     15610     15619     15620     15623     15621     15630     15631
     15634     15632     15641     15642     15645     15643     15652     15653
     15656     15654     15663     15664     15667     15665     15674     15675
     15678     15676     15685     15686     15689     15687     15696     15697
     15700     15698     15707     15708     15711     15709     15718     15719
     15722     15720     15729     15730     15733     15731     15740     15741
     15744     15742     15751     15752     15755     15753     15762     15763
     15766     15764     15773     15774     15777     15775     15784     15785
     15788     15786     15795     15796     15799     15797     15806     15807
     15810     15808     15817     15818     15821     15819     15828     15829
     15832     15830     15839     15840     15843     15841     15850     15851
     15854     15852     15861     15862     15865     15863     15872     15873
     15876     15874     15883     15884     15887     15885     15894     15895
     15898     15896     15905     15906     15909     15907     15916     15917
     15920     15918     15927     15928     15931     15929     15938     15939
     15942     15940     15949     15950     15953     15951     15960     15961
     15964     15962     15971     15972     15975     15973     15982     15983
     15986     15984     15993     15994     15997     15995     16004     16005
     16008     16006     16015     16016     16019     16017     16026     16027
     16030     16028     16037     16038     16041     16039     16048     16049
     16052     16050     16059     16060     16063     16061     16070     16071
     16074     16072     16081     16082     16085     16083     16092     16093
     16096     16094     16103     16104     16107     16105     16114     16115
     16118     16116     16125     16126     16129     16127     16136     16137
     16140     16138     16147     16148     16151     16149     16158     16159
     16162     16160     16169     16170     16173     16171     16180     16181
     16184     16182     16191     16192     16195     16193     16202     16203
     16206     16204     16213     16214     16217     16215     16224     16225
     16228     16226     16235     16236     16239     16237     16246     16247
     16250     16248     16257     16258     16261     16259     16268     16269
     16272     16270     16279     16280     16283     16281     16290     16291
     16294     16292     16301     16302     16305     16303     16312     16313
     16316     16314     16323     16324     16327     16325     16334     16335
     16338     16336     16345     16346     16349     16347     16356     16357
     16360     16358     16367     16368     16371     16369     16378     16379
     16382     16380     16389     16390     16393     16391     16400     16401
     16404     16402     16411     16412     16415     16413     16422     16423
     16426     16424     16433     16434     16437     16435     16444     16445
     16448     16446     16455     16456     16459     16457     16466     16467
     16470     16468     16477     16478     16481     16479     16488     16489
     16492     16490     16499     16500     16503     16501     16510     16511
     16514     16512     16521     16522     16525     16523     16532     16533
     16536     16534     16543     16544     16547     16545     16554     16555
     16558     16556     16565     16566     16569     16567     16576     16577
     16580     16578     16587     16588     16591     16589     16598     16599
     16602     16600     16609     16610     16613     16611     16620     16621
     16624     16622     16631     16632     16635     16633     16642     16643
     16646     16644     16653     16654     16657     16655     16664     16665
     16668     16666     16675     16676     16679     16677     16686     16687
     16690     16688     16697     16698     16701     16699     16708     16709
     16712     16710     16719     16720     16723     16721     16730     16731
     16734     16732     16741     16742     16745     16743     16752     16753
     16756     16754     16763     16764     16767     16765     16774     16775
     16778     16776     16785     16786     16789     16787     16796     16797
     16800     16798     16807     16808     16811     16809     16818     16819
     16822     16820     16829     16830     16833     16831     16840     16841
     16844     16842     16851     16852     16855     16853     16862     16863
     16866     16864     16873     16874     16877     16875     16884     16885
     16888     16886     16895     16896     16899     16897     16906     16907
     16910     16908     16917     16918     16921     16919     16928     16929
     16932     16930     16939     16940     16943     16941     16950     16951
     16954     16952     16961     16962     16965     16963     16972     16973
     16976     16974     16983     16984     16987     16985     16994     16995
     16998     16996     17005     17006     17009     17007     17016     17017
     17020     17018     17027     17028     17031     17029     17038     17039
     17042     17040     17049     17050     17053     17051     17060     17061
     17064     17062     17071     17072     17075     17073     17082     17083
     17086     17084     17093     17094     17097     17095     17104     17105
     17108     17106     17115     17116     17119     17117     17126     17127
     17130     17128     17137     17138     17141     17139     17148     17149
     17152     17150     17159     17160     17163     17161     17170     17171
     17174     17172     17181     17182     17185     17183     17192     17193
     17196     17194     17203     17204     17207     17205     17214     17215
     17218     17216     17225     17226     17229     17227     17236     17237
     17240     17238     17247     17248     17251     17249     17258     17259
     17262     17260     17269     17270     17273     17271     17280     17281
     17284     17282     17291     17292     17295     17293     17302     17303
     17306     17304     17313     17314     17317     17315     17324     17325
     17328     17326     17335     17336     17339     17337     17346     17347
     17350     17348     17357     17358     17361     17359     17368     17369
     17372     17370     17379     17380     17383     17381     17390     17391
     17394     17392     17401     17402     17405     17403     17412     17413
     17416     17414     17423     17424     17427     17425     17434     17435
     17438     17436     17445     17446     17449     17447     17456     17457
     17460     17458     17467     17468     17471     17469     17478     17479
     17482     17480     17489     17490     17493     17491     17500     17501
     17504     17502     17511     17512     17515     17513     17522     17523
     17526     17524     17533     17534     17537     17535     17544     17545
     17548     17546     17555     17556     17559     17557     17566     17567
     17570     17568     17577     17578     17581     17579     17588     17589
     17592     17590     17599     17600     17603     17601     17610     17611
     17614     17612     17621     17622     17625     17623     17632     17633
     17636     17634     17643     17644     17647     17645     17654     17655
     17658     17656     17665     17666     17669     17667     17676     17677
     17680     17678     17687     17688     17691     17689     17698     17699
     17702     17700     17709     17710     17713     17711     17720     17721
     17724     17722     17731     17732     17735     17733     17742     17743
     17746     17744     17753     17754     17757     17755     17764     17765
     17768     17766     17775     17776     17779     17777     17786     17787
     17790     17788     17797     17798     17801     17799     17808     17809
     17812     17810     17819     17820     17823     17821     17830     17831
     17834     17832     17841     17842     17845     17843     17852     17853
     17856     17854     17863     17864     17867     17865     17874     17875
     17878     17876     17885     17886     17889     17887     17896     17897
     17900     17898     17907     17908     17911     17909     17918     17919
     17922     17920     17929     17930     17933     17931     17940     17941
     17944     17942     17951     17952     17955     17953     17962     17963
     17966     17964     17973     17974     17977     17975     17984     17985
     17988     17986     17995     17996     17999     17997     18006     18007
     18010     18008     18017     18018     18021     18019     18028     18029
     18032     18030     18039     18040     18043     18041     18050     18051
     18054     18052     18061     18062     18065     18063     18072     18073
     18076     18074     18083     18084     18087     18085     18094     18095
     18098     18096     18105     18106     18109     18107     18116     18117
     18120     18118     18127     18128     18131     18129     18138     18139
     18142     18140     18149     18150     18153     18151     18160     18161
     18164     18162     18171     18172     18175     18173     18182     18183
     18186     18184     18193     18194     18197     18195     18204     18205
     18208     18206     18215     18216     18219     18217     18226     18227
     18230     18228     18237     18238     18241     18239     18248     18249
     18252     18250     18259     18260     18263     18261     18270     18271
     18274     18272     18281     18282     18285     18283     18292     18293
     18296     18294     18303     18304     18307     18305     18314     18315
     18318     18316     18325     18326     18329     18327     18336     18337
     18340     18338     18347     18348     18351     18349     18358     18359
     18362     18360     18369     18370     18373     18371     18380     18381
     18384     18382     18391     18392     18395     18393     18402     18403
     18406     18404     18413     18414     18417     18415     18424     18425
     18428     18426     18435     18436     18439     18437     18446     18447
     18450     18448     18457     18458     18461     18459     18468     18469
     18472     18470     18479     18480     18483     18481     18490     18491
     18494     18492     18501     18502     18505     18503     18512     18513
     18516     18514     18523     18524     18527     18525     18534     18535
     18538     18536     18545     18546     18549     18547     18556     18557
     18560     18558     18567     18568     18571     18569     18578     18579
     18582     18580     18589     18590     18593     18591     18600     18601
     18604     18602     18611     18612     18615     18613     18622     18623
     18626     18624     18633     18634     18637     18635     18644     18645
     18648     18646     18655     18656     18659     18657     18666     18667
     18670     18668     18677     18678     18681     18679     18688     18689
     18692     18690     18699     18700     18703     18701     18710     18711
     18714     18712     18721     18722     18725     18723     18732     18733
     18736     18734     18743     18744     18747     18745     18754     18755
     18758     18756     18765     18766     18769     18767     18776     18777
     18780     18778     18787     18788     18791     18789     18798     18799
     18802     18800     18809     18810     18813     18811     18820     18821
     18824     18822     18831     18832     18835     18833     18842     18843
     18846     18844     18853     18854     18857     18855     18864     18865
     18868     18866     18875     18876     18879     18877     18886     18887
     18890     18888     18897     18898     18901     18899     18908     18909
     18912     18910     18919     18920     18923     18921     18930     18931
     18934     18932     18941     18942     18945     18943     18952     18953
     18956     18954     18963     18964     18967     18965     18974     18975
     18978     18976     18985     18986     18989     18987     18996     18997
     19000     18998     19007     19008     19011     19009     19018     19019
     19022     19020     19029     19030     19033     19031     19040     19041
     19044     19042     19051     19052     19055     19053     19062     19063
     19066     19064     19073     19074     19077     19075     19084     19085
     19088     19086     19095     19096     19099     19097     19106     19107
     19110     19108     19117     19118     19121     19119     19128     19129
     19132     19130     19139     19140     19143     19141     19150     19151
     19154     19152     19161     19162     19165     19163     19172     19173
     19176     19174     19183     19184     19187     19185     19194     19195
     19198     19196     19205     19206     19209     19207     19216     19217
     19220     19218     19227     19228     19231     19229     19238     19239
     19242     19240     19249     19250     19253     19251     19260     19261
     19264     19262     19271     19272     19275     19273     19282     19283
     19286     19284     19293     19294     19297     19295     19304     19305
     19308     19306     19315     19316     19319     19317     19326     19327
     19330     19328     19337     19338     19341     19339     19348     19349
     19352     19350     19359     19360     19363     19361     19370     19371
     19374     19372     19381     19382     19385     19383     19392     19393
     19396     19394     19403     19404     19407     19405     19414     19415
     19418     19416     19425     19426     19429     19427     19436     19437
     19440     19438     19447     19448     19451     19449     19458     19459
     19462     19460     19469     19470     19473     19471     19480     19481
     19484     19482     19491     19492     19495     19493     19502     19503
     19506     19504     19513     19514     19517     19515     19524     19525
     19528     19526     19535     19536     19539     19537     19546     19547
     19550     19548     19557     19558     19561     19559     19568     19569
     19572     19570     19579     19580     19583     19581     19590     19591
     19594     19592     19601     19602     19605     19603     19612     19613
     19616     19614     19623     19624     19627     19625     19634     19635
     19638     19636     19645     19646     19649     19647     19656     19657
     19660     19658     19667     19668     19671     19669     19678     19679
     19682     19680     19689     19690     19693     19691     19700     19701
     19704     19702     19711     19712     19715     19713     19722     19723
     19726     19724     19733     19734     19737     19735     19744     19745
     19748     19746     19755     19756     19759     19757     19766     19767
     19770     19768     19777     19778     19781     19779     19788     19789
     19792     19790     19799     19800     19803     19801     19810     19811
     19814     19812     19821     19822     19825     19823     19832     19833
     19836     19834     19843     19844     19847     19845     19854     19855
     19858     19856     19865     19866

         0 !NCRTERM: cross-terms

