*~~~~~~~~~~~~~~~~~~~~~~~~~~~~~~~~~~~~~~~~~~~~~~~~~~~~~~~~~~~~~~~~~~~~~~~
*~ MINIMIZATION OF PACKMOL STRUCTURE
*~~~~~~~~~~~~~~~~~~~~~~~~~~~~~~~~~~~~~~~~~~~~~~~~~~~~~~~~~~~~~~~~~~~~~~~
*  DATE:    12/12/23     14:43:52      CREATED BY USER: marta
*
        46  EXT
         1         1  HOAC      C1              8.5257113363        1.9373760274        9.2928238935  HOAC      1               0.0000000000
         2         1  HOAC      DC1             8.5575169171        1.9309398785        9.3039080595  HOAC      1               0.0000000000
         3         1  HOAC      C2              8.4549925624        0.4608068888        9.1011609639  HOAC      1               0.0000000000
         4         1  HOAC      DC2             8.4781998508        0.4654395480        9.1215305806  HOAC      1               0.0000000000
         5         1  HOAC      H1              7.9153651402       -0.0000000014        9.9560178263  HOAC      1               0.0000000000
         6         1  HOAC      H2              9.4785685729        0.0431263004        8.9909063582  HOAC      1               0.0000000000
         7         1  HOAC      H3              7.8968684656        0.2406316570        8.1660987412  HOAC      1               0.0000000000
         8         1  HOAC      O1              9.5392450228        2.5729904999        9.5923987030  HOAC      1               0.0000000000
         9         1  HOAC      DO1             9.5449627030        2.5653749711        9.6190693464  HOAC      1               0.0000000000
        10         1  HOAC      O2              7.2942329330        2.4480357094        9.2173531067  HOAC      1               0.0000000000
        11         1  HOAC      DO2             7.3251114274        2.4195483429        9.2362414470  HOAC      1               0.0000000000
        12         1  HOAC      HO2             7.2887486135        3.3977260732        9.0249495328  HOAC      1               0.0000000000
        13         1  HOAC      HO1             9.4075613700        3.5262591273        9.7059739628  HOAC      1               0.0000000000
        14         1  HOAC      LPO11           9.3832936991        2.8257462218        9.6252511217  HOAC      1               0.0000000000
        15         1  HOAC      LPO12           9.7128150905        2.3281995261        9.5639870455  HOAC      1               0.0000000000
        16         1  HOAC      LPO21           7.1674562545        2.4257418307        8.8913702969  HOAC      1               0.0000000000
        17         1  HOAC      LPO22           7.1827546522        2.5553996644        9.5320466358  HOAC      1               0.0000000000
        18         2  OAC       C1              6.0837117757        3.0414170325        6.5876584069  OAC       1               0.0000000000
        19         2  OAC       DC1             6.0812919475        3.0426318766        6.5944490803  OAC       1               0.0000000000
        20         2  OAC       C2              7.4086646034        3.6269692366        6.0484822776  OAC       1               0.0000000000
        21         2  OAC       DC2             7.4082627353        3.6217031640        6.0600653353  OAC       1               0.0000000000
        22         2  OAC       H1              7.2289253771        4.6543198879        5.6656436045  OAC       1               0.0000000000
        23         2  OAC       H2              7.8198232241        3.0044007673        5.2252702206  OAC       1               0.0000000000
        24         2  OAC       H3              8.1534344060        3.6680014354        6.8718626880  OAC       1               0.0000000000
        25         2  OAC       O1              5.7218654022        1.9021105475        6.1296529499  OAC       1               0.0000000000
        26         2  OAC       DO1             5.7252029314        1.9060798313        6.1327412932  OAC       1               0.0000000000
        27         2  OAC       O2              5.5172241001        3.7605710672        7.4872178669  OAC       1               0.0000000000
        28         2  OAC       DO2             5.5264417030        3.7604343982        7.4926209474  OAC       1               0.0000000000
        29         2  OAC       HO2             4.7340766983        3.3524387735        7.8860526423  OAC       1               0.0000000000
        30         2  OAC       HO1             4.8898555261        1.5681695481        6.4973538812  OAC       1               0.0000000000
        31         2  OAC       LPO11           5.9573678858        1.7895107572        5.9001476828  OAC       1               0.0000000000
        32         2  OAC       LPO12           5.4190505162        1.8077525492        6.2777222254  OAC       1               0.0000000000
        33         2  OAC       LPO21           5.7091367836        4.0443905745        7.5462668935  OAC       1               0.0000000000
        34         2  OAC       LPO22           5.2212120233        3.6055249030        7.5910691157  OAC       1               0.0000000000
        35         3  TOH2      OH2             0.8101438924        1.1474608063        1.5496589096  TOH2      1               0.0000000000
        36         3  TOH2      DOH2            0.8269602757        1.0697619932        1.5383373110  TOH2      1               0.0000000000
        37         3  TOH2      H1              0.3231756356        1.7326178005        0.9616922274  TOH2      1               0.0000000000
        38         3  TOH2      H2              0.5354625652        1.3104414982        2.4569841394  TOH2      1               0.0000000000
        39         3  TOH2      H3              1.7521737526        1.3220336454        1.4638936617  TOH2      1               0.0000000000
        40         3  TOH2      H4              0.6298429599        0.2320689091        1.3155630768  TOH2      1               0.0000000000
        41         4  TOH3      OH2             0.8183658412        8.8090773810        0.4814926892  TOH3      1               0.0000000000
        42         4  TOH3      DOH2            0.8103373509        8.7828520985        0.4688557345  TOH3      1               0.0000000000
        43         4  TOH3      H1              1.1811165265        7.9523216219        0.2372937520  TOH3      1               0.0000000000
        44         4  TOH3      H2              0.6421553108        8.8304664903        1.4268730178  TOH3      1               0.0000000000
        45         4  TOH3      H3              1.4496812657        9.5026468045        0.2678249567  TOH3      1               0.0000000000
        46         4  TOH3      H4             -0.0000000019        8.9630051150        0.0000000003  TOH3      1               0.0000000000
