PSF EXT CMAP CHEQ DRUDE XPLOR

         4 !NTITLE
*~~~~~~~~~~~~~~~~~~~~~~~~~~~~~~~~~~~~~~~~~~~~~~~~~~~~~~~~~~~~~~~~~~~~~~~        
*~ MINIMIZATION OF PACKMOL STRUCTURE                                            
*~~~~~~~~~~~~~~~~~~~~~~~~~~~~~~~~~~~~~~~~~~~~~~~~~~~~~~~~~~~~~~~~~~~~~~~        
*  DATE:    12/12/23     14:43:52      CREATED BY USER: marta                   

        46 !NATOM
         1 HOAC     1        HOAC     C1       CD2O3A    3.55420       11.6110           0  -1.20700      0.708000    
         2 HOAC     1        HOAC     DC1      DRUD     -2.69620      0.400000           0   0.00000       0.00000    
         3 HOAC     1        HOAC     C2       CD33C     3.26820       11.6110           0  -2.11400      0.750000    
         4 HOAC     1        HOAC     DC2      DRUD     -3.56820      0.400000           0   0.00000       0.00000    
         5 HOAC     1        HOAC     H1       HDA3A    0.920000E-01   1.00800           0   0.00000       0.00000    
         6 HOAC     1        HOAC     H2       HDA3A    0.920000E-01   1.00800           0   0.00000       0.00000    
         7 HOAC     1        HOAC     H3       HDA3A    0.920000E-01   1.00800           0   0.00000       0.00000    
         8 HOAC     1        HOAC     O1       OD2C3A    2.35650       15.5994           0 -0.922000       1.53900    
         9 HOAC     1        HOAC     DO1      DRUD     -2.35650      0.400000           0   0.00000       0.00000    
        10 HOAC     1        HOAC     O2       OD31F     2.77650       15.5990           0  -1.28000       1.12400    
        11 HOAC     1        HOAC     DO2      DRUD     -2.77650      0.400000           0   0.00000       0.00000    
        12 HOAC     1        HOAC     HO2      HDP1A    0.374000       1.00800           0   0.00000       0.00000    
        13 HOAC     1        HOAC     HO1      DUMH      0.00000       1.00800           0   0.00000       0.00000    
        14 HOAC     1        HOAC     LPO11    LPD     -0.319000       0.00000          -1   0.00000       0.00000    
        15 HOAC     1        HOAC     LPO12    LPD     -0.319000       0.00000          -1   0.00000       0.00000    
        16 HOAC     1        HOAC     LPO21    LPD     -0.285000       0.00000          -1   0.00000       0.00000    
        17 HOAC     1        HOAC     LPO22    LPD     -0.285000       0.00000          -1   0.00000       0.00000    
        18 OAC      1        OAC      C1       CD2O2A    3.18170       11.6110           0  -1.01600      0.899000    
        19 OAC      1        OAC      DC1      DRUD     -2.47370      0.400000           0   0.00000       0.00000    
        20 OAC      1        OAC      C2       CD33A     2.98790       11.6110           0  -1.68100       1.41400    
        21 OAC      1        OAC      DC2      DRUD     -3.18190      0.400000           0   0.00000       0.00000    
        22 OAC      1        OAC      H1       HDA3A    0.400000E-02   1.00800           0   0.00000       0.00000    
        23 OAC      1        OAC      H2       HDA3A    0.400000E-02   1.00800           0   0.00000       0.00000    
        24 OAC      1        OAC      H3       HDA3A    0.400000E-02   1.00800           0   0.00000       0.00000    
        25 OAC      1        OAC      O1       OD2C2A    2.05480       15.5994           0 -0.699000       2.39900    
        26 OAC      1        OAC      DO1      DRUD     -2.05180      0.400000           0   0.00000       0.00000    
        27 OAC      1        OAC      O2       OD2C2A    2.05480       15.5994           0 -0.699000       2.39900    
        28 OAC      1        OAC      DO2      DRUD     -2.05180      0.400000           0   0.00000       0.00000    
        29 OAC      1        OAC      HO2      DUMH      0.00000       1.00800           0   0.00000       0.00000    
        30 OAC      1        OAC      HO1      DUMH      0.00000       1.00800           0   0.00000       0.00000    
        31 OAC      1        OAC      LPO11    LPD     -0.383000       0.00000          -1   0.00000       0.00000    
        32 OAC      1        OAC      LPO12    LPD     -0.383000       0.00000          -1   0.00000       0.00000    
        33 OAC      1        OAC      LPO21    LPD     -0.383000       0.00000          -1   0.00000       0.00000    
        34 OAC      1        OAC      LPO22    LPD     -0.383000       0.00000          -1   0.00000       0.00000    
        35 TOH2     1        TOH2     OH2      OPOL13    1.88140       15.5994           0  -1.08000       1.30000    
        36 TOH2     1        TOH2     DOH2     DRUD     -2.55040      0.400000           0   0.00000       0.00000    
        37 TOH2     1        TOH2     H1       HPOL     0.334500       1.00800           0   0.00000       0.00000    
        38 TOH2     1        TOH2     H2       HPOL     0.334500       1.00800           0   0.00000       0.00000    
        39 TOH2     1        TOH2     H3       DUMH      0.00000       1.00800           0   0.00000       0.00000    
        40 TOH2     1        TOH2     H4       DUMH      0.00000       1.00800           0   0.00000       0.00000    
        41 TOH3     1        TOH3     OH2      OPOL13    2.06330       15.5994           0  -1.08000       1.30000    
        42 TOH3     1        TOH3     DOH2     DRUD     -2.55040      0.400000           0   0.00000       0.00000    
        43 TOH3     1        TOH3     H1       HPOL     0.495700       1.00800           0   0.00000       0.00000    
        44 TOH3     1        TOH3     H2       HPOL     0.495700       1.00800           0   0.00000       0.00000    
        45 TOH3     1        TOH3     H3       HPOL     0.495700       1.00800           0   0.00000       0.00000    
        46 TOH3     1        TOH3     H4       DUMH      0.00000       1.00800           0   0.00000       0.00000    

        42 !NBOND: bonds
         1         2         3         4         8         9        10        11
         3         1         1         8         1        10         3         5
         3         6         3         7         8        13        10        12
         8        14         8        15        10        16        10        17
        18        19        20        21        25        26        27        28
        20        18        18        25        18        27        20        22
        20        23        20        24        25        30        27        29
        25        31        25        32        27        33        27        34
        35        36        35        37        35        38        35        39
        35        40        41        42        41        43        41        44
        41        45        41        46

        34 !NTHETA: angles
         3         1         8         3         1        10         8         1        10
         1         3         5         1         3         6         1         3         7
         5         3         6         5         3         7         6         3         7
         1         8        13         1        10        12        20        18        25
        20        18        27        25        18        27        18        20        22
        18        20        23        18        20        24        22        20        23
        22        20        24        23        20        24        18        25        30
        18        27        29        37        35        38        37        35        39
        37        35        40        38        35        39        38        35        40
        39        35        40        43        41        44        43        41        45
        43        41        46        44        41        45        44        41        46
        45        41        46

        20 !NPHI: dihedrals
         3         1         8        13         3         1        10        12
         5         3         1         8         5         3         1        10
         6         3         1         8         6         3         1        10
         7         3         1         8         7         3         1        10
         8         1        10        12        10         1         8        13
        20        18        25        30        20        18        27        29
        22        20        18        25        22        20        18        27
        23        20        18        25        23        20        18        27
        24        20        18        25        24        20        18        27
        25        18        27        29        27        18        25        30

         2 !NIMPHI: impropers
         8         3        10         1        25        20        27        18

         0 !NDON: donors


         0 !NACC: acceptors


         0 !NNB

         0         0         0         0         0         0         0         0
         0         0         0         0         0         0         0         0
         0         0         0         0         0         0         0         0
         0         0         0         0         0         0         0         0
         0         0         0         0         0         0         0         0
         0         0         0         0         0         0

         4         0 !NGRP NST2
         0         1         0        17         2         0        34         1         0
        40         2         0

         1 !MOLNT
         1         1         1         1         1         1         1         1
         1         1         1         1         1         1         1         1
         1         1         1         1         1         1         1         1
         1         1         1         1         1         1         1         1
         1         1         1         1         1         1         1         1
         1         1         1         1         1         1

         8        32 !NUMLP NUMLPH
         3         1   F  0.300000       91.0000       0.00000    
         3         5   F  0.300000       91.0000       180.000    
         3         9   F  0.350000       110.900       91.0000    
         3        13   F  0.350000       110.900       269.000    
         3        17   F  0.350000       110.000       0.00000    
         3        21   F  0.350000       110.000       180.000    
         3        25   F  0.350000       110.000       0.00000    
         3        29   F  0.350000       110.000       180.000    
        14         8         1        10        15         8         1        10
        16        10         1        12        17        10         1        12
        31        25        18        20        32        25        18        20
        33        27        18        20        34        27        18        20

         4 !NUMANISO
             512.453      -102.604      -77.3205    
             205.601      -205.516       27.7492    
             395.273      -197.531      -11.9553    
             395.273      -197.531      -11.9553    
         8         1        14        15        10         1        16        17
        25        18        31        32        27        18        33        34

         0 !NCRTERM: cross-terms

